G1.5-PAMAM in water
113962
    1aaa     N1    1   5.422   4.157   1.966 -0.7537  0.3616 -0.1719
    1aaa     C1    2   5.354   4.277   2.015 -0.1927 -0.0709  0.3636
    1aaa     C2    3   5.445   4.390   2.077 -0.0232 -0.0691  0.2527
    1aaa     N2    4   5.372   4.509   2.139 -0.6189 -0.0880  0.4281
    1aaa     C3    5   5.291   4.581   2.034  0.2973  0.6397  0.2941
    1aaa     C4    6   5.483   4.605   2.183  0.5382  0.0887  0.0643
    1aaa     C5    7   5.501   4.185   1.841 -0.2869  0.2031  0.2227
    1aaa     C6    8   5.319   4.061   1.920 -0.1992 -0.4981  0.3048
    1aaa     C7    9   5.542   4.568   2.319  1.1820 -0.1160 -0.5603
    1aaa     C8   10   5.623   4.684   2.378 -0.0522  0.4548  0.0292
    1aaa     C9   11   5.169   4.658   2.089  0.0345 -0.0453 -0.1313
    1aaa    C10   12   5.056   4.669   1.993  0.2334 -0.2117  0.0396
    1aaa    C11   13   5.646   4.223   1.868 -0.1598 -0.2334 -0.4869
    1aaa    C12   14   5.724   4.257   1.745  0.2054 -0.5757  1.1746
    1aaa    C13   15   5.229   3.995   2.033  0.2169  0.0743  0.0187
    1aaa    C14   16   5.149   3.872   1.991 -0.1678 -1.1319 -0.7276
    1aaa     O1   17   5.047   4.602   1.893  0.7613  0.3254  0.3977
    1aaa     O2   18   5.655   4.793   2.329 -0.3131 -0.0434 -0.5446
    1aaa     O3   19   5.113   3.831   1.880 -0.0522 -0.2322  0.0956
    1aaa     O4   20   5.682   4.347   1.673 -0.6076 -0.3418  0.4215
    1aaa     H1   21   5.285   4.245   2.094  0.0779  0.5725  0.8720
    1aaa     H2   22   5.288   4.311   1.936 -3.2892  0.2328  2.8683
    1aaa     H3   23   5.496   4.426   1.987  1.4717  0.1808  1.1747
    1aaa     H4   24   5.523   4.354   2.144 -0.3776 -3.4057 -0.8955
    1aaa     H5   25   5.252   4.496   1.979  2.0827  0.0468 -0.1181
    1aaa     H6   26   5.353   4.649   1.976  1.5617  2.6616  3.7397
    1aaa     H7   27   5.558   4.603   2.104  0.7575 -0.9635  0.2952
    1aaa     H8   28   5.444   4.707   2.178 -0.5837 -0.3699 -0.9141
    1aaa     H9   29   5.509   4.091   1.786 -0.5609 -0.3749  1.1427
    1aaa    H10   30   5.440   4.253   1.780  1.3378  2.5130  1.0366
    1aaa    H11   31   5.253   4.120   1.857 -2.0930  0.3379  2.8701
    1aaa    H12   32   5.367   3.984   1.859  1.3811 -0.6726  1.6880
    1aaa    H13   33   5.467   4.534   2.392  1.7045 -0.2247 -0.0655
    1aaa    H14   34   5.606   4.479   2.313 -1.3739 -2.0569 -1.3059
    1aaa    H15   35   5.208   4.756   2.119  2.1896 -0.8620 -0.0684
    1aaa    H16   36   5.129   4.616   2.182 -0.5689 -0.8503 -0.7435
    1aaa    H17   37   5.657   4.300   1.944 -0.2732  0.6646 -1.3523
    1aaa    H18   38   5.689   4.135   1.917  1.3913  1.5454  1.5116
    1aaa    H19   39   5.295   3.988   2.120  2.0850  0.7160 -1.2646
    1aaa    H20   40   5.153   4.065   2.071 -1.8658 -1.8086 -0.4781
    1aaa    H37   41   5.492   4.113   2.027  1.3921  1.2656 -1.8635
    1aaa    H38   42   5.314   4.474   2.217  1.3052 -1.5715  1.2879
    2bbb     N1   43   5.754   4.834   2.855 -0.0704 -0.2917 -0.3352
    2bbb     C1   44   5.779   4.986   2.816  0.4072 -0.0858 -0.3133
    2bbb     C2   45   5.890   4.769   2.889 -0.4439 -0.1509  0.0181
    2bbb     C3   46   5.644   5.063   2.856 -0.1293 -0.2858 -0.2635
    2bbb     C4   47   5.610   5.078   3.010 -0.3577 -0.2671  0.7323
    2bbb     C5   48   5.901   4.628   2.952  0.1411  0.9305 -0.0922
    2bbb     C6   49   6.042   4.596   3.003  0.7921 -1.0549  0.0705
    2bbb     C7   50   5.674   4.772   2.736 -0.1131 -0.9710 -0.4384
    2bbb     C8   51   5.734   4.754   2.592 -0.3050  0.1837 -0.3412
    2bbb     N2   52   5.667   4.659   2.510 -0.0151 -0.5272  0.5895
    2bbb     O1   53   5.575   4.980   3.071  0.2786  0.3880  0.0015
    2bbb     O2   54   6.136   4.681   3.003  0.8788 -0.0720  0.1944
    2bbb     H1   55   5.862   5.021   2.877 -0.6573  0.8517  0.6326
    2bbb     H2   56   5.792   4.997   2.708  0.8109 -0.1172 -0.2696
    2bbb     H3   57   5.943   4.828   2.964 -0.4102  0.0105 -0.1311
    2bbb     H4   58   5.946   4.772   2.795 -0.3478  0.7851  0.0910
    2bbb     H5   59   5.652   5.165   2.816 -1.0496 -1.1618 -2.8696
    2bbb     H6   60   5.563   5.011   2.804 -1.0617  1.8058 -1.0115
    2bbb     H7   61   5.865   4.551   2.882  0.9656 -0.7030  1.1895
    2bbb     H8   62   5.824   4.621   3.030 -0.8614 -2.1389 -1.2017
    2bbb     H9   63   5.582   4.830   2.737  1.0657  1.0412  1.8997
    2bbb    H10   64   5.662   4.669   2.771 -0.5930 -0.5839  0.6025
    2bbb    H11   65   5.839   4.725   2.603 -1.2507 -3.3625  0.6980
    2bbb    H12   66   5.736   4.849   2.536 -0.1410 -0.3181 -1.2064
    2bbb    H13   67   5.655   4.564   2.544 -1.3472  0.0615  1.8738
    2bbb    H25   68   5.693   4.841   2.937 -0.0385  0.3754 -0.3626
    3bbb     N1   69   4.692   5.014   1.870  0.0992  0.3289 -0.9101
    3bbb     C1   70   4.800   5.108   1.824 -0.1672  0.0890 -0.1686
    3bbb     C2   71   4.586   5.086   1.945 -0.4166  0.0492  0.3392
    3bbb     C3   72   4.815   5.141   1.672  0.3042  0.3395 -0.2887
    3bbb     C4   73   4.684   5.193   1.609 -0.9662  0.4272  0.1309
    3bbb     C5   74   4.455   5.004   1.977 -0.4479  0.1020  0.3431
    3bbb     C6   75   4.339   5.096   2.022 -0.0821 -0.3859 -0.3355
    3bbb     C7   76   4.748   4.905   1.962  0.2844 -0.1650  0.1802
    3bbb     C8   77   4.864   4.814   1.910  0.4999 -0.1361  0.3315
    3bbb     N2   78   4.952   4.760   2.016 -0.0802  0.1247  0.5173
    3bbb     O1   79   4.583   5.230   1.674 -0.2791 -0.0374 -0.1974
    3bbb     O2   80   4.339   5.151   2.134  0.3858  0.0610 -0.0521
    3bbb     H1   81   4.785   5.196   1.886 -0.4940 -0.1827  0.1407
    3bbb     H2   82   4.896   5.064   1.853  0.2118  0.1133 -1.2977
    3bbb     H3   83   4.559   5.174   1.886  1.9723 -0.4929 -1.6998
    3bbb     H4   84   4.622   5.132   2.037  0.2610 -1.6760  0.9667
    3bbb     H5   85   4.893   5.218   1.671  1.4428 -0.7643 -1.1234
    3bbb     H6   86   4.863   5.058   1.618  0.5623  1.8381 -2.4828
    3bbb     H7   87   4.465   4.926   2.053  1.0752  0.0122  0.0892
    3bbb     H8   88   4.424   4.957   1.882 -0.1496  1.0878 -0.2602
    3bbb     H9   89   4.664   4.843   1.993  0.4320 -1.6960 -2.2760
    3bbb    H10   90   4.793   4.956   2.048  2.4598 -1.6372 -0.0214
    3bbb    H11   91   4.925   4.867   1.836 -1.4715  1.1107 -0.4746
    3bbb    H12   92   4.818   4.725   1.866 -1.5377 -0.0918  2.1878
    3bbb    H13   93   4.956   4.815   2.101 -0.9163 -0.7987  1.1793
    3bbb    H25   94   4.653   4.971   1.784  0.8638 -2.3798 -0.0064
    4bbb     N1   95   6.221   4.230   1.614 -0.4137 -0.3241  0.5045
    4bbb     C1   96   6.339   4.198   1.702 -0.0993  0.1947  0.1008
    4bbb     C2   97   6.212   4.384   1.582  1.1589  0.3627  0.2617
    4bbb     C3   98   6.411   4.056   1.682 -0.7348  0.3448 -0.7532
    4bbb     C4   99   6.493   4.044   1.557 -0.3966  0.1762  0.1805
    4bbb     C5  100   6.327   4.444   1.495 -0.0038 -0.5438 -0.5266
    4bbb     C6  101   6.314   4.602   1.498  0.1960  0.3732  0.0415
    4bbb     C7  102   6.090   4.195   1.695  0.4015  0.2255  0.4066
    4bbb     C8  103   5.953   4.237   1.630 -0.3465 -0.4239  0.3885
    4bbb     N2  104   5.840   4.186   1.713  0.0947  0.3623  0.4138
    4bbb     O1  105   6.563   4.133   1.507 -0.3251  0.1469  0.1326
    4bbb     O2  106   6.272   4.655   1.600 -0.3411  0.1716  0.0594
    4bbb     H1  107   6.417   4.273   1.687  2.5825 -2.3433  0.5013
    4bbb     H2  108   6.307   4.203   1.807  1.0561 -0.7510  0.5262
    4bbb     H3  109   6.204   4.437   1.677  0.2971  1.9672 -0.6502
    4bbb     H4  110   6.119   4.405   1.528  2.0069  1.0172 -0.9957
    4bbb     H5  111   6.481   4.046   1.766 -0.9988 -0.9443 -0.6691
    4bbb     H6  112   6.328   3.987   1.702 -1.6185  1.3656 -0.8100
    4bbb     H7  113   6.296   4.398   1.400  1.6039 -3.1113  0.1075
    4bbb     H8  114   6.426   4.406   1.522 -0.4787 -1.5050 -0.0792
    4bbb     H9  115   6.094   4.248   1.790  1.5577  2.0746 -0.6007
    4bbb    H10  116   6.098   4.087   1.707  1.5295  0.3753  1.0346
    4bbb    H11  117   5.948   4.199   1.527 -2.4065  0.2971  0.1735
    4bbb    H12  118   5.947   4.346   1.619  2.7840 -0.2057 -0.0886
    4bbb    H13  119   5.866   4.111   1.774  2.8355  0.0672 -0.9689
    4bbb    H25  120   6.220   4.178   1.525 -1.6722  1.7802 -0.7768
    5bbb     N1  121   4.897   3.522   2.256  0.0180 -0.1545  0.6757
    5bbb     C1  122   4.763   3.510   2.179 -0.3077 -0.4043 -0.4420
    5bbb     C2  123   4.876   3.499   2.403 -0.0279  0.2590  0.3507
    5bbb     C3  124   4.703   3.368   2.167 -0.0486  0.1202 -0.2219
    5bbb     C4  125   4.568   3.375   2.087  0.0063 -0.1942 -0.1535
    5bbb     C5  126   4.773   3.580   2.479 -0.8126 -0.6265  0.4919
    5bbb     C6  127   4.649   3.502   2.497 -0.1902  0.0532 -0.0807
    5bbb     C7  128   4.965   3.656   2.236 -0.0859  0.3080  0.0251
    5bbb     C8  129   5.026   3.677   2.099 -0.1878 -0.6975  0.0680
    5bbb     N2  130   5.105   3.802   2.099  0.1164 -0.4720 -0.1710
    5bbb     O1  131   4.523   3.486   2.060 -0.1213  0.4974 -0.1491
    5bbb     O2  132   4.560   3.494   2.414  0.2076  0.0046 -0.4427
    5bbb     H1  133   4.689   3.570   2.231 -0.2730  0.0807 -0.9537
    5bbb     H2  134   4.763   3.559   2.082 -2.8284 -0.6218 -0.6346
    5bbb     H3  135   4.973   3.519   2.449 -0.9221 -1.3533  3.2182
    5bbb     H4  136   4.878   3.390   2.415  2.3484  0.0089 -1.4793
    5bbb     H5  137   4.773   3.297   2.123  1.2836  1.7877 -0.8763
    5bbb     H6  138   4.678   3.338   2.270 -0.5666 -0.7148 -0.5820
    5bbb     H7  139   4.741   3.669   2.423  1.8227 -0.3210 -0.6464
    5bbb     H8  140   4.814   3.610   2.576 -0.5532 -0.0240  0.2045
    5bbb     H9  141   5.050   3.654   2.304  1.9084  1.1576 -2.3023
    5bbb    H10  142   4.892   3.733   2.262  0.3455  1.5835 -2.3067
    5bbb    H11  143   4.946   3.678   2.024  0.0012 -0.6764 -0.1333
    5bbb    H12  144   5.101   3.601   2.077  0.7169  0.0958  0.3458
    5bbb    H13  145   5.132   3.846   2.187  0.2435 -1.3269  0.2289
    5bbb    H25  146   4.961   3.452   2.215 -0.8249 -1.5848  1.7163
    6bbb     N1  147   5.363   5.323   3.332  0.3476 -0.5164 -0.8116
    6bbb     C1  148   5.279   5.200   3.365  0.2886 -0.5480  0.0800
    6bbb     C2  149   5.270   5.446   3.335  0.3375  0.3446 -0.4412
    6bbb     C3  150   5.187   5.212   3.487 -0.5332 -0.5314 -0.4025
    6bbb     C4  151   5.109   5.080   3.510  0.3327 -0.1220 -0.4248
    6bbb     C5  152   5.336   5.586   3.331  0.3529  0.6649  0.8627
    6bbb     C6  153   5.247   5.697   3.384 -0.0459 -0.0153 -0.2339
    6bbb     C7  154   5.424   5.310   3.196  0.0660 -0.3223  0.6832
    6bbb     C8  155   5.565   5.249   3.186  0.0469 -0.4940  0.2707
    6bbb     N2  156   5.604   5.204   3.053  0.3043  0.5030 -0.0409
    6bbb     O1  157   5.003   5.059   3.453 -0.0370 -0.2494  0.1797
    6bbb     O2  158   5.126   5.690   3.404 -0.1874  0.2571  0.0822
    6bbb     H1  159   5.229   5.178   3.271  0.4356  0.6184 -0.2844
    6bbb     H2  160   5.351   5.123   3.394  0.8991  0.1667  0.4916
    6bbb     H3  161   5.215   5.438   3.429  0.4129  1.0504 -0.3323
    6bbb     H4  162   5.199   5.431   3.254 -0.3147 -1.2556  0.3683
    6bbb     H5  163   5.254   5.223   3.573 -1.5704 -1.5226  0.5623
    6bbb     H6  164   5.114   5.293   3.498 -0.5592 -0.3701 -1.5690
    6bbb     H7  165   5.375   5.608   3.231 -0.6301 -1.1562  0.0374
    6bbb     H8  166   5.424   5.580   3.396  1.0585 -0.7458 -0.1579
    6bbb     H9  167   5.427   5.415   3.167 -1.9312 -0.4964 -0.3009
    6bbb    H10  168   5.358   5.259   3.126 -0.7069  0.9289  0.4711
    6bbb    H11  169   5.586   5.164   3.252 -0.3898 -2.3418 -1.8272
    6bbb    H12  170   5.635   5.330   3.209  1.8532 -1.8971 -0.0597
    6bbb    H13  171   5.627   5.277   2.986  1.6355 -0.1928 -0.3707
    6bbb    H25  172   5.437   5.341   3.401 -1.0790  2.4447  0.1354
    7bbb     N1  173   6.355   4.371   3.278  0.0014  0.0526  0.0557
    7bbb     C1  174   6.386   4.224   3.270  0.4026 -0.3334 -0.9135
    7bbb     C2  175   6.377   4.433   3.420 -0.8289 -0.6323  0.1842
    7bbb     C3  176   6.527   4.176   3.306 -1.4092  0.0172  0.4461
    7bbb     C4  177   6.533   4.031   3.325  0.3100  0.0627 -0.2698
    7bbb     C5  178   6.376   4.588   3.422  0.0458 -0.2219  0.3171
    7bbb     C6  179   6.391   4.640   3.563  0.8541  0.1600 -0.1169
    7bbb     C7  180   6.229   4.405   3.215  0.0106 -0.4343 -0.2948
    7bbb     C8  181   6.203   4.413   3.064  0.1572  0.8798 -0.3496
    7bbb     N2  182   6.069   4.467   3.030 -0.5433  0.7611 -1.1388
    7bbb     O1  183   6.434   3.962   3.337 -0.1248 -0.9978 -0.7077
    7bbb     O2  184   6.349   4.589   3.665 -0.4384  0.0172  0.1239
    7bbb     H1  185   6.319   4.184   3.346 -0.3298  0.8519 -0.9261
    7bbb     H2  186   6.349   4.182   3.176  1.6525  0.1959 -1.6760
    7bbb     H3  187   6.467   4.395   3.467  1.0568  4.1354  0.9662
    7bbb     H4  188   6.295   4.393   3.481 -1.2280  0.3521  0.3084
    7bbb     H5  189   6.606   4.201   3.234 -0.4558  0.3906  1.5939
    7bbb     H6  190   6.565   4.230   3.393  0.3449 -1.7921  0.8857
    7bbb     H7  191   6.283   4.629   3.381 -0.2352 -0.7616  0.3987
    7bbb     H8  192   6.458   4.621   3.356  0.4555  1.1514  1.4594
    7bbb     H9  193   6.191   4.492   3.269  0.7504  0.4054 -1.1075
    7bbb    H10  194   6.161   4.330   3.257  1.0572 -0.6094  1.1780
    7bbb    H11  195   6.212   4.309   3.028  0.2720  0.3002  1.2801
    7bbb    H12  196   6.281   4.469   3.011  0.9391  2.0514  1.9148
    7bbb    H13  197   6.003   4.395   3.002  1.0631 -0.9407 -0.7892
    7bbb    H25  198   6.424   4.418   3.217  0.5351  0.2765  0.8055
    8bbb     N1  199   4.591   5.470   1.316  0.0311 -0.7954  0.7649
    8bbb     C1  200   4.446   5.505   1.338  0.1307  0.5964 -0.5522
    8bbb     C2  201   4.647   5.550   1.188 -0.0858  0.3579 -1.0554
    8bbb     C3  202   4.339   5.487   1.229  0.0305  0.4196 -0.9154
    8bbb     C4  203   4.213   5.566   1.247  0.0070  0.0931 -0.1936
    8bbb     C5  204   4.641   5.701   1.205 -0.1694  0.4624  0.4572
    8bbb     C6  205   4.677   5.758   1.063  0.1652 -1.1097  0.6392
    8bbb     C7  206   4.602   5.323   1.284 -0.4860 -0.2880 -0.3186
    8bbb     C8  207   4.569   5.223   1.395  0.3311 -0.6286  0.0766
    8bbb     N2  208   4.685   5.205   1.474 -0.0896  0.5112  0.2007
    8bbb     O1  209   4.200   5.669   1.308 -0.5188  0.7521  1.0068
    8bbb     O2  210   4.589   5.783   0.985  0.2997 -0.0336 -0.2331
    8bbb     H1  211   4.414   5.463   1.433  3.2520  0.0044  0.3439
    8bbb     H2  212   4.450   5.611   1.360  0.7850 -0.0284  2.8787
    8bbb     H3  213   4.580   5.517   1.109 -0.3845 -1.1944 -0.1992
    8bbb     H4  214   4.747   5.514   1.164  0.5038 -0.9078  2.5448
    8bbb     H5  215   4.374   5.506   1.127  0.3985  1.1552 -0.6629
    8bbb     H6  216   4.311   5.382   1.222 -1.3348  0.6765  0.3882
    8bbb     H7  217   4.716   5.749   1.269  0.5674  0.3343 -0.3031
    8bbb     H8  218   4.542   5.734   1.239  0.3258  0.5453  1.8962
    8bbb     H9  219   4.707   5.304   1.262 -0.2330  0.3768  0.2872
    8bbb    H10  220   4.547   5.306   1.191  0.6123  0.0509 -1.0479
    8bbb    H11  221   4.539   5.125   1.356  1.3970 -0.3805 -1.4442
    8bbb    H12  222   4.483   5.257   1.455 -0.1816 -2.7140  0.5961
    8bbb    H13  223   4.775   5.184   1.433 -0.8044 -1.5312 -0.4806
    8bbb    H25  224   4.645   5.512   1.393  1.0186  3.7428 -2.0156
    9bbb     N1  225   4.021   5.448   1.931 -1.1058 -0.0351 -0.1558
    9bbb     C1  226   3.908   5.412   1.844 -0.4792 -0.6326 -0.7645
    9bbb     C2  227   4.062   5.602   1.910 -0.2125  0.3445  0.8075
    9bbb     C3  228   3.775   5.421   1.912  0.0022 -0.1571 -0.1860
    9bbb     C4  229   3.667   5.446   1.809  0.4339 -0.0507  0.0187
    9bbb     C5  230   4.111   5.671   2.044  0.1854  0.5106  1.2015
    9bbb     C6  231   4.149   5.819   2.016  0.3206 -0.4393  0.4618
    9bbb     C7  232   4.142   5.351   1.896 -0.2802  0.6106  0.2945
    9bbb     C8  233   4.126   5.205   1.940  0.3488  1.1027  0.3037
    9bbb     N2  234   4.255   5.127   1.915  0.0676 -0.1759 -0.8659
    9bbb     O1  235   3.685   5.510   1.702 -0.1754 -0.0190  0.0911
    9bbb     O2  236   4.143   5.871   1.908 -0.1203  0.3132  0.6833
    9bbb     H1  237   3.918   5.490   1.768  2.4275 -0.2720 -0.0991
    9bbb     H2  238   3.924   5.318   1.790 -1.6703 -0.1314 -2.0661
    9bbb     H3  239   3.974   5.656   1.876  0.6851  0.5954 -1.2555
    9bbb     H4  240   4.136   5.608   1.830 -0.5095 -1.8926  0.3127
    9bbb     H5  241   3.744   5.325   1.957  0.7866 -0.8389 -1.0602
    9bbb     H6  242   3.774   5.499   1.989 -0.2415  0.9375 -1.2727
    9bbb     H7  243   4.198   5.631   2.097  1.3716  1.4120  0.0160
    9bbb     H8  244   4.022   5.670   2.109 -0.2297  1.6748  0.6824
    9bbb     H9  245   4.230   5.387   1.949 -1.1297  1.1691  1.3620
    9bbb    H10  246   4.149   5.361   1.787  0.6484 -0.7997  0.2069
    9bbb    H11  247   4.058   5.152   1.872  1.8385  0.3157 -0.6380
    9bbb    H12  248   4.099   5.194   2.046 -2.5437  1.8224 -0.2865
    9bbb    H13  249   4.263   5.074   1.829 -1.3322 -2.3183  0.2116
    9bbb    H25  250   3.989   5.422   2.025  1.5734 -2.5229  0.2082
   10bbb     N1  251   6.709   3.650   1.317  0.5638  0.1750 -0.4681
   10bbb     C1  252   6.737   3.720   1.189 -0.1034  0.1680 -0.5933
   10bbb     C2  253   6.669   3.505   1.282 -0.9105  0.1757 -0.5665
   10bbb     C3  254   6.866   3.663   1.112  0.6652 -1.1736 -0.0767
   10bbb     C4  255   6.891   3.740   0.983 -0.3309  0.1468 -0.0689
   10bbb     C5  256   6.650   3.413   1.409  0.2053 -0.5448 -0.1133
   10bbb     C6  257   6.624   3.264   1.367 -0.5099  0.1904 -0.2196
   10bbb     C7  258   6.599   3.720   1.401  0.0586 -0.0194 -0.3839
   10bbb     C8  259   6.614   3.867   1.449  0.4414  0.3242  0.9233
   10bbb     N2  260   6.498   3.912   1.520  0.9271 -0.2799  0.1823
   10bbb     O1  261   6.839   3.847   0.953 -0.3854 -0.5748  0.0692
   10bbb     O2  262   6.562   3.235   1.265 -0.7210 -0.0795  0.5417
   10bbb     H1  263   6.645   3.717   1.130  0.5436  0.7019 -1.6407
   10bbb     H2  264   6.756   3.823   1.220  0.8412 -0.3619  0.6829
   10bbb     H3  265   6.748   3.464   1.219 -1.2817  0.2838 -1.1080
   10bbb     H4  266   6.573   3.505   1.231 -2.0060  1.8065  1.3402
   10bbb     H5  267   6.958   3.671   1.172  0.6955 -0.9080 -0.1607
   10bbb     H6  268   6.854   3.560   1.076  0.8520 -1.0609 -0.4695
   10bbb     H7  269   6.565   3.442   1.471  1.8099  0.1583  1.8636
   10bbb     H8  270   6.731   3.418   1.483  0.7629  1.0964 -0.7909
   10bbb     H9  271   6.592   3.672   1.499  1.3301  0.8036  0.1452
   10bbb    H10  272   6.508   3.697   1.345 -0.6927  0.3261  0.6556
   10bbb    H11  273   6.623   3.922   1.354 -0.4338 -1.9116 -0.5422
   10bbb    H12  274   6.708   3.884   1.504  1.0469  0.8724 -0.2354
   10bbb    H13  275   6.448   3.839   1.569  3.6933 -2.3090  0.2621
   10bbb    H25  276   6.797   3.655   1.369  0.4571 -0.7831 -0.1643
   11bbb     N1  277   6.579   4.865   1.326 -0.0912  0.4263 -0.3715
   11bbb     C1  278   6.621   4.950   1.448  0.2601 -0.3588  0.1598
   11bbb     C2  279   6.659   4.894   1.203 -0.4249 -0.8075 -0.4768
   11bbb     C3  280   6.773   4.958   1.483 -0.1246 -0.0954  0.1485
   11bbb     C4  281   6.791   5.063   1.596 -0.2896 -0.4767  0.4182
   11bbb     C5  282   6.650   5.036   1.148  0.4564  0.1460 -0.3513
   11bbb     C6  283   6.558   5.052   1.030 -0.5138 -0.3763  0.5044
   11bbb     C7  284   6.433   4.883   1.292 -0.0480  0.0632  0.0276
   11bbb     C8  285   6.324   4.815   1.370 -0.4886  0.5396  0.7985
   11bbb     N2  286   6.347   4.666   1.380 -0.6658  0.1463 -0.0851
   11bbb     O1  287   6.723   5.060   1.693 -0.1966 -0.4045  0.4040
   11bbb     O2  288   6.491   4.954   0.991  0.1464  0.1477  0.1176
   11bbb     H1  289   6.585   5.053   1.436  0.9867 -0.1253 -0.0238
   11bbb     H2  290   6.568   4.916   1.538 -0.8459  0.3659 -0.1916
   11bbb     H3  291   6.640   4.824   1.121 -0.3200  0.9906 -2.1291
   11bbb     H4  292   6.760   4.864   1.231 -1.3365 -3.9476 -0.1185
   11bbb     H5  293   6.811   4.862   1.519 -2.2277 -1.1348 -0.3128
   11bbb     H6  294   6.830   4.991   1.394 -0.4433  0.2513  0.0706
   11bbb     H7  295   6.751   5.070   1.122  0.3648  1.3046  0.7615
   11bbb     H8  296   6.608   5.105   1.222  0.8253 -0.0078  0.0054
   11bbb     H9  297   6.415   4.831   1.198  2.0195 -0.6735 -0.0109
   11bbb    H10  298   6.409   4.988   1.273 -2.6942 -0.2960  0.8876
   11bbb    H11  299   6.228   4.831   1.320  0.0315  0.0846 -0.3916
   11bbb    H12  300   6.316   4.868   1.466  0.8957  0.9751  0.6971
   11bbb    H13  301   6.395   4.615   1.308  0.3695  1.4481 -0.3598
   11bbb    H25  302   6.593   4.768   1.359 -0.1656  1.0023  1.5151
   12bbb     N1  303   4.263   3.061   1.816 -0.0126 -0.0451 -0.0434
   12bbb     C1  304   4.305   2.932   1.755  1.4104  0.7164  0.6805
   12bbb     C2  305   4.237   3.170   1.713 -0.0589 -0.1516  0.0374
   12bbb     C3  306   4.320   2.805   1.838  0.1846  0.1331  0.0696
   12bbb     C4  307   4.341   2.687   1.740 -0.0833 -0.0154  0.2732
   12bbb     C5  308   4.098   3.153   1.639 -0.2086 -0.2726  0.4131
   12bbb     C6  309   4.067   3.252   1.535  0.1655  0.3438 -0.2688
   12bbb     C7  310   4.384   3.102   1.902  0.5847 -0.1667  0.7024
   12bbb     C8  311   4.394   3.248   1.961  0.0128  0.2362 -0.5346
   12bbb     N2  312   4.504   3.264   2.056 -0.5618  0.9760 -0.3717
   12bbb     O1  313   4.305   2.694   1.626 -0.0544  0.4063 -0.4191
   12bbb     O2  314   4.105   3.367   1.543  0.1918  0.1058 -0.2480
   12bbb     H1  315   4.219   2.914   1.690  1.5411  0.1344  0.6689
   12bbb     H2  316   4.393   2.958   1.697 -0.2808  0.9624 -1.9598
   12bbb     H3  317   4.317   3.168   1.638 -0.5586 -0.3470 -0.4954
   12bbb     H4  318   4.245   3.268   1.760  2.3042 -1.0713  1.8078
   12bbb     H5  319   4.411   2.816   1.899  0.1850  2.2332 -0.2130
   12bbb     H6  320   4.228   2.788   1.895  0.6260  0.4467  0.8944
   12bbb     H7  321   4.011   3.161   1.704 -0.9890  0.0666 -0.6563
   12bbb     H8  322   4.104   3.054   1.592  0.1526 -0.6753  1.2920
   12bbb     H9  323   4.475   3.081   1.845  0.4838 -2.8452  1.3780
   12bbb    H10  324   4.387   3.030   1.985 -2.0441 -0.8024  0.3447
   12bbb    H11  325   4.303   3.276   2.017  0.7570 -1.0900  1.4688
   12bbb    H12  326   4.420   3.319   1.882  2.0250  0.0505 -0.0800
   12bbb    H13  327   4.550   3.179   2.087  0.7823  1.3141 -1.3352
   12bbb    H25  328   4.176   3.051   1.870 -1.5304  0.5783 -2.2631
   13bbb     N1  329   4.358   3.323   2.842  0.4339 -0.7093  0.1993
   13bbb     C1  330   4.293   3.380   2.965 -0.0790  0.1776 -0.0282
   13bbb     C2  331   4.412   3.185   2.889 -0.0060 -0.6799 -0.0434
   13bbb     C3  332   4.242   3.527   2.951  0.3625 -0.0337  0.1602
   13bbb     C4  333   4.142   3.550   2.843 -0.4649  0.7333  0.6796
   13bbb     C5  334   4.296   3.086   2.910 -0.7551 -0.4458  0.4927
   13bbb     C6  335   4.337   2.942   2.871  0.6119  0.7679  0.6020
   13bbb     C7  336   4.471   3.411   2.781  0.7288  0.1879 -0.4137
   13bbb     C8  337   4.542   3.347   2.664 -1.1374 -0.0504  0.6843
   13bbb     N2  338   4.655   3.429   2.615 -0.7677 -0.7031  0.4263
   13bbb     O1  339   4.153   3.491   2.737  0.3171  0.1520 -0.0555
   13bbb     O2  340   4.418   2.917   2.780  0.1498  0.2013 -0.1145
   13bbb     H1  341   4.217   3.315   3.006 -0.4129  0.4644 -0.1902
   13bbb     H2  342   4.370   3.377   3.042  0.8116  0.3017 -0.8820
   13bbb     H3  343   4.452   3.208   2.988 -3.1435  1.5352  0.8418
   13bbb     H4  344   4.481   3.151   2.811  1.1625 -2.1456  1.5283
   13bbb     H5  345   4.189   3.554   3.043 -0.3858  1.3634 -0.6411
   13bbb     H6  346   4.323   3.597   2.928  1.0340 -0.9363 -0.2655
   13bbb     H7  347   4.220   3.109   2.834 -0.9092 -0.3490  0.6757
   13bbb     H8  348   4.258   3.095   3.013 -1.2442 -0.2568  0.2998
   13bbb     H9  349   4.541   3.440   2.860 -0.0393  1.3774 -0.1368
   13bbb    H10  350   4.429   3.505   2.745  0.3916 -0.4739 -1.8022
   13bbb    H11  351   4.474   3.316   2.583 -0.6667  1.3859 -0.3030
   13bbb    H12  352   4.592   3.253   2.689  0.8062  0.8867  0.4631
   13bbb    H13  353   4.738   3.420   2.672 -0.0976  0.8053 -0.2434
   13bbb    H25  354   4.285   3.308   2.772 -1.7894  1.0201  2.0023
   14bbb     N1  355   5.178   4.739   3.841  0.4610  0.7004 -0.1868
   14bbb     C1  356   5.301   4.674   3.913  0.3710 -0.2695  0.9144
   14bbb     C2  357   5.064   4.646   3.866  0.0775  0.2638  0.0859
   14bbb     C3  358   5.395   4.783   3.977  0.2211  0.1948 -0.4927
   14bbb     C4  359   5.443   4.743   4.115  0.9455  0.0992  0.2058
   14bbb     C5  360   5.046   4.510   3.795 -0.3772 -0.0081  0.1652
   14bbb     C6  361   4.921   4.433   3.840 -0.5202  0.0825 -0.4275
   14bbb     C7  362   5.210   4.760   3.697 -0.6482  0.1945 -1.1011
   14bbb     C8  363   5.109   4.852   3.621  0.3482  0.7703 -0.8137
   14bbb     N2  364   5.168   4.979   3.582 -0.6504 -0.2149  0.5756
   14bbb     O1  365   5.478   4.634   4.143  0.2509  0.1380 -0.4932
   14bbb     O2  366   4.826   4.493   3.889 -0.0959  0.2262 -0.3957
   14bbb     H1  367   5.274   4.600   3.988  0.5041  1.3821  2.6722
   14bbb     H2  368   5.358   4.626   3.833 -1.9684 -2.1781  0.2784
   14bbb     H3  369   4.978   4.707   3.837 -0.0430  0.7441  1.3976
   14bbb     H4  370   5.071   4.629   3.973  1.0382 -1.5400 -0.2223
   14bbb     H5  371   5.478   4.796   3.907 -0.4550  0.0075 -1.3399
   14bbb     H6  372   5.339   4.877   3.977 -2.0366 -1.0598 -1.0810
   14bbb     H7  373   5.135   4.447   3.803 -0.1611  0.4898  1.9977
   14bbb     H8  374   5.036   4.537   3.689  2.5853  1.1984  0.1014
   14bbb     H9  375   5.214   4.658   3.659 -0.5912  0.6137 -2.2771
   14bbb    H10  376   5.310   4.800   3.680  0.7242 -2.7713 -0.6691
   14bbb    H11  377   5.017   4.869   3.679  1.3004  0.1197  0.9433
   14bbb    H12  378   5.077   4.807   3.526 -1.4116 -0.6529  0.3837
   14bbb    H13  379   5.245   5.018   3.635 -0.1669  1.6350 -1.3294
   14bbb    H25  380   5.159   4.830   3.885 -3.2813 -0.2867  0.5150
   15bbb     N1  381   5.312   6.125   3.661  0.1149  0.0250  0.9557
   15bbb     C1  382   5.333   6.251   3.578  0.3317 -0.0288 -0.3957
   15bbb     C2  383   5.382   6.129   3.803  0.5285  0.0487  0.4800
   15bbb     C3  384   5.279   6.259   3.427 -0.1226 -0.3958 -0.6463
   15bbb     C4  385   5.303   6.397   3.369  0.4747 -0.1235 -0.2173
   15bbb     C5  386   5.308   6.184   4.044  0.6182 -0.1082  0.4025
   15bbb     C6  387   5.260   6.314   4.121 -0.9112 -0.2079 -0.3892
   15bbb     C7  388   5.360   6.005   3.574  0.5230 -0.9199  0.3001
   15bbb     C8  389   5.252   5.923   3.502  0.3597  0.6103  0.0915
   15bbb     N2  390   5.316   5.798   3.448  0.0053 -0.0957 -0.5565
   15bbb     O1  391   5.372   6.484   3.417 -0.1394  0.1252  0.8104
   15bbb     O2  392   5.165   6.378   4.091  0.2184  0.7271  0.0939
   15bbb     H1  393   5.300   6.339   3.634  0.1940  1.0372 -2.0765
   15bbb     H2  394   5.440   6.271   3.578  0.5237 -0.9548  0.7846
   15bbb     H3  395   5.472   6.179   3.768  0.3623  0.2204  0.2929
   15bbb     H4  396   5.397   6.022   3.788 -1.7514 -0.0732 -1.6649
   15bbb     H5  397   5.315   6.179   3.362 -3.0286 -0.4618 -2.3679
   15bbb     H6  398   5.172   6.235   3.417 -1.0446  0.9555  3.9206
   15bbb     H7  399   5.369   6.146   4.127 -1.5807 -0.7046  1.8180
   15bbb     H8  400   5.224   6.134   4.094 -0.6533 -0.0320 -1.5534
   15bbb     H9  401   5.416   5.936   3.637  1.2725 -0.3140  0.3137
   15bbb    H10  402   5.419   6.052   3.495 -0.5160  2.3320  1.3080
   15bbb    H11  403   5.205   5.975   3.418  0.6376 -2.4071 -2.1339
   15bbb    H12  404   5.182   5.887   3.578  3.2202 -1.5119  1.9564
   15bbb    H13  405   5.417   5.799   3.442  0.0733  1.7427  0.3013
   15bbb    H25  406   5.212   6.111   3.681  0.2155 -2.2037  0.2150
   16bbb     N1  407   6.747   3.614   3.382 -0.2205  0.3920  0.3363
   16bbb     C1  408   6.899   3.632   3.384 -0.8747  0.2111 -0.5118
   16bbb     C2  409   6.700   3.498   3.299 -0.5744 -0.6918 -0.0427
   16bbb     C3  410   6.975   3.546   3.494  1.0473  0.5160  0.1744
   16bbb     C4  411   7.115   3.593   3.497  0.3390  0.7029  0.1003
   16bbb     C5  412   6.684   3.378   3.379 -0.1868 -0.3944  0.1519
   16bbb     C6  413   6.553   3.362   3.458 -0.5703 -0.2500 -0.5826
   16bbb     C7  414   6.688   3.739   3.328  0.1744 -0.9334  0.0932
   16bbb     C8  415   6.687   3.860   3.425  0.0752 -0.2773  0.1525
   16bbb     N2  416   6.658   3.983   3.356  0.1269 -0.0331  0.1824
   16bbb     O1  417   7.152   3.689   3.563 -0.6620  0.3721 -0.8624
   16bbb     O2  418   6.468   3.447   3.456 -0.6892 -0.0735 -0.1606
   16bbb     H1  419   6.936   3.611   3.284  0.6612 -1.7192  0.3868
   16bbb     H2  420   6.917   3.732   3.425 -0.4897  0.7761 -1.9969
   16bbb     H3  421   6.767   3.483   3.214 -0.3059 -0.1924  0.0712
   16bbb     H4  422   6.605   3.525   3.253 -0.5086 -2.3360 -1.2382
   16bbb     H5  423   6.939   3.565   3.596  2.7586 -1.4023  1.2292
   16bbb     H6  424   6.974   3.437   3.481 -1.9571  0.4109  0.5130
   16bbb     H7  425   6.761   3.375   3.458 -0.6484 -0.3066  0.6113
   16bbb     H8  426   6.703   3.286   3.323  0.2884 -1.2721  1.6896
   16bbb     H9  427   6.590   3.727   3.283  0.2939 -3.1504  0.2966
   16bbb    H10  428   6.753   3.764   3.245 -0.0969  0.5075  0.2934
   16bbb    H11  429   6.779   3.871   3.484  1.4558  1.2200 -2.0976
   16bbb    H12  430   6.614   3.841   3.505  0.4434  0.6657  0.7429
   16bbb    H13  431   6.726   4.058   3.351  1.8987 -1.5496  0.2866
   16bbb    H25  432   6.717   3.601   3.480 -0.4657  0.9279  0.3353
   17bbb     N1  433   6.816   4.757   3.785  0.3858 -0.1637 -0.0452
   17bbb     C1  434   6.918   4.866   3.758 -0.2027 -0.0337  0.4354
   17bbb     C2  435   6.875   4.624   3.836 -0.1558 -0.0043  0.1303
   17bbb     C3  436   6.862   5.011   3.741 -0.3860 -0.3711  0.2648
   17bbb     C4  437   6.950   5.120   3.798 -0.4537  0.9972 -0.0950
   17bbb     C5  438   6.904   4.619   3.989  0.4411  0.2751 -0.4906
   17bbb     C6  439   6.932   4.475   4.036 -0.8897 -0.3490 -0.2135
   17bbb     C7  440   6.726   4.742   3.665  0.0518 -0.1298  0.3049
   17bbb     C8  441   6.571   4.768   3.694 -0.3804 -0.7623 -0.1168
   17bbb     N2  442   6.486   4.735   3.575 -0.0367 -0.0113 -0.0288
   17bbb     O1  443   7.057   5.086   3.848  0.6006 -0.3853  0.0276
   17bbb     O2  444   6.845   4.411   4.078 -0.2079  0.5482 -0.3674
   17bbb     H1  445   6.992   4.863   3.839 -1.2426  1.3219  1.4842
   17bbb     H2  446   6.971   4.839   3.666  1.9378 -0.1144  1.6195
   17bbb     H3  447   6.958   4.592   3.773  0.6064  1.6094  0.2482
   17bbb     H4  448   6.796   4.549   3.836  1.2901 -1.6345  2.0211
   17bbb     H5  449   6.833   5.033   3.637 -2.2111  3.4076  1.3886
   17bbb     H6  450   6.772   5.023   3.803 -2.0567 -0.5130 -2.0036
   17bbb     H7  451   6.830   4.674   4.049  1.2840 -0.4259  1.2699
   17bbb     H8  452   6.989   4.686   4.009 -1.4789  2.4305  1.0238
   17bbb     H9  453   6.727   4.637   3.638 -2.5106 -0.1501  0.0545
   17bbb    H10  454   6.765   4.800   3.581 -0.3131 -2.7035 -1.7473
   17bbb    H11  455   6.565   4.876   3.710  0.5444 -0.8860  1.2476
   17bbb    H12  456   6.541   4.723   3.790  3.4374 -2.1980  0.5969
   17bbb    H13  457   6.539   4.747   3.489 -0.9464  1.9335 -0.3695
   17bbb    H25  458   6.758   4.791   3.863 -1.8995 -0.0486 -1.7080
   18bbb     N1  459   3.964   5.469   0.912  0.5904 -1.0166  0.2670
   18bbb     C1  460   3.965   5.496   0.758 -0.5661  0.3088 -0.5474
   18bbb     C2  461   3.841   5.387   0.956 -0.1347  0.2374  0.4739
   18bbb     C3  462   3.847   5.580   0.703 -0.6319  0.2126 -0.0132
   18bbb     C4  463   3.837   5.603   0.552 -0.3420 -0.5361  0.3526
   18bbb     C5  464   3.857   5.234   0.920 -0.8618 -0.8614  1.1635
   18bbb     C6  465   3.805   5.195   0.783  0.4436 -0.0561  0.8620
   18bbb     C7  466   3.981   5.602   0.993  0.0065 -0.0506 -0.1877
   18bbb     C8  467   3.987   5.590   1.144  0.6043 -0.6008  0.1503
   18bbb     N2  468   4.107   5.510   1.186 -0.1869 -0.8010  0.0921
   18bbb     O1  469   3.919   5.552   0.474  0.2898 -0.0329  0.5742
   18bbb     O2  470   3.736   5.265   0.712  0.0342  0.4268  0.6025
   18bbb     H1  471   4.048   5.566   0.751 -0.8827  1.5193  4.4183
   18bbb     H2  472   3.978   5.400   0.707  0.2713  0.4086 -0.5205
   18bbb     H3  473   3.761   5.426   0.892 -2.1417 -0.8623  2.1916
   18bbb     H4  474   3.818   5.402   1.061 -1.1477  2.4999 -0.0056
   18bbb     H5  475   3.753   5.532   0.733 -1.0502  0.8174 -0.3256
   18bbb     H6  476   3.837   5.680   0.749 -0.2365 -0.6308  2.0326
   18bbb     H7  477   3.799   5.169   0.987 -1.5223 -2.9336 -1.2355
   18bbb     H8  478   3.961   5.200   0.920 -0.5368  0.0248  2.8267
   18bbb     H9  479   3.908   5.672   0.952  1.8241  1.1574 -1.4812
   18bbb    H10  480   4.078   5.641   0.962  0.6390 -2.5591 -1.6947
   18bbb    H11  481   3.895   5.535   1.168  0.9537 -1.4347 -0.3821
   18bbb    H12  482   3.995   5.688   1.192  2.2091  0.4342 -2.0901
   18bbb    H13  483   4.133   5.429   1.132 -0.0414 -0.5706 -0.1911
   18bbb    H25  484   4.047   5.412   0.935  1.3877  0.0268  0.0746
   19bbb     N1  485   4.911   6.038   0.782  0.1334 -0.6145 -0.0747
   19bbb     C1  486   5.053   5.996   0.726 -0.4071  0.7621 -0.4017
   19bbb     C2  487   4.900   6.188   0.795  0.1291 -0.0022  0.0560
   19bbb     C3  488   5.175   6.022   0.818  0.7405 -0.1768 -0.8846
   19bbb     C4  489   5.314   5.972   0.762  0.5899  0.0145  0.4133
   19bbb     C5  490   4.893   6.273   0.661 -0.5527  0.1828 -0.5476
   19bbb     C6  491   4.868   6.418   0.680  0.1112 -0.2847 -0.3833
   19bbb     C7  492   4.886   5.968   0.918 -0.1868  0.1000  0.1452
   19bbb     C8  493   4.873   5.817   0.920  0.6277 -0.2444  0.3360
   19bbb     N2  494   4.811   5.781   1.044 -0.3707 -0.1393 -0.4777
   19bbb     O1  495   5.324   5.934   0.645 -0.2521 -0.3464  0.3825
   19bbb     O2  496   4.898   6.470   0.788 -1.0409  0.2751  0.5990
   19bbb     H1  497   5.055   5.893   0.692 -0.6241  0.5748  0.1413
   19bbb     H2  498   5.062   6.044   0.629  1.4333 -0.6660 -0.9915
   19bbb     H3  499   4.984   6.218   0.858  0.7748 -0.4511 -0.5803
   19bbb     H4  500   4.810   6.207   0.853 -1.3796 -2.8313 -1.1648
   19bbb     H5  501   5.184   6.130   0.840 -0.3243 -0.6766  2.6861
   19bbb     H6  502   5.163   5.979   0.918 -1.4211  0.5664 -0.7737
   19bbb     H7  503   4.811   6.238   0.596 -0.6444 -0.6413 -0.0015
   19bbb     H8  504   4.973   6.254   0.588  0.3352  0.9395  0.2115
   19bbb     H9  505   4.786   6.004   0.944 -0.5718 -0.5270 -0.4393
   19bbb    H10  506   4.958   5.997   0.995  1.8281  0.0711 -1.6289
   19bbb    H11  507   4.974   5.776   0.908  0.2352 -1.2702  0.3789
   19bbb    H12  508   4.814   5.774   0.838  0.0146 -2.1359  1.6882
   19bbb    H13  509   4.880   5.752   1.112 -0.2476  3.5082  1.2184
   19bbb    H25  510   4.837   6.006   0.718 -0.3461  0.7678 -0.2493
   20bbb     N1  511   3.177   5.406   1.711 -0.4566  0.2341 -0.0869
   20bbb     C1  512   3.153   5.547   1.763  0.1902 -0.0850 -0.3367
   20bbb     C2  513   3.045   5.331   1.744 -1.2453 -0.3770 -0.2802
   20bbb     C3  514   3.058   5.630   1.676 -0.2325  0.6939 -0.0466
   20bbb     C4  515   3.052   5.767   1.734  0.1052 -0.4264 -0.1989
   20bbb     C5  516   3.032   5.195   1.678  0.3572 -0.1232 -0.9359
   20bbb     C6  517   2.910   5.115   1.722 -0.3793  0.1171 -0.2084
   20bbb     C7  518   3.294   5.356   1.802 -0.5230 -0.3407  1.1712
   20bbb     C8  519   3.429   5.404   1.742  0.0555 -0.8137  0.3820
   20bbb     N2  520   3.542   5.402   1.842 -0.9289 -0.3370 -0.2067
   20bbb     O1  521   3.147   5.829   1.784  0.2413 -0.1508  0.0795
   20bbb     O2  522   2.801   5.126   1.668 -0.0531 -0.2236 -0.0765
   20bbb     H1  523   3.111   5.551   1.864  0.4939  4.6994 -0.1583
   20bbb     H2  524   3.244   5.606   1.774 -0.7606  1.4934 -0.6076
   20bbb     H3  525   2.962   5.393   1.709  0.8593  2.1667 -1.0263
   20bbb     H4  526   3.051   5.328   1.853  1.6139 -1.5891 -0.3946
   20bbb     H5  527   3.099   5.638   1.575  1.8827  2.3468  0.8699
   20bbb     H6  528   2.962   5.577   1.680 -0.6626  1.4579 -0.0599
   20bbb     H7  529   3.118   5.133   1.706 -0.5940 -0.8035  0.6433
   20bbb     H8  530   3.019   5.196   1.569 -0.1702  1.4134 -0.8879
   20bbb     H9  531   3.286   5.249   1.820  0.2559 -0.3412  1.5380
   20bbb    H10  532   3.277   5.412   1.894 -1.9506  1.4120 -0.0750
   20bbb    H11  533   3.419   5.505   1.702 -1.8364 -1.4267 -0.8180
   20bbb    H12  534   3.456   5.340   1.656  1.8318  0.9970 -0.4961
   20bbb    H13  535   3.531   5.341   1.921 -0.0695  1.2125  1.1678
   20bbb    H25  536   3.197   5.401   1.610 -0.7813 -3.0849 -0.1026
   21bbb     N1  537   4.065   6.238   2.283 -0.0107 -0.3012  0.3876
   21bbb     C1  538   4.104   6.293   2.421 -0.0380 -0.1977 -0.1658
   21bbb     C2  539   3.914   6.215   2.266  0.7508  0.1367 -0.3412
   21bbb     C3  540   4.062   6.211   2.553 -0.6523  0.7221  0.1926
   21bbb     C4  541   4.015   6.297   2.672 -0.2717  0.5637 -0.2766
   21bbb     C5  542   3.833   6.344   2.302 -0.1902  0.1975 -0.3031
   21bbb     C6  543   3.879   6.470   2.230 -0.9973 -0.0700 -0.5788
   21bbb     C7  544   4.136   6.102   2.273 -0.0658  0.0340  0.9590
   21bbb     C8  545   4.138   6.044   2.130  0.3920  0.7923 -0.7216
   21bbb     N2  546   4.168   5.895   2.126 -0.1314 -0.3986  0.2096
   21bbb     O1  547   3.993   6.417   2.662 -0.1850 -0.2801  0.1979
   21bbb     O2  548   3.998   6.489   2.187  0.6565  0.6771  0.0570
   21bbb     H1  549   4.213   6.299   2.431 -0.1650  0.4155  1.0776
   21bbb     H2  550   4.061   6.392   2.436  0.1462 -0.1869  0.3465
   21bbb     H3  551   3.874   6.148   2.341 -1.0692  1.9329  0.3819
   21bbb     H4  552   3.884   6.174   2.169  0.2327  0.1846 -0.2003
   21bbb     H5  553   3.982   6.141   2.527 -0.0453  0.1418 -0.1442
   21bbb     H6  554   4.143   6.146   2.588 -0.4036  0.6512 -0.4954
   21bbb     H7  555   3.825   6.362   2.410 -3.4753  0.8209 -0.5419
   21bbb     H8  556   3.728   6.331   2.272 -0.4336  1.7393 -0.1964
   21bbb     H9  557   4.106   6.024   2.343 -0.7731  0.1051  0.7329
   21bbb    H10  558   4.241   6.122   2.298  1.0760 -0.1512 -2.9782
   21bbb    H11  559   4.213   6.095   2.069 -0.4057  1.5500 -1.0948
   21bbb    H12  560   4.042   6.055   2.078  0.0160  1.6074  0.1109
   21bbb    H13  561   4.174   5.846   2.214  1.6759  2.4835  1.8671
   21bbb    H25  562   4.103   6.293   2.205 -1.7029  0.0410 -0.2251
   22bbb     N1  563   7.249   3.581   0.779  0.0383  0.0354  0.8630
   22bbb     C1  564   7.339   3.708   0.766 -0.0065 -0.7446  0.0006
   22bbb     C2  565   7.303   3.455   0.709 -1.3339  0.3145 -0.6310
   22bbb     C3  566   7.474   3.701   0.857 -0.5872 -0.1220 -0.5962
   22bbb     C4  567   7.586   3.608   0.818 -0.7611 -0.2815 -0.7026
   22bbb     C5  568   7.205   3.329   0.679 -0.4091 -0.1893 -0.4452
   22bbb     C6  569   7.283   3.203   0.649  0.4711 -0.3417 -0.7557
   22bbb     C7  570   7.112   3.605   0.709  0.1587  0.5568 -1.2398
   22bbb     C8  571   7.016   3.701   0.771  0.3297  0.5846  0.1130
   22bbb     N2  572   6.979   3.669   0.900  0.1561 -0.2397 -1.1814
   22bbb     O1  573   7.593   3.492   0.853 -0.3780 -0.5454  0.1696
   22bbb     O2  574   7.403   3.207   0.623 -0.2004 -0.5794 -0.2208
   22bbb     H1  575   7.355   3.733   0.661  2.1900  1.0861  0.6761
   22bbb     H2  576   7.279   3.789   0.807  0.4770 -0.5204  0.2858
   22bbb     H3  577   7.381   3.405   0.765 -0.3732  0.7063 -1.5789
   22bbb     H4  578   7.352   3.492   0.619  2.2514 -1.2404  0.4999
   22bbb     H5  579   7.515   3.803   0.865  0.1701 -0.2868 -2.0984
   22bbb     H6  580   7.453   3.676   0.962  0.6327  1.7735  0.1647
   22bbb     H7  581   7.152   3.348   0.585 -0.2017  0.7815 -0.3748
   22bbb     H8  582   7.122   3.318   0.750  1.0470  0.0999  1.3916
   22bbb     H9  583   7.055   3.513   0.718 -1.6717  1.7302 -0.0281
   22bbb    H10  584   7.127   3.629   0.604 -0.5636 -0.7875 -1.6614
   22bbb    H11  585   6.921   3.703   0.715  0.9511 -2.6057 -1.2240
   22bbb    H12  586   7.059   3.802   0.782 -3.3474  2.2910  0.5006
   22bbb    H13  587   7.026   3.592   0.946 -1.5567 -1.2627 -1.0276
   22bbb    H25  588   7.244   3.557   0.879  1.8233 -0.3739  0.8950
   23bbb     N1  589   6.742   2.806   1.567 -0.3231  0.2452  1.1870
   23bbb     C1  590   6.610   2.785   1.640 -0.0073 -0.0964 -0.2892
   23bbb     C2  591   6.858   2.739   1.644  0.4066 -0.2267  0.2587
   23bbb     C3  592   6.592   2.857   1.774  0.8357  0.3547 -0.4542
   23bbb     C4  593   6.611   2.766   1.895 -0.9719  0.1242 -0.2590
   23bbb     C5  594   6.999   2.736   1.574 -0.6663 -0.1438  0.2396
   23bbb     C6  595   7.094   2.636   1.628 -0.2360 -0.3222  0.0422
   23bbb     C7  596   6.774   2.958   1.532 -0.2441  0.3153  0.1873
   23bbb     C8  597   6.691   3.024   1.418 -0.0092 -0.2262 -0.2065
   23bbb     N2  598   6.679   3.166   1.450 -0.4827  0.4465  0.1770
   23bbb     O1  599   6.710   2.691   1.908 -0.0577  0.3786  0.0750
   23bbb     O2  600   7.059   2.527   1.662  0.0396  0.8180  0.0279
   23bbb     H1  601   6.534   2.832   1.577 -0.8076 -0.3817  0.4416
   23bbb     H2  602   6.588   2.678   1.640 -1.5801  0.1957  0.0923
   23bbb     H3  603   6.824   2.637   1.662  1.8535 -0.7142  0.3666
   23bbb     H4  604   6.857   2.797   1.737 -0.2906  1.9848 -1.0452
   23bbb     H5  605   6.664   2.940   1.772  1.9298 -0.5806 -0.7809
   23bbb     H6  606   6.490   2.899   1.771  0.5271 -0.1548  1.5024
   23bbb     H7  607   7.041   2.837   1.580 -3.3252  1.1172 -0.9439
   23bbb     H8  608   6.986   2.711   1.468 -3.0540 -1.4317  0.7614
   23bbb     H9  609   6.875   2.964   1.491 -0.5467  1.9683 -0.3900
   23bbb    H10  610   6.783   3.023   1.620  1.3233 -0.8866  0.9671
   23bbb    H11  611   6.588   2.989   1.402  0.4429 -1.2197 -1.0532
   23bbb    H12  612   6.743   3.014   1.322 -0.5108 -1.2099 -0.3908
   23bbb    H13  613   6.732   3.203   1.528 -0.0583  0.3126 -0.0450
   23bbb    H25  614   6.721   2.759   1.478 -0.7729  1.9815  0.3272
   24bbb     N1  615   7.118   5.409   1.762  0.6047 -0.1883  0.0393
   24bbb     C1  616   7.245   5.482   1.727 -0.1436  0.1754  0.8239
   24bbb     C2  617   7.114   5.359   1.903 -0.0604 -0.5775  0.0550
   24bbb     C3  618   7.368   5.391   1.710 -0.1754  0.0676  0.0185
   24bbb     C4  619   7.479   5.470   1.642 -0.8136 -0.3206 -0.1563
   24bbb     C5  620   7.090   5.470   2.007 -0.0399  0.5350 -0.6265
   24bbb     C6  621   6.955   5.539   1.985  0.5737 -0.1151 -0.1144
   24bbb     C7  622   7.088   5.295   1.668 -0.1867  0.6986 -0.2598
   24bbb     C8  623   6.952   5.223   1.698 -0.0297 -0.8222 -0.1688
   24bbb     N2  624   6.899   5.143   1.586  0.3006 -0.4502  0.5407
   24bbb     O1  625   7.475   5.522   1.528  0.0056 -0.3366 -0.4501
   24bbb     O2  626   6.860   5.486   1.927  0.1374  0.2807  0.4619
   24bbb     H1  627   7.229   5.531   1.631  0.2394 -1.3181 -0.0281
   24bbb     H2  628   7.272   5.558   1.800  2.3694  0.1505 -0.0053
   24bbb     H3  629   7.211   5.312   1.916  0.9198  1.0615 -0.9939
   24bbb     H4  630   7.030   5.289   1.909 -0.5827  0.0154 -0.1638
   24bbb     H5  631   7.400   5.358   1.810  0.1505  1.3624  0.3567
   24bbb     H6  632   7.355   5.308   1.639 -1.4935  0.5207 -0.3045
   24bbb     H7  633   7.170   5.545   2.005  2.4849 -1.6255  3.4765
   24bbb     H8  634   7.095   5.427   2.108  1.1606 -0.6542 -1.1418
   24bbb     H9  635   7.165   5.220   1.687  0.4938  0.7929 -2.4428
   24bbb    H10  636   7.090   5.337   1.567 -0.5705  2.5181  0.4396
   24bbb    H11  637   6.881   5.305   1.709  0.3633 -0.6096  0.9608
   24bbb    H12  638   6.943   5.161   1.788 -0.2980  0.9994  1.0968
   24bbb    H13  639   6.937   5.155   1.492 -0.1247  1.9259  0.6048
   24bbb    H25  640   7.038   5.472   1.742  0.9204  0.0906 -0.3910
   25bbb     N1  641   6.372   5.170   0.644  0.2031 -0.2986  0.3812
   25bbb     C1  642   6.225   5.154   0.681 -0.0423 -0.3882  1.0574
   25bbb     C2  643   6.403   5.103   0.514 -0.2117 -0.3881 -0.0681
   25bbb     C3  644   6.144   5.283   0.701  0.0780 -0.0869  0.5139
   25bbb     C4  645   5.994   5.247   0.725  0.4175  0.0799  0.5327
   25bbb     C5  646   6.553   5.101   0.478 -0.2622  0.5135  0.1685
   25bbb     C6  647   6.575   5.049   0.333  0.1247 -0.2462 -0.4179
   25bbb     C7  648   6.471   5.135   0.753  0.1854 -0.4897  0.1818
   25bbb     C8  649   6.457   5.223   0.881  0.4293  0.3025 -0.1771
   25bbb     N2  650   6.558   5.180   0.981 -0.4265  0.2942  0.5235
   25bbb     O1  651   5.952   5.135   0.739  0.5186  0.7705 -0.2980
   25bbb     O2  652   6.484   5.003   0.272 -0.0646  0.2623 -0.3295
   25bbb     H1  653   6.173   5.099   0.602  0.6881  1.3616 -0.7296
   25bbb     H2  654   6.222   5.083   0.764  1.5206 -2.5216 -0.5789
   25bbb     H3  655   6.347   5.155   0.436 -1.3438 -1.1969  0.1835
   25bbb     H4  656   6.363   5.002   0.507 -2.3095  0.4331 -0.6294
   25bbb     H5  657   6.174   5.331   0.795  2.5349  0.6409 -0.5611
   25bbb     H6  658   6.145   5.355   0.618 -2.9743 -1.2197 -0.6805
   25bbb     H7  659   6.612   5.030   0.537 -1.4831 -0.8437 -0.1827
   25bbb     H8  660   6.586   5.205   0.490 -2.1562  0.9746  2.1822
   25bbb     H9  661   6.572   5.137   0.712 -0.5448  1.1558 -1.6891
   25bbb    H10  662   6.454   5.029   0.771  0.4594 -0.8435 -1.4525
   25bbb    H11  663   6.353   5.227   0.913  0.0432 -1.1828 -1.1354
   25bbb    H12  664   6.485   5.322   0.845  2.3240  0.6436  1.9914
   25bbb    H13  665   6.602   5.246   1.045 -0.2645 -1.9721  2.9142
   25bbb    H25  666   6.391   5.270   0.629  1.6334 -0.3176  1.7688
   26bbb     N1  667   4.666   2.305   1.706  0.6368 -0.1674  0.4250
   26bbb     C1  668   4.659   2.165   1.765 -0.7154 -0.6067  0.2783
   26bbb     C2  669   4.806   2.348   1.691 -0.1638 -0.7040  0.7088
   26bbb     C3  670   4.527   2.120   1.837  0.1128 -0.1800  0.2332
   26bbb     C4  671   4.528   1.969   1.819 -0.4590  0.4238 -0.0931
   26bbb     C5  672   4.903   2.265   1.596  0.6536  0.0024  0.5190
   26bbb     C6  673   4.865   2.257   1.446  0.1011 -0.5459  0.3067
   26bbb     C7  674   4.590   2.406   1.788  0.1862  0.2551 -0.4590
   26bbb     C8  675   4.477   2.477   1.711  1.1757 -0.6483  0.1726
   26bbb     N2  676   4.409   2.580   1.798 -0.0219 -0.8942 -0.2258
   26bbb     O1  677   4.538   1.918   1.706  0.2892  0.1019 -0.1378
   26bbb     O2  678   4.777   2.186   1.415  0.4666  0.3216  0.0996
   26bbb     H1  679   4.691   2.094   1.688  2.5479 -2.1087  2.7253
   26bbb     H2  680   4.739   2.165   1.839 -0.4852 -0.0470  0.0355
   26bbb     H3  681   4.842   2.360   1.793 -1.0983  2.8199  0.7287
   26bbb     H4  682   4.790   2.447   1.649  1.4925 -0.9719 -0.6920
   26bbb     H5  683   4.533   2.151   1.942  0.0432  0.2361  0.1169
   26bbb     H6  684   4.444   2.167   1.781  1.4740  2.4649  0.3026
   26bbb     H7  685   4.924   2.161   1.621  0.7586 -0.3019 -0.7848
   26bbb     H8  686   4.995   2.324   1.601  1.0630 -0.3647 -1.7602
   26bbb     H9  687   4.661   2.481   1.824  0.3229  0.2507 -0.7194
   26bbb    H10  688   4.544   2.354   1.872 -1.5519 -0.0849 -1.5885
   26bbb    H11  689   4.398   2.411   1.675  0.0625  0.7649 -0.0880
   26bbb    H12  690   4.515   2.532   1.624 -1.9030 -0.7759 -1.3915
   26bbb    H13  691   4.422   2.582   1.899 -0.0233  0.9469 -0.2299
   26bbb    H25  692   4.623   2.306   1.612 -0.0488  1.8454  0.7185
   27bbb     N1  693   3.855   3.255   1.071 -0.0626 -0.0797  0.6778
   27bbb     C1  694   3.757   3.171   0.995  1.2723  0.3298 -0.1001
   27bbb     C2  695   3.977   3.270   0.978 -0.3927 -0.1588 -0.0311
   27bbb     C3  696   3.616   3.154   1.063 -0.8947 -0.1355 -0.1746
   27bbb     C4  697   3.522   3.075   0.974 -0.9788  0.7948 -0.1045
   27bbb     C5  698   3.971   3.371   0.863 -0.3777 -0.2594 -0.3302
   27bbb     C6  699   4.101   3.376   0.783 -0.0455  0.2803 -0.1401
   27bbb     C7  700   3.891   3.187   1.204 -0.2484  0.7818  0.5315
   27bbb     C8  701   3.965   3.272   1.302  0.2457 -0.3808 -0.0586
   27bbb     N2  702   3.985   3.205   1.429 -0.2142 -0.0000 -0.6599
   27bbb     O1  703   3.551   3.018   0.870 -0.0496 -0.4193  0.4171
   27bbb     O2  704   4.205   3.319   0.818 -0.2970  0.5859  0.0750
   27bbb     H1  705   3.749   3.222   0.899  2.2790 -1.1813 -1.0256
   27bbb     H2  706   3.798   3.071   0.982 -1.5051 -0.8043 -0.9071
   27bbb     H3  707   3.991   3.170   0.935 -0.2793  0.3653 -1.2580
   27bbb     H4  708   4.061   3.304   1.038  0.9630 -1.7721 -0.9263
   27bbb     H5  709   3.622   3.113   1.164  0.4122 -1.8735 -0.8995
   27bbb     H6  710   3.581   3.257   1.077  2.0476  0.7427  1.6359
   27bbb     H7  711   3.948   3.474   0.892  0.8717  0.0495 -0.3527
   27bbb     H8  712   3.891   3.345   0.793 -0.0959 -0.3615 -0.6183
   27bbb     H9  713   3.946   3.095   1.183 -2.7264 -0.6847  0.0343
   27bbb    H10  714   3.801   3.141   1.245  0.2752 -1.6950 -0.8704
   27bbb    H11  715   3.907   3.364   1.321  0.2427 -0.0036 -1.7446
   27bbb    H12  716   4.068   3.289   1.269  0.4089  2.2886  1.4955
   27bbb    H13  717   3.949   3.110   1.432 -0.4115  0.0736  2.4153
   27bbb    H25  718   3.803   3.344   1.083 -1.4942 -1.0036  1.6764
   28bbb     N1  719   3.812   3.790   2.599  0.1096  0.2558 -0.1419
   28bbb     C1  720   3.866   3.800   2.461 -0.5323 -0.0962  0.7323
   28bbb     C2  721   3.746   3.918   2.634 -0.3796 -0.1623  0.2300
   28bbb     C3  722   3.763   3.812   2.345 -0.6565 -0.4931 -0.3137
   28bbb     C4  723   3.845   3.790   2.222 -0.7391  0.1383 -0.2412
   28bbb     C5  724   3.672   3.931   2.772 -0.3737 -0.5508 -0.0316
   28bbb     C6  725   3.589   4.056   2.783  0.0929 -0.1575  0.1718
   28bbb     C7  726   3.936   3.759   2.683  0.3865 -0.3121 -0.4989
   28bbb     C8  727   3.920   3.653   2.797  0.2429  0.1092  0.6155
   28bbb     N2  728   4.042   3.633   2.873 -0.0849 -0.1745  0.1428
   28bbb     O1  729   3.961   3.750   2.225 -0.6890 -0.0050  0.3514
   28bbb     O2  730   3.619   4.165   2.724  0.5791  0.3392  0.6212
   28bbb     H1  731   3.927   3.891   2.463  0.9960 -0.8861 -2.6645
   28bbb     H2  732   3.932   3.714   2.450 -0.5471 -0.0305  0.1285
   28bbb     H3  733   3.667   3.929   2.560 -0.7745  1.5111  0.8375
   28bbb     H4  734   3.815   4.002   2.624  0.0519 -0.2976  1.7098
   28bbb     H5  735   3.689   3.731   2.350 -0.9238 -0.3466 -1.7033
   28bbb     H6  736   3.710   3.908   2.343 -2.8197 -1.5839  0.6610
   28bbb     H7  737   3.740   3.919   2.857 -1.9226 -0.4158  1.2752
   28bbb     H8  738   3.605   3.846   2.792 -2.8471  1.6421  1.7608
   28bbb     H9  739   3.965   3.855   2.725  0.5852 -0.0544 -1.2027
   28bbb    H10  740   4.020   3.731   2.619 -0.1059 -2.1238 -0.4143
   28bbb    H11  741   3.882   3.554   2.767 -0.6846 -0.4326  3.3190
   28bbb    H12  742   3.838   3.691   2.859 -0.5609 -1.6528  0.7160
   28bbb    H13  743   4.052   3.671   2.966  0.6384 -0.0483  0.0183
   28bbb    H25  744   3.742   3.715   2.598  1.0507 -0.7032 -2.7907
   29bbb     N1  745   4.137   2.637   3.115 -0.0108  0.2266 -0.1182
   29bbb     C1  746   4.116   2.541   3.224 -0.0433  0.7002 -0.6857
   29bbb     C2  747   4.026   2.609   3.017 -0.4892 -0.6216 -0.0321
   29bbb     C3  748   4.205   2.558   3.348  0.4978  0.4279  1.0146
   29bbb     C4  749   4.172   2.464   3.458  1.2793 -0.5205  0.1894
   29bbb     C5  750   3.882   2.647   3.069 -0.3691  0.1141  0.1088
   29bbb     C6  751   3.797   2.527   3.120  0.2819  0.0010 -0.3250
   29bbb     C7  752   4.272   2.615   3.048 -0.5204  0.3358  0.5514
   29bbb     C8  753   4.310   2.702   2.926  0.1055 -0.0621  0.0672
   29bbb     N2  754   4.276   2.846   2.953 -0.3023 -0.0260  0.0896
   29bbb     O1  755   4.069   2.400   3.456  0.2537  0.7308 -0.2287
   29bbb     O2  756   3.831   2.441   3.204  0.2221 -0.1824  0.0809
   29bbb     H1  757   4.014   2.549   3.262  0.0628  2.6724 -0.6794
   29bbb     H2  758   4.128   2.436   3.197 -0.8499 -0.5135  3.0593
   29bbb     H3  759   4.038   2.506   2.983 -0.9902 -0.0934 -1.9441
   29bbb     H4  760   4.037   2.674   2.930 -0.1122 -0.6011  0.0317
   29bbb     H5  761   4.310   2.551   3.317 -0.2746  0.7040 -2.0624
   29bbb     H6  762   4.189   2.661   3.381 -1.8836  1.1649 -1.9388
   29bbb     H7  763   3.825   2.697   2.990 -0.0109  0.5063  0.0928
   29bbb     H8  764   3.877   2.719   3.151  1.2071 -0.8974  1.1530
   29bbb     H9  765   4.286   2.512   3.015 -2.3077  0.0447  0.6370
   29bbb    H10  766   4.345   2.642   3.124 -0.6900 -0.2314  0.9231
   29bbb    H11  767   4.254   2.664   2.839  1.2837 -0.0609 -0.7076
   29bbb    H12  768   4.417   2.706   2.901  0.1016 -2.6362 -0.6389
   29bbb    H13  769   4.213   2.871   3.028 -0.5090 -0.1872 -0.0302
   29bbb    H25  770   4.147   2.734   3.147  0.9600 -0.8758  3.2706
   30bbb     N1  771   5.362   4.893   4.518  0.1936  0.1726 -0.0213
   30bbb     C1  772   5.235   4.917   4.441  0.3681  0.4593 -0.3293
   30bbb     C2  773   5.425   5.025   4.559 -0.3545  0.1245  0.7529
   30bbb     C3  774   5.136   4.796   4.448 -0.1397  0.0081  0.3267
   30bbb     C4  775   5.079   4.750   4.307 -0.1345  0.4478  0.1887
   30bbb     C5  776   5.495   5.020   4.690  0.4991  0.7331  0.1436
   30bbb     C6  777   5.643   4.990   4.689 -0.2322  0.1542  0.8518
   30bbb     C7  778   5.463   4.800   4.451 -0.3647 -0.0630 -0.3240
   30bbb     C8  779   5.541   4.842   4.326  0.1654 -0.0970  0.2507
   30bbb     N2  780   5.450   4.850   4.205  0.0153  0.1102 -0.7644
   30bbb     O1  781   5.147   4.730   4.210 -1.0903 -0.0064 -0.2866
   30bbb     O2  782   5.707   4.962   4.589  0.5330 -0.5290 -0.2050
   30bbb     H1  783   5.184   5.005   4.480 -1.2890 -0.8208  0.5073
   30bbb     H2  784   5.252   4.946   4.337  1.0330  0.5511 -0.2022
   30bbb     H3  785   5.346   5.099   4.571  1.1234  1.6948  1.4162
   30bbb     H4  786   5.485   5.070   4.480 -1.7896  0.8912  0.0662
   30bbb     H5  787   5.176   4.707   4.497 -2.1780 -0.6800  0.8412
   30bbb     H6  788   5.045   4.821   4.504 -2.3014 -1.1667 -2.4232
   30bbb     H7  789   5.450   4.946   4.758  2.8106  0.5778  1.6340
   30bbb     H8  790   5.478   5.115   4.742 -0.2908  1.2258 -1.0003
   30bbb     H9  791   5.413   4.705   4.433 -2.8907  1.2259 -0.6566
   30bbb    H10  792   5.537   4.778   4.528  1.5541 -3.4141 -2.9009
   30bbb    H11  793   5.614   4.762   4.310  1.1321  0.3528  2.0952
   30bbb    H12  794   5.596   4.937   4.335 -1.5656  0.9369  0.4226
   30bbb    H13  795   5.417   4.939   4.170 -1.0638  0.3452  0.7113
   30bbb    H25  796   5.324   4.849   4.603  1.4228 -3.2145 -1.0953
   31bbb     N1  797   4.753   3.954   3.871 -0.2080 -0.0080 -0.0753
   31bbb     C1  798   4.649   3.985   3.972 -0.3820  0.1665 -0.6656
   31bbb     C2  799   4.822   3.816   3.884  0.0743  0.4000 -0.4027
   31bbb     C3  800   4.696   3.994   4.119 -1.3214  0.4026 -0.2592
   31bbb     C4  801   4.589   4.032   4.214  0.8759 -0.2008 -0.0876
   31bbb     C5  802   4.933   3.787   3.775 -1.0725  0.0958 -0.0674
   31bbb     C6  803   5.009   3.656   3.802  1.2082 -0.3305  0.8157
   31bbb     C7  804   4.861   4.067   3.887  0.4355  0.5125  0.2899
   31bbb     C8  805   4.815   4.210   3.868 -0.6460 -0.9410  0.1423
   31bbb     N2  806   4.926   4.298   3.837  0.3419  0.0726  0.7947
   31bbb     O1  807   4.473   4.057   4.186 -0.0107  0.1061 -0.1917
   31bbb     O2  808   4.994   3.581   3.901  0.1228  0.1370  0.4967
   31bbb     H1  809   4.608   4.081   3.942 -1.0408  0.2652  0.5056
   31bbb     H2  810   4.571   3.909   3.965  1.4180 -2.1899  2.0338
   31bbb     H3  811   4.744   3.740   3.885  1.4107 -1.1407  3.1903
   31bbb     H4  812   4.865   3.809   3.984  0.3875  2.2522 -0.3759
   31bbb     H5  813   4.750   3.904   4.150 -1.2218  0.2153 -0.9613
   31bbb     H6  814   4.770   4.075   4.126 -1.2314  0.4084 -1.2398
   31bbb     H7  815   5.009   3.863   3.754 -0.3126 -0.2573  1.2633
   31bbb     H8  816   4.884   3.782   3.677  1.0024  0.5216 -1.1759
   31bbb     H9  817   4.938   4.053   3.812  1.0859 -0.0584  1.0458
   31bbb    H10  818   4.909   4.048   3.984  0.1366 -1.0243  0.1738
   31bbb    H11  819   4.765   4.246   3.959  1.3213  1.0165  0.5339
   31bbb    H12  820   4.740   4.223   3.789  0.7531  0.5893 -0.9986
   31bbb    H13  821   5.013   4.254   3.807 -0.2679 -1.8992  1.7380
   31bbb    H25  822   4.711   3.974   3.779 -0.7591 -0.0681  0.1599
   32bbb     N1  823   5.178   6.718   2.990 -0.1433 -0.1791  0.5782
   32bbb     C1  824   5.135   6.828   3.087  0.0245 -0.5131  0.0378
   32bbb     C2  825   5.111   6.739   2.857  0.4020  0.7812 -0.1601
   32bbb     C3  826   5.202   6.971   3.063  0.5241 -0.8144 -0.3834
   32bbb     C4  827   5.354   6.958   3.066 -0.3815 -0.2247  0.2586
   32bbb     C5  828   5.170   6.656   2.742 -0.0234  0.0772  0.0093
   32bbb     C6  829   5.307   6.704   2.691  0.4510  0.0745  0.3097
   32bbb     C7  830   5.161   6.579   3.056  0.0075  0.2782  0.1672
   32bbb     C8  831   5.252   6.558   3.182  0.3674 -0.1326  0.2270
   32bbb     N2  832   5.239   6.423   3.247 -0.4343  0.2684  1.2474
   32bbb     O1  833   5.401   6.864   3.129  0.0897  0.0384  0.3273
   32bbb     O2  834   5.394   6.746   2.771  0.4259  0.1497 -0.5658
   32bbb     H1  835   5.029   6.838   3.062 -0.6951 -2.5933  1.9070
   32bbb     H2  836   5.148   6.809   3.193 -0.4797  0.4361  0.2801
   32bbb     H3  837   5.128   6.842   2.825  2.9524  0.0438 -1.4267
   32bbb     H4  838   5.007   6.713   2.875  0.6963 -1.6473 -1.5185
   32bbb     H5  839   5.155   7.023   2.979 -1.6371  0.3080  1.3867
   32bbb     H6  840   5.171   7.027   3.153 -0.8039 -0.5409 -0.9907
   32bbb     H7  841   5.104   6.670   2.655 -0.0224 -0.8346 -0.1489
   32bbb     H8  842   5.167   6.547   2.752  0.5548 -0.1053 -1.6046
   32bbb     H9  843   5.196   6.506   2.983  1.3181 -0.2135  1.2364
   32bbb    H10  844   5.057   6.561   3.083  0.5418 -1.6966  1.0884
   32bbb    H11  845   5.238   6.642   3.251  0.5407  0.6719 -0.6909
   32bbb    H12  846   5.356   6.564   3.148  0.5630  2.7764  1.0551
   32bbb    H13  847   5.170   6.363   3.201 -0.2327  0.5401  0.5719
   32bbb    H25  848   5.280   6.737   2.987 -0.2144  0.3801  1.3578
   33bbb     N1  849   5.334   6.479   4.598 -0.1554 -0.3830  0.3141
   33bbb     C1  850   5.232   6.367   4.636 -0.4924  0.0663 -0.3712
   33bbb     C2  851   5.456   6.498   4.701  0.4176  0.1695 -0.0655
   33bbb     C3  852   5.283   6.222   4.666 -0.0846  0.5538 -0.0052
   33bbb     C4  853   5.319   6.144   4.543  0.6498  0.5889 -0.0491
   33bbb     C5  854   5.560   6.612   4.682 -0.2188 -0.5837  0.2110
   33bbb     C6  855   5.684   6.585   4.598  0.6236  0.0768  0.2103
   33bbb     C7  856   5.392   6.452   4.457  0.3027 -0.0844  0.2409
   33bbb     C8  857   5.285   6.430   4.346  0.5193  0.3554  0.5910
   33bbb     N2  858   5.335   6.343   4.236 -0.9168  0.3486 -0.4304
   33bbb     O1  859   5.236   6.133   4.448 -0.0810 -0.1583  0.0959
   33bbb     O2  860   5.700   6.478   4.545  0.3901 -0.4071  0.0958
   33bbb     H1  861   5.196   6.405   4.732 -0.2679  0.9395 -0.6291
   33bbb     H2  862   5.142   6.355   4.575  0.5491 -3.4281 -1.4647
   33bbb     H3  863   5.513   6.405   4.704 -0.9377 -0.7317 -1.0473
   33bbb     H4  864   5.407   6.508   4.798 -2.1111 -3.6354 -0.7137
   33bbb     H5  865   5.370   6.215   4.733  2.9639  1.6247 -3.4858
   33bbb     H6  866   5.208   6.162   4.719  0.0910  1.9031  1.8612
   33bbb     H7  867   5.604   6.634   4.780 -1.1470 -0.0663  0.5277
   33bbb     H8  868   5.518   6.708   4.647 -2.9099 -0.3072  3.6470
   33bbb     H9  869   5.458   6.365   4.456 -1.0349 -1.1438 -1.0102
   33bbb    H10  870   5.452   6.540   4.433  0.9284 -0.2892  1.0090
   33bbb    H11  871   5.266   6.525   4.295 -1.0453 -0.4890 -0.4792
   33bbb    H12  872   5.191   6.386   4.382 -0.1770  0.1754 -1.3576
   33bbb    H13  873   5.424   6.298   4.253 -0.1892  1.0683 -2.1781
   33bbb    H25  874   5.273   6.562   4.598 -2.0952 -1.7202  1.8291
   34bbb     N1  875   7.550   3.516   3.258  0.2087 -0.0562  0.1891
   34bbb     C1  876   7.576   3.491   3.115 -0.1222 -0.8640  0.1574
   34bbb     C2  877   7.621   3.418   3.348  0.4444 -0.0846  0.2114
   34bbb     C3  878   7.553   3.601   3.006  0.0789  0.5295 -0.1548
   34bbb     C4  879   7.409   3.662   2.982 -0.5416  0.0029 -0.2409
   34bbb     C5  880   7.772   3.431   3.362 -0.0693 -0.7705 -0.7650
   34bbb     C6  881   7.815   3.548   3.451 -0.2417 -0.2807  0.1903
   34bbb     C7  882   7.401   3.499   3.280 -0.6562 -0.7601 -0.4259
   34bbb     C8  883   7.351   3.556   3.416 -0.1398  0.8204 -0.0758
   34bbb     N2  884   7.205   3.526   3.417  0.7516 -0.1183 -0.0490
   34bbb     O1  885   7.310   3.599   2.973  0.6701 -0.0945 -0.4697
   34bbb     O2  886   7.739   3.627   3.503  0.1006  0.2317 -0.5121
   34bbb     H1  887   7.682   3.468   3.115  0.5554  1.8500  0.4221
   34bbb     H2  888   7.508   3.408   3.096 -1.5822  0.3147  0.0392
   34bbb     H3  889   7.616   3.315   3.312  3.1676 -0.6888  1.2873
   34bbb     H4  890   7.579   3.433   3.447  1.2256  2.0037  0.2797
   34bbb     H5  891   7.616   3.689   3.027  0.3635  0.5202 -0.9528
   34bbb     H6  892   7.591   3.556   2.914 -0.8552  0.2405 -0.4071
   34bbb     H7  893   7.812   3.441   3.261  1.1960 -0.9540 -0.3066
   34bbb     H8  894   7.813   3.334   3.394  1.0344 -0.6394 -1.7158
   34bbb     H9  895   7.376   3.393   3.276 -0.6263 -0.9202  2.0372
   34bbb    H10  896   7.350   3.547   3.197 -1.0376  0.4817  0.4933
   34bbb    H11  897   7.375   3.663   3.423  0.6618  0.5613  2.5934
   34bbb    H12  898   7.398   3.508   3.503  0.8094 -0.0126 -1.0163
   34bbb    H13  899   7.159   3.459   3.357  0.9310  0.1756 -0.5200
   34bbb    H25  900   7.575   3.614   3.276 -1.4957  0.4546 -0.1308
   35bbb     N1  901   6.298   2.991   3.685  0.0112  0.3480 -0.3629
   35bbb     C1  902   6.236   3.028   3.818 -0.1624  0.2252 -0.0144
   35bbb     C2  903   6.312   2.839   3.677 -0.0810 -0.2612 -0.0554
   35bbb     C3  904   6.087   2.983   3.827 -0.2943 -0.6222  0.6187
   35bbb     C4  905   6.004   3.069   3.740  0.3668  0.0300 -0.0544
   35bbb     C5  906   6.352   2.755   3.808  0.5149  0.3502 -0.6515
   35bbb     C6  907   6.355   2.605   3.778 -0.0460 -0.7790 -0.5822
   35bbb     C7  908   6.431   3.061   3.656  0.0168 -0.1268  0.1042
   35bbb     C8  909   6.419   3.206   3.612 -0.8669 -0.9944  0.3916
   35bbb     N2  910   6.547   3.244   3.531 -0.0030 -0.1709 -0.1532
   35bbb     O1  911   6.036   3.085   3.622  0.3723 -0.9897 -0.4239
   35bbb     O2  912   6.327   2.555   3.669  0.1990 -0.1141  0.5351
   35bbb     H1  913   6.305   2.975   3.884 -0.5175 -2.8592 -1.8817
   35bbb     H2  914   6.257   3.134   3.829 -1.7538  0.5125  0.4165
   35bbb     H3  915   6.380   2.819   3.594 -1.5469  1.4704 -1.7676
   35bbb     H4  916   6.216   2.791   3.664 -0.2576 -0.8412  2.6800
   35bbb     H5  917   6.063   2.882   3.792  1.8761 -0.1117 -2.8898
   35bbb     H6  918   6.055   2.990   3.932 -0.7200  1.7429  0.3715
   35bbb     H7  919   6.291   2.779   3.896  1.3263  0.6080 -0.1494
   35bbb     H8  920   6.457   2.776   3.832  0.5371  0.1162 -0.5424
   35bbb     H9  921   6.485   3.001   3.582  1.5882  0.5046  0.6847
   35bbb    H10  922   6.496   3.057   3.743  0.9414  1.6113 -0.4651
   35bbb    H11  923   6.420   3.277   3.695  0.5873 -1.0239  0.4185
   35bbb    H12  924   6.330   3.212   3.548 -1.0309 -0.3747  0.6771
   35bbb    H13  925   6.622   3.176   3.537 -0.1387 -0.3595 -0.5922
   35bbb    H25  926   6.232   3.010   3.609  1.0243  1.3173 -1.0134
   36bbb     N1  927   7.094   5.528   3.993  0.5735  0.3141  0.8600
   36bbb     C1  928   7.241   5.478   3.986 -0.4638 -0.2136 -0.0795
   36bbb     C2  929   7.064   5.584   4.131 -0.6120 -0.3533  0.5950
   36bbb     C3  930   7.340   5.597   4.002  0.1717  0.3960  0.2032
   36bbb     C4  931   7.479   5.549   3.976 -0.4895  0.4151  0.0160
   36bbb     C5  932   6.967   5.702   4.127 -0.3955  0.3081 -0.1565
   36bbb     C6  933   7.024   5.810   4.035 -0.1156  0.0462  0.2515
   36bbb     C7  934   6.996   5.414   3.960  0.3407  0.5507 -0.0864
   36bbb     C8  935   6.986   5.370   3.812 -0.3137 -0.3311  0.1674
   36bbb     N2  936   6.905   5.250   3.785 -0.6615  0.7691  0.3313
   36bbb     O1  937   7.516   5.474   3.885 -0.4981 -0.3587 -0.2883
   36bbb     O2  938   7.050   5.793   3.917  0.0747  0.0462  0.3097
   36bbb     H1  939   7.255   5.408   4.068 -0.5565  1.3493  1.3267
   36bbb     H2  940   7.263   5.427   3.892  0.8523 -1.0329  0.6410
   36bbb     H3  941   7.157   5.604   4.184  0.5425 -0.7585 -1.1732
   36bbb     H4  942   7.013   5.509   4.191  0.1417  0.8596  2.8562
   36bbb     H5  943   7.315   5.674   3.928  0.5433  0.5399  0.2257
   36bbb     H6  944   7.335   5.635   4.104 -1.5989 -0.4293  0.4587
   36bbb     H7  945   6.958   5.741   4.230 -0.6199 -1.8067  0.6797
   36bbb     H8  946   6.865   5.674   4.098 -1.0098  0.3520  1.7527
   36bbb     H9  947   6.900   5.429   4.009  0.7780  0.6272  0.7791
   36bbb    H10  948   7.034   5.323   4.009 -0.2308 -0.1739 -0.9583
   36bbb    H11  949   7.082   5.351   3.762  0.0616  1.1721  0.2605
   36bbb    H12  950   6.954   5.460   3.758  1.5453  0.3799  0.1686
   36bbb    H13  951   6.808   5.254   3.757 -0.7048 -2.2575 -0.2710
   36bbb    H25  952   7.074   5.605   3.928  1.8162  0.5246  0.7068
   37bbb     N1  953   7.275   4.236   4.274 -0.5941 -0.2407  0.4293
   37bbb     C1  954   7.188   4.124   4.335  0.1638 -0.1885  0.1220
   37bbb     C2  955   7.377   4.285   4.373 -0.1647  0.0662 -1.3742
   37bbb     C3  956   7.254   3.988   4.365 -0.5962 -0.2618  0.0289
   37bbb     C4  957   7.161   3.893   4.433 -0.4017 -0.3770  0.2685
   37bbb     C5  958   7.481   4.387   4.327 -0.5119  0.1584 -0.7742
   37bbb     C6  959   7.540   4.475   4.438  0.3030 -0.1254  0.7806
   37bbb     C7  960   7.187   4.346   4.220 -0.2451  0.4919 -0.2621
   37bbb     C8  961   7.119   4.320   4.079 -0.4127  0.3750 -0.2067
   37bbb     N2  962   7.063   4.445   4.031 -0.6753 -0.0031  0.1589
   37bbb     O1  963   7.099   3.927   4.528  0.4493  0.6285 -0.5959
   37bbb     O2  964   7.495   4.587   4.451 -0.2891 -0.1415 -0.1157
   37bbb     H1  965   7.134   4.161   4.423  0.0447 -2.6460  1.1709
   37bbb     H2  966   7.118   4.113   4.252  1.0280  2.9076 -1.1796
   37bbb     H3  967   7.439   4.200   4.403  0.2099  0.4343 -1.0888
   37bbb     H4  968   7.313   4.325   4.452 -1.2597 -1.7825 -1.2711
   37bbb     H5  969   7.283   3.935   4.274 -2.5657  0.6271 -1.1926
   37bbb     H6  970   7.339   3.999   4.433 -0.3870 -0.1643 -0.2475
   37bbb     H7  971   7.439   4.467   4.265 -1.3893  0.8766  0.7118
   37bbb     H8  972   7.571   4.343   4.282  1.1167 -0.0367  2.4273
   37bbb     H9  973   7.252   4.433   4.212  0.1112  0.4143  1.3217
   37bbb    H10  974   7.120   4.358   4.306  0.1464 -0.0343  0.1244
   37bbb    H11  975   7.045   4.239   4.074  0.8597 -1.0033  1.7928
   37bbb    H12  976   7.208   4.280   4.031 -0.1976 -1.8030  1.8189
   37bbb    H13  977   7.122   4.516   3.989  1.9242 -1.4936  1.0500
   37bbb    H25  978   7.317   4.199   4.188  1.9622 -0.3060  1.5956
   38bbb     N1  979   3.608   5.927   0.241  0.6214 -0.2571 -0.3904
   38bbb     C1  980   3.705   6.024   0.178 -0.6189 -0.3963 -0.2562
   38bbb     C2  981   3.468   5.991   0.242  0.2876  0.2620  0.6341
   38bbb     C3  982   3.798   6.102   0.275  0.6726 -0.5838 -0.0393
   38bbb     C4  983   3.909   6.171   0.207 -0.3016  0.1078 -0.2190
   38bbb     C5  984   3.436   6.124   0.317 -0.3855  0.6240  0.3610
   38bbb     C6  985   3.283   6.155   0.303 -0.6506  0.5604  0.6406
   38bbb     C7  986   3.634   5.872   0.373 -0.3150 -0.3568 -0.5623
   38bbb     C8  987   3.742   5.763   0.373 -0.4142  0.5930  0.2712
   38bbb     N2  988   3.746   5.701   0.509  0.2423  0.3378  0.2691
   38bbb     O1  989   3.903   6.201   0.093  0.1150  1.0710 -0.2806
   38bbb     O2  990   3.209   6.087   0.231 -0.1568 -0.0684 -0.2088
   38bbb     H1  991   3.765   5.969   0.106  1.3647  0.4682  0.6620
   38bbb     H2  992   3.641   6.098   0.131 -2.1539 -2.5211 -1.6920
   38bbb     H3  993   3.408   5.918   0.297  0.8615 -0.0379  0.8670
   38bbb     H4  994   3.430   6.001   0.140  0.7752  0.6762  0.4945
   38bbb     H5  995   3.741   6.171   0.340  1.7128  0.2811 -0.0209
   38bbb     H6  996   3.853   6.035   0.341  4.1031  0.9470 -1.1292
   38bbb     H7  997   3.506   6.199   0.279 -1.9490  0.5082 -3.1834
   38bbb     H8  998   3.456   6.110   0.424  0.1818 -4.2965 -0.1930
   38bbb     H9  999   3.544   5.822   0.408  0.0935 -0.5954  0.1867
   38bbb    H10 1000   3.654   5.961   0.433 -2.3946  1.3436 -2.2614
   38bbb    H11 1001   3.838   5.792   0.329 -1.1271 -0.7909 -2.3942
   38bbb    H12 1002   3.705   5.683   0.308  0.3928  1.0363 -0.7686
   38bbb    H13 1003   3.681   5.725   0.583  1.9076 -0.0106  1.9048
   38bbb    H25 1004   3.598   5.846   0.178 -1.2079 -0.5848  0.2731
   39bbb     N1 1005   3.792   4.805   0.445 -0.1716  0.3078  0.2172
   39bbb     C1 1006   3.754   4.657   0.456  0.5244  0.9822  0.2404
   39bbb     C2 1007   3.915   4.809   0.368 -0.0747 -0.0690  0.7076
   39bbb     C3 1008   3.609   4.626   0.498  0.1348 -0.1453  0.6547
   39bbb     C4 1009   3.513   4.681   0.393 -0.0140 -1.1463 -0.3493
   39bbb     C5 1010   3.903   4.810   0.216 -0.1677  0.0918  0.5098
   39bbb     C6 1011   4.036   4.792   0.131  0.5115  0.3022  0.4515
   39bbb     C7 1012   3.819   4.868   0.583 -0.8116  0.3436 -0.1085
   39bbb     C8 1013   3.827   5.025   0.595 -0.0179 -0.4285  0.6050
   39bbb     N2 1014   3.843   5.069   0.736  0.2141  0.0557 -0.7747
   39bbb     O1 1015   3.526   4.792   0.341  0.4208  0.3003 -0.4577
   39bbb     O2 1016   4.114   4.710   0.173  0.2830 -0.0293 -0.3280
   39bbb     H1 1017   3.767   4.608   0.360 -0.0950  1.5541 -0.1475
   39bbb     H2 1018   3.832   4.616   0.520  2.8018  0.6154 -2.5508
   39bbb     H3 1019   3.972   4.722   0.401 -0.3648 -1.4496 -2.0822
   39bbb     H4 1020   3.968   4.901   0.393 -0.3859 -0.0280  1.2268
   39bbb     H5 1021   3.599   4.517   0.500 -0.5733 -0.1577 -1.4255
   39bbb     H6 1022   3.591   4.671   0.596  1.4824 -0.1412  0.9252
   39bbb     H7 1023   3.866   4.906   0.178  2.1186  0.4429 -1.0617
   39bbb     H8 1024   3.833   4.734   0.179 -1.4886  1.0531  0.9550
   39bbb     H9 1025   3.917   4.835   0.617 -1.7737 -2.6238  0.1667
   39bbb    H10 1026   3.740   4.843   0.654 -0.4802  1.1094  0.5361
   39bbb    H11 1027   3.736   5.065   0.548  0.6001  0.2049 -0.0805
   39bbb    H12 1028   3.915   5.066   0.544  0.1845  0.3092  1.5131
   39bbb    H13 1029   3.897   5.013   0.801 -0.4243 -0.3340 -0.5719
   39bbb    H25 1030   3.711   4.860   0.414 -0.8360 -1.0892 -0.6519
   40bbb     N1 1031   5.654   6.122   0.957 -0.0988  0.6873  0.3522
   40bbb     C1 1032   5.656   6.208   0.826  0.0078  0.1502  0.0647
   40bbb     C2 1033   5.761   6.169   1.049  1.1665 -0.5192 -0.4109
   40bbb     C3 1034   5.648   6.360   0.857  0.8056  0.4751 -0.0513
   40bbb     C4 1035   5.649   6.419   0.717  0.1598  0.1743  0.1562
   40bbb     C5 1036   5.765   6.099   1.184  0.9544  0.2608 -0.0258
   40bbb     C6 1037   5.663   6.137   1.289  0.6849  0.1887  0.7482
   40bbb     C7 1038   5.666   5.973   0.920  0.0812 -0.3613 -0.8539
   40bbb     C8 1039   5.559   5.918   0.830  0.4726  0.2361 -0.2929
   40bbb     N2 1040   5.421   5.982   0.852 -0.8403  0.0443 -0.1276
   40bbb     O1 1041   5.552   6.462   0.664  0.2453 -0.1013  0.3102
   40bbb     O2 1042   5.590   6.241   1.285  0.2308 -0.1411  0.2232
   40bbb     H1 1043   5.760   6.189   0.798 -0.1308 -2.8521  1.2698
   40bbb     H2 1044   5.593   6.174   0.743 -0.4461 -2.1756  1.2905
   40bbb     H3 1045   5.736   6.275   1.063  1.0901 -0.7293  1.2564
   40bbb     H4 1046   5.857   6.171   0.997 -0.4770 -3.0867 -3.9542
   40bbb     H5 1047   5.553   6.374   0.910  0.1674 -0.2615 -0.9813
   40bbb     H6 1048   5.727   6.402   0.921  0.5042  0.3399  0.4157
   40bbb     H7 1049   5.864   6.124   1.224  1.3048  0.7881 -1.1696
   40bbb     H8 1050   5.756   5.991   1.172 -0.4251  0.2178  1.1167
   40bbb     H9 1051   5.665   5.916   1.013  1.4913  1.0918  0.0998
   40bbb    H10 1052   5.756   5.956   0.861  0.5115  0.6527 -0.5069
   40bbb    H11 1053   5.562   5.808   0.833  1.7108  0.2556  2.9953
   40bbb    H12 1054   5.584   5.942   0.726 -2.4041 -2.9729 -1.9496
   40bbb    H13 1055   5.403   6.002   0.949 -0.8791 -1.2524  0.1557
   40bbb    H25 1056   5.563   6.128   1.007  0.3577  1.1539  1.1515
   41bbb     N1 1057   4.732   6.811   0.418 -0.6316  0.4550  0.1627
   41bbb     C1 1058   4.613   6.851   0.327 -0.2140  0.3905  0.3719
   41bbb     C2 1059   4.861   6.881   0.386 -0.6520 -0.2156  1.2971
   41bbb     C3 1060   4.569   6.997   0.326  0.4753 -0.3582  0.2486
   41bbb     C4 1061   4.415   7.004   0.302  0.2416  0.0397  0.2334
   41bbb     C5 1062   4.890   6.883   0.231 -0.1995  0.3820 -0.1032
   41bbb     C6 1063   5.025   6.953   0.206  0.1591  1.2636  0.1104
   41bbb     C7 1064   4.757   6.665   0.420  0.2466 -0.4837  0.6483
   41bbb     C8 1065   4.825   6.627   0.551 -0.6322  0.4957  0.7220
   41bbb     N2 1066   4.828   6.486   0.562 -0.4649  0.0163 -0.2621
   41bbb     O1 1067   4.351   6.906   0.260 -0.3121  0.1602 -0.6088
   41bbb     O2 1068   5.067   7.033   0.289  0.5709 -0.3473 -0.1301
   41bbb     H1 1069   4.630   6.815   0.225 -1.9086  0.7908 -0.0761
   41bbb     H2 1070   4.532   6.792   0.370 -1.2338  1.1972 -0.3962
   41bbb     H3 1071   4.944   6.841   0.444  0.9928  1.0820 -0.0555
   41bbb     H4 1072   4.863   6.987   0.413 -0.6211  1.0501 -2.8815
   41bbb     H5 1073   4.567   7.030   0.431 -0.9273  1.0046 -0.1738
   41bbb     H6 1074   4.628   7.065   0.263 -0.5470 -0.0192 -0.3676
   41bbb     H7 1075   4.815   6.945   0.180 -0.5814  1.9802  2.2591
   41bbb     H8 1076   4.881   6.783   0.186 -1.3680  0.7634 -0.7620
   41bbb     H9 1077   4.819   6.635   0.335  1.1232  0.2465  1.0109
   41bbb    H10 1078   4.657   6.624   0.410  0.8096 -2.4058  2.2027
   41bbb    H11 1079   4.775   6.675   0.636 -0.3524 -1.6317  2.1709
   41bbb    H12 1080   4.930   6.655   0.538 -0.7907  0.6657 -0.3005
   41bbb    H13 1081   4.815   6.427   0.481  0.9156  1.1811 -1.3839
   41bbb    H25 1082   4.704   6.835   0.514 -0.2578  0.1288  0.3563
   42bbb     N1 1083   2.660   5.953   1.881 -0.0727  0.1462 -0.1437
   42bbb     C1 1084   2.505   5.942   1.862 -0.7515  0.0600  0.2158
   42bbb     C2 1085   2.687   6.060   1.985  0.3639 -0.0274  0.0063
   42bbb     C3 1086   2.446   5.852   1.750  1.0434  0.2023  0.2339
   42bbb     C4 1087   2.293   5.835   1.754 -0.1184 -0.3469 -0.0604
   42bbb     C5 1088   2.611   6.185   1.971  0.1216 -0.2493  0.0990
   42bbb     C6 1089   2.671   6.295   2.051  0.0109 -0.0312 -0.8834
   42bbb     C7 1090   2.735   5.978   1.749 -0.2223 -0.0151 -0.2070
   42bbb     C8 1091   2.889   5.947   1.760 -0.2786 -0.4866  0.6811
   42bbb     N2 1092   2.920   5.807   1.744 -0.1428  0.0910 -0.4350
   42bbb     O1 1093   2.220   5.926   1.791  0.5341 -0.1930 -0.0705
   42bbb     O2 1094   2.749   6.375   2.002 -0.1653  0.0867 -0.0819
   42bbb     H1 1095   2.460   5.915   1.958  1.0960  0.1371  1.1459
   42bbb     H2 1096   2.469   6.043   1.842 -0.5908  0.6803  2.6667
   42bbb     H3 1097   2.794   6.076   2.003 -0.0229  0.3797  2.2532
   42bbb     H4 1098   2.654   6.012   2.077  0.1829 -0.3467 -0.2241
   42bbb     H5 1099   2.476   5.900   1.656 -1.9820 -0.2704 -1.0804
   42bbb     H6 1100   2.494   5.754   1.753 -1.9137 -1.4418 -1.3859
   42bbb     H7 1101   2.504   6.174   1.993  0.0890 -1.8213 -0.7023
   42bbb     H8 1102   2.616   6.210   1.864 -2.0416  0.4831  0.1287
   42bbb     H9 1103   2.723   6.086   1.736 -0.1154  0.1133  0.6934
   42bbb    H10 1104   2.686   5.919   1.671  0.6525  0.1593 -0.9028
   42bbb    H11 1105   2.932   5.983   1.854  1.5215  1.4751 -0.7952
   42bbb    H12 1106   2.947   5.999   1.683 -2.0442 -0.5480 -0.7616
   42bbb    H13 1107   2.844   5.748   1.712 -1.3791  2.0992 -1.4344
   42bbb    H25 1108   2.690   5.858   1.908 -1.3694 -0.6679 -1.4252
   43bbb     N1 1109   2.818   4.677   1.945 -0.3153 -0.0804 -0.3620
   43bbb     C1 1110   2.871   4.601   2.070 -0.1859 -0.2643 -0.3450
   43bbb     C2 1111   2.801   4.593   1.828 -0.5375  0.3033  0.3377
   43bbb     C3 1112   2.900   4.669   2.203 -0.5621 -0.3092 -0.0148
   43bbb     C4 1113   2.770   4.666   2.290  0.0926 -0.3849  0.0097
   43bbb     C5 1114   2.731   4.459   1.844 -0.2952 -0.1272  0.3403
   43bbb     C6 1115   2.589   4.476   1.874  0.2903  0.5171 -0.1706
   43bbb     C7 1116   2.914   4.787   1.905 -0.3004  0.4397 -0.2983
   43bbb     C8 1117   2.857   4.893   1.810  0.2403  0.5507  0.6326
   43bbb     N2 1118   2.945   5.011   1.802 -0.2048  0.3653  0.1724
   43bbb     O1 1119   2.661   4.689   2.239 -0.5789  0.1682 -0.3605
   43bbb     O2 1120   2.550   4.497   1.988 -0.0752 -0.0729 -0.2571
   43bbb     H1 1121   2.811   4.511   2.078 -0.2235 -0.0868  1.8177
   43bbb     H2 1122   2.966   4.560   2.035 -1.1079  0.5423 -4.3710
   43bbb     H3 1123   2.901   4.557   1.805 -0.5804  0.6455 -0.4103
   43bbb     H4 1124   2.763   4.650   1.743  1.3862  0.3633 -0.5178
   43bbb     H5 1125   2.981   4.613   2.251  0.0840 -0.3575 -1.1148
   43bbb     H6 1126   2.931   4.773   2.184  0.9205 -0.7223 -0.0418
   43bbb     H7 1127   2.771   4.398   1.926 -0.4541 -1.5859 -0.6326
   43bbb     H8 1128   2.731   4.397   1.754  1.0765 -1.0287  0.9347
   43bbb     H9 1129   3.005   4.738   1.870 -0.6115  0.2497 -0.8496
   43bbb    H10 1130   2.934   4.838   2.000 -0.1093 -0.5375  0.2060
   43bbb    H11 1131   2.755   4.918   1.843  0.4550  3.0817 -0.4035
   43bbb    H12 1132   2.838   4.862   1.707 -3.2373  2.7454  0.4328
   43bbb    H13 1133   3.037   5.004   1.844 -0.6430  1.2051  1.3300
   43bbb    H25 1134   2.733   4.727   1.975  0.6538  1.8091 -0.5665
   44bbb     N1 1135   3.830   6.211   3.152 -0.3056 -0.6239 -0.5654
   44bbb     C1 1136   3.848   6.345   3.210  0.2659  0.4118 -0.2084
   44bbb     C2 1137   3.858   6.094   3.251 -0.1961  0.0429  0.0066
   44bbb     C3 1138   3.775   6.374   3.347 -0.9785  0.3538 -0.3829
   44bbb     C4 1139   3.849   6.428   3.465 -0.2065  0.1361  0.4559
   44bbb     C5 1140   3.798   5.954   3.220 -0.7572 -0.6580 -0.0862
   44bbb     C6 1141   3.796   5.861   3.342 -0.7887 -0.1428 -0.6891
   44bbb     C7 1142   3.921   6.178   3.033 -0.3578 -0.0816  0.2576
   44bbb     C8 1143   3.920   6.276   2.909 -0.1970 -0.4799  0.3466
   44bbb     N2 1144   4.000   6.229   2.794 -0.2476 -0.3879 -0.3013
   44bbb     O1 1145   3.970   6.409   3.480  0.4805  0.3335  0.1336
   44bbb     O2 1146   3.713   5.866   3.428 -0.0450  0.3553 -0.1153
   44bbb     H1 1147   3.954   6.368   3.219  0.3838  0.3328 -1.2958
   44bbb     H2 1148   3.804   6.408   3.132  0.1441  0.1983 -0.3116
   44bbb     H3 1149   3.807   6.129   3.341 -0.3104 -0.5459  0.1781
   44bbb     H4 1150   3.964   6.079   3.271 -0.3254 -1.7065 -0.4597
   44bbb     H5 1151   3.688   6.439   3.336  0.0670  1.5215 -2.1806
   44bbb     H6 1152   3.732   6.281   3.385  3.2057 -0.6070  2.8314
   44bbb     H7 1153   3.845   5.902   3.136  0.6162 -0.0926  0.3040
   44bbb     H8 1154   3.695   5.969   3.187 -0.9067 -1.4828 -0.0208
   44bbb     H9 1155   3.890   6.078   3.001 -1.7088 -0.4833  2.5936
   44bbb    H10 1156   4.024   6.182   3.069  1.3008 -2.2151 -3.6374
   44bbb    H11 1157   3.949   6.380   2.930  1.3756 -0.6610 -0.6936
   44bbb    H12 1158   3.819   6.295   2.872 -0.5042  1.2929  1.9245
   44bbb    H13 1159   4.031   6.133   2.790  1.0852 -0.0923  1.5490
   44bbb    H25 1160   3.735   6.203   3.115 -0.2748 -0.3394 -0.7088
   45bbb     N1 1161   3.638   6.878   2.065 -0.0287 -0.2262 -0.7575
   45bbb     C1 1162   3.615   6.953   2.195 -0.2974  0.3696 -0.0909
   45bbb     C2 1163   3.515   6.898   1.975  0.1310  1.2760 -0.5318
   45bbb     C3 1164   3.594   7.107   2.203 -0.1903 -0.1335 -0.1253
   45bbb     C4 1165   3.513   7.139   2.326  0.4555 -1.2977 -0.3173
   45bbb     C5 1166   3.540   6.862   1.831 -0.0072 -0.8325 -0.6610
   45bbb     C6 1167   3.421   6.897   1.744  0.0874  0.5523  0.2995
   45bbb     C7 1168   3.653   6.735   2.097 -0.3288 -0.1574  0.3519
   45bbb     C8 1169   3.785   6.706   2.177  0.4722  0.3849  0.6006
   45bbb     N2 1170   3.783   6.569   2.239 -0.3109 -0.0548 -0.0855
   45bbb     O1 1171   3.528   7.086   2.438  0.0754 -0.1598 -0.2322
   45bbb     O2 1172   3.309   6.939   1.785  0.2239 -0.8302  0.3030
   45bbb     H1 1173   3.525   6.904   2.234  0.8356 -1.2146  0.6858
   45bbb     H2 1174   3.704   6.942   2.258  0.7538  0.3045 -1.5538
   45bbb     H3 1175   3.479   7.001   1.980 -0.7422  0.9805 -0.6159
   45bbb     H4 1176   3.439   6.831   2.015  2.0249 -1.0832 -0.6180
   45bbb     H5 1177   3.687   7.163   2.204  0.3410 -0.9999  0.1531
   45bbb     H6 1178   3.543   7.142   2.112  0.7785 -1.5152 -1.2495
   45bbb     H7 1179   3.552   6.755   1.812  0.3851 -0.8265 -0.4616
   45bbb     H8 1180   3.629   6.915   1.794 -0.1366  0.1832  0.4327
   45bbb     H9 1181   3.666   6.682   2.003  0.4176  0.6279 -0.0019
   45bbb    H10 1182   3.566   6.700   2.154  0.4729 -3.4684 -0.2361
   45bbb    H11 1183   3.800   6.776   2.260  0.6045  0.7188  0.2962
   45bbb    H12 1184   3.880   6.715   2.124 -0.1181  1.9024 -0.2448
   45bbb    H13 1185   3.698   6.555   2.293 -2.0838  1.1907 -2.3616
   45bbb    H25 1186   3.723   6.914   2.019  0.8737 -1.8991 -0.4578
   46bbb     N1 1187   7.998   3.648   0.815 -0.1933 -0.0362  0.4606
   46bbb     C1 1188   8.084   3.690   0.694 -0.0342  0.1459 -0.0506
   46bbb     C2 1189   8.085   3.602   0.933  0.2430 -0.3551  1.2809
   46bbb     C3 1190   8.075   3.840   0.660 -0.2198 -0.4179 -0.1428
   46bbb     C4 1191   8.098   3.866   0.520  0.9359  0.3783  1.1221
   46bbb     C5 1192   8.165   3.721   0.996  0.2652 -0.0310  0.4819
   46bbb     C6 1193   8.278   3.680   1.082 -0.5790  0.7131  0.1368
   46bbb     C7 1194   7.907   3.543   0.766 -0.4783 -0.4043  0.3331
   46bbb     C8 1195   7.793   3.587   0.676 -0.6165  0.1202 -0.3623
   46bbb     N2 1196   7.691   3.664   0.752 -0.6080  0.1057  0.0877
   46bbb     O1 1197   8.072   3.787   0.430 -0.2243  0.3777  0.2124
   46bbb     O2 1198   8.337   3.574   1.066 -0.1974  0.0617  0.9465
   46bbb     H1 1199   8.184   3.650   0.711 -0.3011  0.7522  3.8651
   46bbb     H2 1200   8.048   3.640   0.604 -1.8911 -1.9070  1.7156
   46bbb     H3 1201   8.151   3.529   0.885 -0.2866  0.5849 -1.0448
   46bbb     H4 1202   8.016   3.575   1.013 -2.3899 -0.0776 -0.7427
   46bbb     H5 1203   7.979   3.889   0.683 -0.7704 -0.8421 -1.4205
   46bbb     H6 1204   8.155   3.890   0.717 -0.1384 -1.4900  0.7139
   46bbb     H7 1205   8.092   3.783   1.049  0.6249  2.2878 -1.5348
   46bbb     H8 1206   8.208   3.792   0.924  1.3604 -0.6782  0.4802
   46bbb     H9 1207   7.864   3.487   0.849 -1.0006 -0.5180 -0.0124
   46bbb    H10 1208   7.964   3.473   0.706 -1.4966 -1.6466  0.7835
   46bbb    H11 1209   7.737   3.504   0.631  0.0200 -0.4648 -0.1083
   46bbb    H12 1210   7.830   3.654   0.597  3.5817 -0.3684  0.8995
   46bbb    H13 1211   7.661   3.757   0.725 -1.5693  0.0406  0.8941
   46bbb    H25 1212   7.946   3.731   0.846  1.6797  0.1005  3.6161
   47bbb     N1 1213   7.099   2.819   0.473  0.1223  0.1576 -0.3058
   47bbb     C1 1214   6.948   2.823   0.492 -0.8615  0.1492  0.3890
   47bbb     C2 1215   7.154   2.695   0.416  0.0019  0.6239 -0.0777
   47bbb     C3 1216   6.877   2.869   0.360 -0.3196  0.3023 -0.7085
   47bbb     C4 1217   6.879   3.020   0.352 -0.5207  0.1150 -0.7049
   47bbb     C5 1218   7.293   2.713   0.362 -0.1725  0.6474  0.2886
   47bbb     C6 1219   7.300   2.800   0.247  0.0365  0.9071  0.5191
   47bbb     C7 1220   7.155   2.843   0.613 -0.7510  0.2745 -0.1865
   47bbb     C8 1221   7.269   2.950   0.625  0.2553 -0.3740  1.2521
   47bbb     N2 1222   7.212   3.087   0.648 -0.5146 -0.7885 -0.0269
   47bbb     O1 1223   6.975   3.087   0.391 -0.1678 -0.9072  0.2958
   47bbb     O2 1224   7.242   2.903   0.242 -0.6936  0.3693 -0.4078
   47bbb     H1 1225   6.912   2.721   0.508 -0.6207 -0.1104 -0.6230
   47bbb     H2 1226   6.923   2.875   0.585  1.4551 -2.9892  3.0297
   47bbb     H3 1227   7.092   2.674   0.329 -0.4948  1.5500  0.0399
   47bbb     H4 1228   7.147   2.617   0.493 -0.7288  0.2778 -0.4928
   47bbb     H5 1229   6.927   2.829   0.271  0.2552  0.3394 -0.4010
   47bbb     H6 1230   6.776   2.824   0.364  0.8081 -2.4062 -0.2482
   47bbb     H7 1231   7.343   2.621   0.327 -1.0815  0.2769 -0.0785
   47bbb     H8 1232   7.359   2.761   0.434  0.2782 -0.4877  0.6638
   47bbb     H9 1233   7.195   2.745   0.639 -0.5691  1.2205  3.6338
   47bbb    H10 1234   7.072   2.857   0.682  0.5802  1.1906  1.2921
   47bbb    H11 1235   7.323   2.947   0.530  0.2031  2.3037  1.0825
   47bbb    H12 1236   7.337   2.916   0.705  0.8066 -0.3324  0.8059
   47bbb    H13 1237   7.112   3.090   0.660 -0.6231 -0.6284 -0.9151
   47bbb    H25 1238   7.119   2.896   0.408  0.7864  0.1447 -0.1228
   48bbb     N1 1239   6.256   2.606   2.087 -0.1262 -0.0458  0.0511
   48bbb     C1 1240   6.116   2.583   2.031  0.0054  0.7547 -1.2336
   48bbb     C2 1241   6.258   2.541   2.224 -1.0548  0.4690  0.0314
   48bbb     C3 1242   6.098   2.616   1.882  0.2261 -0.3325  0.3502
   48bbb     C4 1243   6.159   2.508   1.798  0.2509 -0.1136 -0.4694
   48bbb     C5 1244   6.276   2.384   2.222 -0.3220  0.8338 -0.3110
   48bbb     C6 1245   6.416   2.330   2.170 -0.0931 -0.6159 -0.3256
   48bbb     C7 1246   6.291   2.745   2.106  0.3879 -0.5549  0.1414
   48bbb     C8 1247   6.381   2.812   1.994 -0.0418  0.3786 -0.5420
   48bbb     N2 1248   6.511   2.745   1.985 -0.5509  0.1658  0.4977
   48bbb     O1 1249   6.271   2.469   1.826 -0.1181  0.5273 -0.3516
   48bbb     O2 1250   6.477   2.397   2.086  0.0262 -0.0086 -0.0167
   48bbb     H1 1251   6.092   2.478   2.049 -1.3912  1.0227 -1.4052
   48bbb     H2 1252   6.054   2.641   2.100  0.9274  1.1290 -0.7089
   48bbb     H3 1253   6.161   2.564   2.269 -0.3615  2.1895  0.7145
   48bbb     H4 1254   6.335   2.582   2.288 -1.0623  0.3801  0.0984
   48bbb     H5 1255   5.992   2.626   1.854  1.2606  0.8152 -3.8184
   48bbb     H6 1256   6.137   2.715   1.854  2.0941 -0.7063  1.5250
   48bbb     H7 1257   6.193   2.337   2.169  1.6063 -0.5594 -2.2924
   48bbb     H8 1258   6.270   2.355   2.328  0.3208 -0.4770 -0.6171
   48bbb     H9 1259   6.348   2.762   2.197 -0.1434 -0.0775  0.3981
   48bbb    H10 1260   6.197   2.799   2.122  0.8575  0.2037  0.3879
   48bbb    H11 1261   6.394   2.920   2.008 -2.2269  1.1561 -3.5735
   48bbb    H12 1262   6.324   2.793   1.902 -1.6651  0.4301  0.4024
   48bbb    H13 1263   6.537   2.672   2.051  3.9454  2.4618  1.6323
   48bbb    H25 1264   6.330   2.561   2.032 -0.4637 -0.1816 -0.3012
   49bbb     N1 1265   7.578   2.554   1.581 -0.5574 -0.5347  0.2439
   49bbb     C1 1266   7.585   2.446   1.475  0.6100  0.2972  0.6141
   49bbb     C2 1267   7.619   2.508   1.724 -0.1241 -0.2546 -0.4706
   49bbb     C3 1268   7.616   2.493   1.329  0.9613 -0.4230 -0.3960
   49bbb     C4 1269   7.756   2.541   1.312  0.3510  0.6866 -0.2659
   49bbb     C5 1270   7.764   2.478   1.745  0.0822 -0.6517 -0.1815
   49bbb     C6 1271   7.788   2.419   1.881  0.2494 -0.3104 -0.0117
   49bbb     C7 1272   7.458   2.645   1.572  0.8896  0.4386 -0.2041
   49bbb     C8 1273   7.331   2.576   1.616  0.3135  0.4398 -0.1744
   49bbb     N2 1274   7.225   2.675   1.624  0.1276 -0.4178 -0.3019
   49bbb     O1 1275   7.834   2.525   1.404 -0.0024 -0.3234 -0.7119
   49bbb     O2 1276   7.755   2.470   1.989  0.3675  0.0279 -0.3021
   49bbb     H1 1277   7.662   2.373   1.498  0.1912 -0.9088 -1.5200
   49bbb     H2 1278   7.488   2.395   1.477 -0.2923  1.5232 -3.0191
   49bbb     H3 1279   7.566   2.413   1.737 -0.1625 -0.0516  0.9412
   49bbb     H4 1280   7.581   2.579   1.797 -1.4348 -0.5262 -0.8648
   49bbb     H5 1281   7.599   2.413   1.256  1.4969  0.7072 -1.7949
   49bbb     H6 1282   7.548   2.575   1.304  2.5581  0.8131 -0.8320
   49bbb     H7 1283   7.819   2.570   1.722 -0.0962 -0.3394  0.6004
   49bbb     H8 1284   7.794   2.409   1.665 -0.5395 -2.1526  0.8184
   49bbb     H9 1285   7.445   2.688   1.473 -2.1163 -0.2478 -0.1903
   49bbb    H10 1286   7.487   2.726   1.640  1.0862 -0.5583  0.9427
   49bbb    H11 1287   7.339   2.535   1.718 -0.5461 -2.1426 -1.0647
   49bbb    H12 1288   7.298   2.497   1.548  0.6874  0.0436  0.0993
   49bbb    H13 1289   7.247   2.770   1.597 -1.1714 -0.7225 -2.7810
   49bbb    H25 1290   7.655   2.618   1.557 -2.6053  2.8900  2.0064
   50bbb     N1 1291   7.971   5.573   1.743  0.2260 -0.2749  0.1015
   50bbb     C1 1292   7.977   5.725   1.753  0.3550 -0.1716 -0.1941
   50bbb     C2 1293   8.009   5.538   1.604  0.0462 -0.0298 -0.0733
   50bbb     C3 1294   7.879   5.797   1.855  0.5147 -0.2875  0.4082
   50bbb     C4 1295   7.890   5.756   2.000  0.1986 -0.2332 -0.2264
   50bbb     C5 1296   8.159   5.545   1.586 -0.9523 -0.7985  0.3092
   50bbb     C6 1297   8.200   5.512   1.444  0.0188 -0.1630  0.3058
   50bbb     C7 1298   7.834   5.511   1.775 -0.2971 -0.1228 -0.1341
   50bbb     C8 1299   7.721   5.547   1.681 -0.2204  0.5467 -0.0656
   50bbb     N2 1300   7.601   5.473   1.707  0.1819  0.8274 -0.0949
   50bbb     O1 1301   7.807   5.685   2.058  0.2653 -0.5098  0.4147
   50bbb     O2 1302   8.114   5.518   1.350 -0.3184 -0.3096 -0.1674
   50bbb     H1 1303   8.079   5.758   1.773  0.1134 -0.4426  1.6646
   50bbb     H2 1304   7.956   5.762   1.653  1.3432  0.1085 -0.3106
   50bbb     H3 1305   7.966   5.616   1.542 -1.8642 -0.4625  0.6461
   50bbb     H4 1306   7.977   5.435   1.585 -1.6821  0.3597  0.5429
   50bbb     H5 1307   7.903   5.903   1.851  2.5845 -0.6163  2.2579
   50bbb     H6 1308   7.776   5.780   1.820 -0.0198  0.7600  1.4157
   50bbb     H7 1309   8.212   5.481   1.657  0.9723  0.8608  0.4638
   50bbb     H8 1310   8.186   5.651   1.597 -1.5501 -0.2675 -2.4356
   50bbb     H9 1311   7.821   5.549   1.876 -0.1295 -2.5061  0.8359
   50bbb    H10 1312   7.846   5.403   1.783 -0.7733 -0.1071  0.9124
   50bbb    H11 1313   7.742   5.526   1.575 -0.3733 -2.4668  0.4032
   50bbb    H12 1314   7.696   5.653   1.691 -1.4742  0.2123  0.7296
   50bbb    H13 1315   7.599   5.429   1.798 -1.4846  2.6260  0.8113
   50bbb    H25 1316   8.047   5.549   1.808  0.3122 -2.2975 -0.6699
   51bbb     N1 1317   6.984   5.970   2.066  0.9165 -0.2748 -0.0457
   51bbb     C1 1318   7.006   6.083   2.166 -0.0420  0.6544 -0.4125
   51bbb     C2 1319   6.988   6.022   1.925  0.2258  0.3333 -0.7127
   51bbb     C3 1320   7.141   6.165   2.162 -0.2721  0.1904  0.0475
   51bbb     C4 1321   7.163   6.254   2.284  0.0021  0.5670  0.0885
   51bbb     C5 1322   7.122   6.005   1.850  0.4310 -0.1817  0.0114
   51bbb     C6 1323   7.135   5.874   1.767 -0.3879 -1.0081  0.3242
   51bbb     C7 1324   6.857   5.894   2.096  0.0506  0.5898 -0.5535
   51bbb     C8 1325   6.840   5.761   2.012 -0.5235 -0.2857  0.2103
   51bbb     N2 1326   6.945   5.664   2.049 -0.4198  0.2741 -0.1221
   51bbb     O1 1327   7.094   6.352   2.300  0.0367  0.2983  0.4273
   51bbb     O2 1328   7.122   5.763   1.818  0.2829 -0.1196 -0.0013
   51bbb     H1 1329   6.919   6.148   2.161 -0.5854 -0.0054  0.2280
   51bbb     H2 1330   6.993   6.046   2.268 -1.4869  1.1826 -0.3797
   51bbb     H3 1331   6.965   6.128   1.932 -2.2578 -0.1428 -0.6500
   51bbb     H4 1332   6.907   5.978   1.866  1.3407 -2.3731 -0.3810
   51bbb     H5 1333   7.226   6.098   2.146  1.8431  2.5428  0.7404
   51bbb     H6 1334   7.147   6.234   2.077 -1.8756 -0.3626 -0.5536
   51bbb     H7 1335   7.211   6.002   1.914  0.0452  1.7908  0.7259
   51bbb     H8 1336   7.136   6.090   1.782 -0.1608 -0.5188 -0.5454
   51bbb     H9 1337   6.773   5.961   2.076 -1.1399 -0.9245 -0.8921
   51bbb    H10 1338   6.847   5.861   2.199  0.0412 -0.8238 -0.9793
   51bbb    H11 1339   6.841   5.772   1.903  1.4030 -2.8920 -0.1276
   51bbb    H12 1340   6.740   5.719   2.033 -0.7740  0.2281  0.0629
   51bbb    H13 1341   7.030   5.688   2.097 -0.9661  0.3038  0.8674
   51bbb    H25 1342   7.050   5.893   2.082  0.7024 -0.5392 -0.4144
   52bbb     N1 1343   5.734   5.184   0.515 -0.0320  0.3319  0.2624
   52bbb     C1 1344   5.719   5.180   0.363 -0.1170 -0.0156 -0.0085
   52bbb     C2 1345   5.645   5.082   0.585 -0.2746 -0.2277 -0.2727
   52bbb     C3 1346   5.804   5.285   0.290  0.2856  0.2156 -0.4857
   52bbb     C4 1347   5.948   5.277   0.320 -0.1937  0.1074  0.5445
   52bbb     C5 1348   5.654   4.938   0.544 -0.1744  0.5723  0.6753
   52bbb     C6 1349   5.620   4.848   0.662  0.9358  0.3716  0.5369
   52bbb     C7 1350   5.709   5.329   0.574  0.0927  0.2546 -0.0740
   52bbb     C8 1351   5.766   5.349   0.721 -0.1321  0.3382  0.1826
   52bbb     N2 1352   5.912   5.361   0.721  0.2614 -0.1409 -0.2957
   52bbb     O1 1353   5.995   5.246   0.430 -0.3604 -0.8529  0.0739
   52bbb     O2 1354   5.691   4.829   0.758 -0.3231 -1.0161 -0.2285
   52bbb     H1 1355   5.734   5.077   0.329 -1.2593  0.7373 -3.0760
   52bbb     H2 1356   5.617   5.207   0.336 -0.6245 -0.9709  0.8669
   52bbb     H3 1357   5.543   5.120   0.580  0.2811  1.3717  0.0763
   52bbb     H4 1358   5.669   5.085   0.692 -1.7918  3.2854  0.0919
   52bbb     H5 1359   5.790   5.292   0.182  3.3285  0.9277 -0.9225
   52bbb     H6 1360   5.774   5.383   0.329  0.9516 -0.0180  0.6569
   52bbb     H7 1361   5.755   4.914   0.510  0.4070  1.8899  1.4039
   52bbb     H8 1362   5.585   4.927   0.459  1.4625  2.2209 -0.9855
   52bbb     H9 1363   5.601   5.348   0.574 -0.5767 -2.8781  1.6689
   52bbb    H10 1364   5.752   5.410   0.515  1.4685 -0.0430  0.4776
   52bbb    H11 1365   5.733   5.268   0.788 -1.3171  0.6266 -0.0256
   52bbb    H12 1366   5.738   5.446   0.763  0.8488  0.3232  0.9278
   52bbb    H13 1367   5.949   5.455   0.722 -1.5765  0.6188 -0.2052
   52bbb    H25 1368   5.834   5.159   0.524 -0.3304 -0.5890  1.1611
   53bbb     N1 1369   6.918   5.162  -0.014 -0.0995  0.4760 -0.1596
   53bbb     C1 1370   7.053   5.246  -0.015 -0.4406 -0.5091  0.6263
   53bbb     C2 1371   6.820   5.219  -0.120  0.1713  0.0179 -0.6875
   53bbb     C3 1372   7.068   5.387   0.043 -0.2741  0.0028 -0.5120
   53bbb     C4 1373   7.195   5.450  -0.014 -0.6191  0.4525 -0.3925
   53bbb     C5 1374   6.749   5.116  -0.201 -0.0799 -0.0385  0.2873
   53bbb     C6 1375   6.628   5.171  -0.268  0.7531  0.2294  0.8136
   53bbb     C7 1376   6.866   5.167   0.126 -0.1186  0.0052  0.1361
   53bbb     C8 1377   6.770   5.049   0.161 -0.5831 -0.3099 -0.0023
   53bbb     N2 1378   6.706   5.068   0.294 -0.7384  0.0840 -0.1483
   53bbb     O1 1379   7.255   5.395  -0.102  0.6156  0.0631 -0.0278
   53bbb     O2 1380   6.524   5.208  -0.215 -0.4063  0.6015 -0.3545
   53bbb     H1 1381   7.126   5.187   0.042  0.3581 -1.5923 -1.4253
   53bbb     H2 1382   7.089   5.247  -0.118  0.7441 -2.1998  0.9776
   53bbb     H3 1383   6.883   5.276  -0.188  2.1398 -0.4812  0.6465
   53bbb     H4 1384   6.747   5.285  -0.074  0.5019  0.2399 -0.4799
   53bbb     H5 1385   6.986   5.456   0.020  0.5771  0.3955 -2.5367
   53bbb     H6 1386   7.077   5.375   0.152 -0.9688 -2.0717 -0.6353
   53bbb     H7 1387   6.718   5.030  -0.141  1.3521 -0.5348  0.3590
   53bbb     H8 1388   6.818   5.082  -0.279 -0.9507  1.4787 -1.2129
   53bbb     H9 1389   6.826   5.267   0.142  2.4289  1.2273 -0.6627
   53bbb    H10 1390   6.957   5.163   0.187 -0.3126 -1.1459  0.3791
   53bbb    H11 1391   6.820   4.951   0.151  1.1499  0.6367 -1.2982
   53bbb    H12 1392   6.681   5.043   0.098 -0.8199  1.1194  0.1615
   53bbb    H13 1393   6.760   5.098   0.375 -0.4594 -0.0988 -0.2673
   53bbb    H25 1394   6.935   5.064  -0.040  0.0624 -0.5724  3.4090
   54bbb     N1 1395   4.591   1.523   2.054 -0.1541  0.3322 -0.0643
   54bbb     C1 1396   4.725   1.501   1.982  0.3218  0.5351 -0.0267
   54bbb     C2 1397   4.492   1.440   1.977 -0.4810  0.6906 -0.2380
   54bbb     C3 1398   4.851   1.522   2.067 -0.5104 -0.3621 -0.4386
   54bbb     C4 1399   4.974   1.463   2.007 -0.2433  0.4945 -0.0452
   54bbb     C5 1400   4.361   1.410   2.053 -0.0209  0.5263  0.5627
   54bbb     C6 1401   4.272   1.312   1.979  0.2786 -0.1496 -0.4962
   54bbb     C7 1402   4.545   1.671   2.053 -0.1631 -0.0660 -0.2509
   54bbb     C8 1403   4.576   1.744   1.921  0.1029 -0.0663 -0.4268
   54bbb     N2 1404   4.519   1.884   1.930 -0.5282 -0.2895  0.6539
   54bbb     O1 1405   4.990   1.448   1.889  0.3934 -0.5506  0.0634
   54bbb     O2 1406   4.257   1.302   1.855  0.4181  0.3284 -0.1990
   54bbb     H1 1407   4.730   1.397   1.951  0.3829  0.9765 -1.5498
   54bbb     H2 1408   4.720   1.562   1.892  1.1109  0.3300 -0.2173
   54bbb     H3 1409   4.538   1.346   1.949 -1.0602  0.1695  0.5214
   54bbb     H4 1410   4.486   1.480   1.876  0.2965  1.9399  0.1936
   54bbb     H5 1411   4.864   1.628   2.090 -1.1497  0.1086 -2.0936
   54bbb     H6 1412   4.826   1.467   2.158  1.2772 -3.4918 -1.6492
   54bbb     H7 1413   4.304   1.503   2.060 -2.1565 -0.7516  0.8792
   54bbb     H8 1414   4.379   1.365   2.151  0.1986 -1.5114 -0.3461
   54bbb     H9 1415   4.603   1.717   2.134  1.1363 -1.2419 -0.4766
   54bbb    H10 1416   4.439   1.675   2.080 -0.0297  0.6099  0.1891
   54bbb    H11 1417   4.539   1.695   1.830  0.1574 -1.2992  0.2059
   54bbb    H12 1418   4.685   1.761   1.913  0.3113  0.6331  2.6353
   54bbb    H13 1419   4.504   1.919   2.024 -1.9227 -0.7803  0.6293
   54bbb    H25 1420   4.599   1.497   2.153  0.2471  0.5165 -0.0449
   55bbb     N1 1421   4.933   2.551   0.892  0.2511 -0.4324 -0.1364
   55bbb     C1 1422   4.937   2.698   0.920 -0.6051 -0.0582  0.7636
   55bbb     C2 1423   4.865   2.514   0.758 -0.5722 -0.3150  0.2952
   55bbb     C3 1424   5.053   2.780   0.867 -0.0811 -0.5868  0.1568
   55bbb     C4 1425   5.185   2.749   0.947 -0.2342 -0.4131 -0.2904
   55bbb     C5 1426   4.909   2.381   0.700 -0.1519  0.1778  0.0510
   55bbb     C6 1427   4.832   2.319   0.588  0.6763 -0.0177  0.2323
   55bbb     C7 1428   4.867   2.475   1.011 -0.0853 -0.2346  0.8065
   55bbb     C8 1429   4.957   2.468   1.147  0.4157  0.5537  0.4454
   55bbb     N2 1430   4.930   2.354   1.361  0.2593 -0.5515 -0.4506
   55bbb     O1 1431   5.182   2.675   1.048 -0.0693 -0.2351  0.1759
   55bbb     O2 1432   4.758   2.375   0.510  0.3192 -0.3444 -0.0244
   55bbb     H1 1433   4.850   2.739   0.866  0.2285  0.1051 -0.4942
   55bbb     H2 1434   4.921   2.719   1.026  1.2221  0.2208  1.0168
   55bbb     H3 1435   4.891   2.594   0.689  0.8386 -0.2598  0.8534
   55bbb     H4 1436   4.757   2.518   0.770 -0.6524 -0.7251 -0.2502
   55bbb     H5 1437   5.063   2.776   0.758  1.6012  0.2243  0.2588
   55bbb     H6 1438   5.034   2.884   0.893  1.7307 -0.5512  1.5668
   55bbb     H7 1439   4.912   2.301   0.775  0.9948  1.6541  1.6606
   55bbb     H8 1440   5.012   2.384   0.663 -0.1205 -1.6499 -0.1267
   55bbb     H9 1441   4.859   2.368   0.993 -1.8718 -0.2828  1.6424
   55bbb    H10 1442   4.769   2.520   1.028 -0.0338 -0.5543  2.0604
   55bbb    H11 1443   4.968   2.576   1.132 -0.2813  0.3798 -1.7349
   55bbb    H12 1444   5.042   2.446   1.082  0.6623  0.2176  0.8775
   55bbb    H13 1445   4.998   2.397   1.422 -0.4506  1.1173 -0.7883
   55bbb    H25 1446   5.031   2.520   0.884  0.0176 -0.8798 -1.6424
   56bbb     N1 1447   3.050   3.155   0.806 -0.0052  0.1528  0.4399
   56bbb     C1 1448   3.088   3.272   0.723 -0.1707  0.6568 -0.2932
   56bbb     C2 1449   2.904   3.174   0.857  0.2157 -0.5482 -0.4943
   56bbb     C3 1450   3.008   3.312   0.603  0.6683  0.6105  0.2488
   56bbb     C4 1451   3.076   3.433   0.540  0.0975 -0.3087  0.4023
   56bbb     C5 1452   2.843   3.054   0.932  0.2605  0.2456 -0.5018
   56bbb     C6 1453   2.692   3.065   0.948 -0.2818  0.4630 -0.6581
   56bbb     C7 1454   3.142   3.142   0.922 -0.1870 -0.6166 -0.0023
   56bbb     C8 1455   3.282   3.083   0.890  0.0425  0.3357  0.1806
   56bbb     N2 1456   3.388   3.103   0.993  0.3307  0.5739 -0.9683
   56bbb     O1 1457   3.145   3.517   0.601  0.4375  0.2431 -0.0288
   56bbb     O2 1458   2.645   3.167   0.998  0.0689  0.2674  0.1103
   56bbb     H1 1459   3.088   3.347   0.802 -2.0115  0.3792  0.0053
   56bbb     H2 1460   3.190   3.248   0.691 -0.1417  1.3109 -0.7097
   56bbb     H3 1461   2.850   3.190   0.763  1.4414  0.6811 -1.0254
   56bbb     H4 1462   2.900   3.267   0.913 -0.2677 -0.7996 -0.1006
   56bbb     H5 1463   3.011   3.231   0.529 -0.4231  0.8427 -0.0718
   56bbb     H6 1464   2.904   3.335   0.626  0.2510  1.2620 -2.0282
   56bbb     H7 1465   2.873   3.042   1.037 -2.2857 -0.9023  0.1749
   56bbb     H8 1466   2.877   2.965   0.876  2.0283  0.8562 -0.4649
   56bbb     H9 1467   3.100   3.070   0.993 -1.0126 -0.8477 -0.7144
   56bbb    H10 1468   3.158   3.242   0.963  1.3676 -1.1373  0.7493
   56bbb    H11 1469   3.319   3.118   0.793  1.0523  2.4267  1.2483
   56bbb    H12 1470   3.270   2.974   0.893 -0.5325  0.3192 -1.5051
   56bbb    H13 1471   3.359   3.161   1.071 -1.1965 -1.4972  0.0984
   56bbb    H25 1472   3.064   3.074   0.744  1.4072  2.6668 -2.8630
   57bbb     N1 1473   4.275   3.520   0.328  0.0011 -0.4887 -0.4112
   57bbb     C1 1474   4.386   3.631   0.360  0.3145  0.2198 -0.3269
   57bbb     C2 1475   4.219   3.533   0.189 -0.4512 -0.3068 -0.1068
   57bbb     C3 1476   4.525   3.599   0.306  0.9459 -0.3291 -0.3507
   57bbb     C4 1477   4.548   3.595   0.158 -0.1747 -0.0843 -0.5331
   57bbb     C5 1478   4.128   3.660   0.160 -0.0967 -0.1358 -0.2240
   57bbb     C6 1479   4.103   3.668   0.011  0.4250  0.3384  0.0920
   57bbb     C7 1480   4.168   3.515   0.433  0.3084 -0.6179 -0.0412
   57bbb     C8 1481   4.214   3.473   0.574 -0.8326 -0.5451 -0.8671
   57bbb     N2 1482   4.098   3.446   0.669 -0.0663 -0.3007  0.4719
   57bbb     O1 1483   4.472   3.648   0.076 -0.2790 -0.4155  0.3419
   57bbb     O2 1484   4.018   3.609  -0.050  0.8071 -0.0015 -0.0192
   57bbb     H1 1485   4.352   3.731   0.334 -1.2069 -0.3761 -0.7527
   57bbb     H2 1486   4.396   3.636   0.469  1.1761 -1.1925 -0.3093
   57bbb     H3 1487   4.168   3.438   0.179 -1.0620  0.1142 -1.1037
   57bbb     H4 1488   4.304   3.540   0.120  1.4641  2.4629  2.2833
   57bbb     H5 1489   4.587   3.682   0.343  0.2733  0.8427 -1.7708
   57bbb     H6 1490   4.569   3.510   0.353  0.5716  0.2759  1.2385
   57bbb     H7 1491   4.180   3.753   0.186  1.2011 -0.4355 -1.6510
   57bbb     H8 1492   4.031   3.647   0.212  1.5867  0.2090  3.3161
   57bbb     H9 1493   4.082   3.455   0.404 -1.5218  2.0171 -0.3664
   57bbb    H10 1494   4.134   3.618   0.435  0.4417 -0.5798  0.4936
   57bbb    H11 1495   4.290   3.541   0.615 -1.0431 -0.4466 -0.6348
   57bbb    H12 1496   4.264   3.376   0.564  0.5566 -0.3380  2.6561
   57bbb    H13 1497   4.002   3.473   0.651 -0.1564  0.9556  2.5936
   57bbb    H25 1498   4.323   3.431   0.343  0.4452 -0.2564 -0.4376
   58bbb     N1 1499   3.923   4.019   1.960  0.0285 -0.1697  0.6498
   58bbb     C1 1500   3.916   4.145   1.880  0.1464  0.0002  0.2237
   58bbb     C2 1501   4.059   3.969   2.001  0.0608 -0.4790  0.2827
   58bbb     C3 1502   3.961   4.132   1.732  0.5537 -0.2122 -0.2017
   58bbb     C4 1503   4.117   4.121   1.713 -0.2126 -0.1308  1.0415
   58bbb     C5 1504   4.137   4.065   2.097 -0.0215 -0.2255 -0.5814
   58bbb     C6 1505   4.074   4.084   2.232 -0.0853  0.2415  0.1599
   58bbb     C7 1506   3.848   3.906   1.881  0.0836  0.1841 -0.2119
   58bbb     C8 1507   3.818   3.783   1.965  0.4559  0.2561 -0.3777
   58bbb     N2 1508   3.771   3.808   2.102  0.2100  0.4644 -0.0163
   58bbb     O1 1509   4.206   4.180   1.771 -0.9257  0.0792  0.4695
   58bbb     O2 1510   3.964   4.044   2.264  0.5194  0.4546  0.6847
   58bbb     H1 1511   3.811   4.173   1.892  0.7256  2.7939 -0.5910
   58bbb     H2 1512   3.972   4.226   1.928 -0.8705  0.9978 -0.2379
   58bbb     H3 1513   4.118   3.949   1.912  0.0166  2.2549 -0.4481
   58bbb     H4 1514   4.043   3.873   2.052  1.8113 -2.1220 -2.0388
   58bbb     H5 1515   3.914   4.055   1.670 -0.2651  0.7224 -0.7698
   58bbb     H6 1516   3.922   4.225   1.689 -1.7790 -0.6052  0.9124
   58bbb     H7 1517   4.139   4.167   2.056 -1.3472 -0.1612 -0.5556
   58bbb     H8 1518   4.239   4.032   2.117  0.5579  2.4402  1.3943
   58bbb     H9 1519   3.896   3.871   1.789  0.7555 -1.7363  0.8164
   58bbb    H10 1520   3.755   3.959   1.858 -0.7125 -0.1674  1.9749
   58bbb    H11 1521   3.912   3.728   1.981  0.5933  0.6831  0.3602
   58bbb    H12 1522   3.734   3.731   1.918  0.1154  2.3132 -2.1577
   58bbb    H13 1523   3.687   3.865   2.105 -0.8396 -0.8827 -1.6023
   58bbb    H25 1524   3.869   4.023   2.048 -1.0237  0.1548  0.0074
   59bbb     N1 1525   3.207   4.207   3.086 -0.3810 -0.6669 -0.1752
   59bbb     C1 1526   3.269   4.345   3.133  0.2512  0.3863 -0.0930
   59bbb     C2 1527   3.096   4.146   3.186 -0.4854 -0.0097  0.2979
   59bbb     C3 1528   3.371   4.344   3.247  0.3211 -1.4529  0.0780
   59bbb     C4 1529   3.435   4.482   3.269 -0.0356 -0.3441  0.8512
   59bbb     C5 1530   2.961   4.221   3.193  0.1286 -0.1601 -0.3562
   59bbb     C6 1531   2.957   4.323   3.304 -0.5306 -0.0263  1.2898
   59bbb     C7 1532   3.313   4.105   3.040  0.0326 -0.1716 -0.6002
   59bbb     C8 1533   3.395   4.143   2.914 -0.0421 -0.2870  0.2519
   59bbb     N2 1534   3.484   4.038   2.876 -0.2372  0.2726  0.5386
   59bbb     O1 1535   3.441   4.565   3.174  0.1829  0.0997 -0.1098
   59bbb     O2 1536   2.990   4.440   3.279  0.2288 -0.0829 -0.5237
   59bbb     H1 1537   3.333   4.375   3.050  1.2170  0.3584  0.6231
   59bbb     H2 1538   3.195   4.424   3.140  0.9026  1.0805 -0.7856
   59bbb     H3 1539   3.151   4.135   3.280  1.0240 -1.0600 -0.6441
   59bbb     H4 1540   3.073   4.048   3.142  0.7467  1.3430 -3.8331
   59bbb     H5 1541   3.316   4.309   3.336 -2.2192  0.8350 -0.4512
   59bbb     H6 1542   3.454   4.274   3.234  0.8678 -0.4426 -2.2902
   59bbb     H7 1543   2.878   4.152   3.211 -1.7786  1.4957 -2.2502
   59bbb     H8 1544   2.948   4.273   3.097  4.8218  1.8390 -0.1893
   59bbb     H9 1545   3.254   4.017   3.013  0.6600 -0.6725 -0.3524
   59bbb    H10 1546   3.369   4.064   3.124 -1.0098  2.4137  1.4883
   59bbb    H11 1547   3.456   4.234   2.921  1.4802 -1.4055  3.1076
   59bbb    H12 1548   3.327   4.165   2.830 -1.3293  0.8055  1.5444
   59bbb    H13 1549   3.474   3.940   2.902  1.2474 -0.2459 -0.7218
   59bbb    H25 1550   3.148   4.228   3.005 -0.2388  0.0126 -0.1138
   60bbb     N1 1551   4.455   2.254   3.716 -0.2429  0.6114  0.2273
   60bbb     C1 1552   4.514   2.120   3.665  0.0143 -1.0803  0.9030
   60bbb     C2 1553   4.506   2.281   3.854 -0.4252  0.7925  0.2912
   60bbb     C3 1554   4.522   2.102   3.509  0.2477  0.7108 -0.4000
   60bbb     C4 1555   4.595   1.971   3.476  0.3432  0.2032  0.1020
   60bbb     C5 1556   4.427   2.225   3.973 -0.3403  0.4680  0.4911
   60bbb     C6 1557   4.514   2.226   4.093  0.9535  0.8195 -0.4831
   60bbb     C7 1558   4.305   2.265   3.712  0.0695 -0.0392 -0.3135
   60bbb     C8 1559   4.238   2.400   3.697  0.3812 -0.0001 -0.1182
   60bbb     N2 1560   4.261   2.461   3.565  0.2537 -0.3416  0.5221
   60bbb     O1 1561   4.675   1.915   3.550 -0.0707 -0.6616 -0.5946
   60bbb     O2 1562   4.618   2.289   4.100  0.5525 -0.3637 -0.1165
   60bbb     H1 1563   4.617   2.125   3.699  0.1298  1.0253  0.3309
   60bbb     H2 1564   4.459   2.041   3.717  1.8518 -2.3848  0.9587
   60bbb     H3 1565   4.518   2.389   3.855  0.4054  0.7392 -0.8809
   60bbb     H4 1566   4.607   2.239   3.850  0.6365  3.2102  0.1904
   60bbb     H5 1567   4.423   2.103   3.461  0.8325 -0.1063 -1.6808
   60bbb     H6 1568   4.577   2.186   3.464  2.6329  0.1473  1.3080
   60bbb     H7 1569   4.406   2.120   3.951 -0.1426  0.5401 -0.0562
   60bbb     H8 1570   4.329   2.272   3.986 -1.2900 -0.6442 -1.9788
   60bbb     H9 1571   4.261   2.220   3.801  0.1538  0.4627 -0.0154
   60bbb    H10 1572   4.279   2.208   3.622 -1.9012  1.7304 -0.9444
   60bbb    H11 1573   4.266   2.473   3.774 -2.1481 -0.5136  1.3909
   60bbb    H12 1574   4.130   2.401   3.713  0.5954  1.1629  1.4395
   60bbb    H13 1575   4.346   2.513   3.548 -0.5551  0.5775 -0.9692
   60bbb    H25 1576   4.496   2.325   3.654 -0.8874 -0.0357 -0.9834
   61bbb     N1 1577   3.319   2.408   3.172 -0.1068 -0.2922 -0.1420
   61bbb     C1 1578   3.264   2.325   3.053  0.0459 -0.4993  0.4507
   61bbb     C2 1579   3.210   2.486   3.238 -0.5090 -0.0184  0.6056
   61bbb     C3 1580   3.231   2.172   3.093  0.1087 -0.6956  1.3249
   61bbb     C4 1581   3.262   2.072   2.975  0.5165  0.6190 -0.3211
   61bbb     C5 1582   3.147   2.414   3.357  0.1653  0.7379  0.0292
   61bbb     C6 1583   3.236   2.378   3.481  0.2975 -0.1920  0.7692
   61bbb     C7 1584   3.428   2.501   3.127 -0.7269  0.1194 -0.2410
   61bbb     C8 1585   3.563   2.433   3.085  0.3853  0.4801  1.2648
   61bbb     N2 1586   3.670   2.529   3.067  0.5430 -0.3224 -0.5878
   61bbb     O1 1587   3.266   2.099   2.858  0.5488 -0.0234  0.5631
   61bbb     O2 1588   3.333   2.303   3.470  0.1264  0.4182  0.8052
   61bbb     H1 1589   3.169   2.364   3.018 -0.4188 -0.5674  1.6052
   61bbb     H2 1590   3.338   2.327   2.973 -0.5633 -1.3839 -0.1473
   61bbb     H3 1591   3.139   2.515   3.161  1.2638  1.1371 -0.6575
   61bbb     H4 1592   3.273   2.567   3.277  2.1892 -0.4558 -2.4622
   61bbb     H5 1593   3.302   2.150   3.174  2.6453  0.3913 -0.4556
   61bbb     H6 1594   3.127   2.168   3.126 -0.6272  0.6627 -0.5891
   61bbb     H7 1595   3.110   2.317   3.322 -1.2491  0.8431  1.1808
   61bbb     H8 1596   3.062   2.475   3.388  0.1556  0.0719  1.3919
   61bbb     H9 1597   3.456   2.569   3.208  0.4445  0.1931 -0.6880
   61bbb    H10 1598   3.388   2.568   3.051  0.4897  0.7333 -0.3731
   61bbb    H11 1599   3.556   2.384   2.987  1.1637  3.9060 -0.6516
   61bbb    H12 1600   3.592   2.359   3.161 -1.2025 -1.7791 -0.2020
   61bbb    H13 1601   3.657   2.595   2.992  1.7942 -1.0416 -1.4884
   61bbb    H25 1602   3.356   2.351   3.250 -0.4801  0.8467  0.9023
   62bbb     N1 1603   4.631   4.662   4.096 -0.4203 -0.4610 -0.3793
   62bbb     C1 1604   4.566   4.804   4.079  0.7264  0.2276 -0.4667
   62bbb     C2 1605   4.513   4.569   4.101 -0.0202  0.2773  0.3819
   62bbb     C3 1606   4.527   4.848   3.936  0.2482  0.5291 -0.2307
   62bbb     C4 1607   4.624   4.831   3.821  0.1763  0.4570 -0.2716
   62bbb     C5 1608   4.522   4.421   4.123  0.5701 -0.0699  0.7818
   62bbb     C6 1609   4.400   4.356   4.060  0.3097 -0.6173 -0.8925
   62bbb     C7 1610   4.723   4.652   4.221  0.1727  0.0862 -0.0606
   62bbb     C8 1611   4.862   4.713   4.189  0.5316 -0.4882 -0.1477
   62bbb     N2 1612   4.950   4.712   4.302 -0.3147  0.0937  0.0410
   62bbb     O1 1613   4.744   4.829   3.828  0.1134 -0.0754 -0.0573
   62bbb     O2 1614   4.399   4.341   3.936  0.4623  0.0812 -0.2556
   62bbb     H1 1615   4.478   4.804   4.143  1.6139 -1.4495  0.8304
   62bbb     H2 1616   4.642   4.874   4.116  1.2802 -0.9942  0.7691
   62bbb     H3 1617   4.462   4.592   4.007 -3.6727 -1.3663  1.7939
   62bbb     H4 1618   4.456   4.619   4.180  0.9299 -0.8945  1.8598
   62bbb     H5 1619   4.435   4.790   3.918 -0.2081  0.3965  2.2445
   62bbb     H6 1620   4.483   4.948   3.922 -0.5604  0.1404 -0.5969
   62bbb     H7 1621   4.515   4.401   4.230 -1.7007  1.0552  0.9211
   62bbb     H8 1622   4.611   4.377   4.077  0.5663  3.7297 -3.5895
   62bbb     H9 1623   4.734   4.548   4.253 -2.5176  0.6492  3.2600
   62bbb    H10 1624   4.670   4.709   4.297  0.1568 -1.4258  1.1073
   62bbb    H11 1625   4.849   4.814   4.150 -0.4489 -0.5402  0.0208
   62bbb    H12 1626   4.906   4.654   4.108  0.2606 -0.4297 -0.3391
   62bbb    H13 1627   4.903   4.715   4.391  0.4058 -1.8725  0.5443
   62bbb    H25 1628   4.688   4.632   4.016 -2.1660 -1.6503 -1.2272
   63bbb     N1 1629   6.052   5.083   4.956 -0.5584 -0.1662 -0.5260
   63bbb     C1 1630   6.135   5.076   4.829  0.6789  0.0227  0.2529
   63bbb     C2 1631   6.081   4.961   5.046  0.3326 -0.9324 -0.1845
   63bbb     C3 1632   6.285   5.109   4.848 -0.6316  0.0070  0.7268
   63bbb     C4 1633   6.377   5.035   4.749 -0.3782 -0.4553  0.6252
   63bbb     C5 1634   6.056   5.001   5.199  0.2884  0.2142 -0.5634
   63bbb     C6 1635   6.095   4.899   5.303  0.0798  0.2752 -0.3343
   63bbb     C7 1636   5.908   5.092   4.926 -0.7022  0.0343  0.5903
   63bbb     C8 1637   5.841   4.972   4.853  0.0944 -0.3675  0.4551
   63bbb     N2 1638   5.697   4.990   4.814  0.0820  0.0607  0.8709
   63bbb     O1 1639   6.357   5.040   4.624  0.4512  0.2120 -0.1598
   63bbb     O2 1640   6.201   4.846   5.295  0.5630  0.2616 -0.0662
   63bbb     H1 1641   6.116   4.984   4.772  0.5869 -1.2107  2.1812
   63bbb     H2 1642   6.090   5.159   4.774  0.5450 -1.8864 -2.7575
   63bbb     H3 1643   6.181   4.918   5.039  1.6208  1.6922  0.6479
   63bbb     H4 1644   6.024   4.872   5.016  2.2411 -2.0764 -0.5593
   63bbb     H5 1645   6.302   5.217   4.842 -0.2833 -0.0930 -0.2157
   63bbb     H6 1646   6.319   5.078   4.948  2.7085 -1.6964 -0.7880
   63bbb     H7 1647   5.947   5.013   5.206  0.1581 -1.6042  2.1661
   63bbb     H8 1648   6.110   5.092   5.225  2.2941 -0.9094 -0.6015
   63bbb     H9 1649   5.896   5.181   4.864 -1.6805  0.3801  1.2498
   63bbb    H10 1650   5.857   5.118   5.019  0.0539  2.2457  0.4397
   63bbb    H11 1651   5.845   4.877   4.907 -4.1641 -0.3859  1.1334
   63bbb    H12 1652   5.890   4.957   4.756 -2.9067 -0.8585 -1.1138
   63bbb    H13 1653   5.633   4.983   4.892 -0.5955 -3.3801  0.1932
   63bbb    H25 1654   6.091   5.170   4.993  2.5780 -0.3399 -3.0120
   64bbb     N1 1655   4.503   4.013   4.715  0.3129 -0.0717 -0.6577
   64bbb     C1 1656   4.423   4.131   4.755  0.2351  0.2885  0.1378
   64bbb     C2 1657   4.585   3.987   4.838 -0.4579  0.6346 -0.4170
   64bbb     C3 1658   4.307   4.103   4.856 -0.7647  0.1608 -0.7651
   64bbb     C4 1659   4.187   4.049   4.803  0.3594  0.1430  0.5351
   64bbb     C5 1660   4.673   3.857   4.842 -0.2489 -0.2571  0.1244
   64bbb     C6 1661   4.693   3.820   4.986 -0.2636 -0.2609 -0.5286
   64bbb     C7 1662   4.592   4.049   4.596  0.0988  0.4540 -0.2147
   64bbb     C8 1663   4.535   4.069   4.456  0.5814  0.4573 -0.8184
   64bbb     N2 1664   4.632   4.043   4.346  0.3724 -0.5269  0.5913
   64bbb     O1 1665   4.178   3.989   4.695  0.0502  0.1783 -0.0138
   64bbb     O2 1666   4.633   3.726   5.031  0.5709 -0.4432  0.5099
   64bbb     H1 1667   4.488   4.215   4.780 -1.8998  1.8943  0.6409
   64bbb     H2 1668   4.372   4.166   4.665  2.4334  0.6398 -1.0220
   64bbb     H3 1669   4.514   3.978   4.920  2.0870 -2.2112  1.7011
   64bbb     H4 1670   4.649   4.071   4.866 -1.2256  0.9472  0.4242
   64bbb     H5 1671   4.320   4.036   4.942 -2.9325  1.6276  0.8130
   64bbb     H6 1672   4.280   4.197   4.906  0.9126 -0.5619  1.7098
   64bbb     H7 1673   4.769   3.865   4.789 -0.2558 -3.0774 -0.4992
   64bbb     H8 1674   4.609   3.786   4.788  1.0117 -1.1143 -0.2839
   64bbb     H9 1675   4.666   3.969   4.594 -0.4441 -0.0660  0.0522
   64bbb    H10 1676   4.645   4.141   4.622  0.9674  0.1392 -0.8192
   64bbb    H11 1677   4.497   4.172   4.449 -2.3709 -0.1647  3.0075
   64bbb    H12 1678   4.450   4.003   4.435 -1.5943  2.5943  0.8096
   64bbb    H13 1679   4.725   4.014   4.373  1.3536  3.2034  1.8313
   64bbb    H25 1680   4.441   3.935   4.688 -0.4681  0.2368  0.2077
   65bbb     N1 1681   5.308   3.624   3.991 -0.1024  0.3511  0.5265
   65bbb     C1 1682   5.438   3.666   4.070 -0.0555  0.6133 -0.8467
   65bbb     C2 1683   5.269   3.491   4.044 -0.1826 -0.1619  0.3145
   65bbb     C3 1684   5.493   3.800   4.016 -0.0617  0.1316 -1.0848
   65bbb     C4 1685   5.616   3.847   4.099  0.2571  0.0640  0.6155
   65bbb     C5 1686   5.215   3.500   4.192 -0.1692  0.6368  0.1682
   65bbb     C6 1687   5.150   3.372   4.236 -0.1158  0.8026  0.7407
   65bbb     C7 1688   5.336   3.606   3.842 -0.3996 -0.1786 -0.7713
   65bbb     C8 1689   5.230   3.552   3.742  0.5078  0.3154  0.4319
   65bbb     N2 1690   5.120   3.644   3.727 -0.0538 -0.2964 -0.3644
   65bbb     O1 1691   5.679   3.779   4.177  0.2772 -0.2390  0.3210
   65bbb     O2 1692   5.144   3.271   4.166 -0.4677  0.1060 -0.0614
   65bbb     H1 1693   5.402   3.675   4.173 -0.8665 -1.5574 -0.8903
   65bbb     H2 1694   5.504   3.580   4.067 -0.5837  0.2306 -2.8003
   65bbb     H3 1695   5.351   3.420   4.045 -0.7321 -0.8033  0.8898
   65bbb     H4 1696   5.187   3.465   3.976 -0.7153 -0.0663  0.9112
   65bbb     H5 1697   5.539   3.785   3.917  0.5355  1.3940 -1.0199
   65bbb     H6 1698   5.421   3.881   3.998  0.5451  1.5368  2.1835
   65bbb     H7 1699   5.150   3.587   4.207 -0.3854  1.1353 -2.9771
   65bbb     H8 1700   5.301   3.514   4.258 -0.9429  0.1618  1.3160
   65bbb     H9 1701   5.419   3.536   3.831 -1.5570 -1.9689  1.1601
   65bbb    H10 1702   5.364   3.707   3.813 -1.3411  0.6357  0.9792
   65bbb    H11 1703   5.194   3.449   3.751  0.0182  0.4397 -0.0005
   65bbb    H12 1704   5.265   3.552   3.638 -2.9502  1.8062 -0.8993
   65bbb    H13 1705   5.126   3.712   3.653 -2.6899 -0.4120 -0.7916
   65bbb    H25 1706   5.234   3.694   4.010  1.0982  1.3994  1.5244
   66bbb     N1 1707   5.764   7.166   3.142 -0.6968  0.0317 -0.4156
   66bbb     C1 1708   5.858   7.041   3.134 -0.4227 -1.1019 -0.5388
   66bbb     C2 1709   5.786   7.241   3.274 -0.4758 -0.1776 -0.1447
   66bbb     C3 1710   5.900   7.014   2.984 -0.4713 -0.0887 -0.5447
   66bbb     C4 1711   5.981   6.894   2.965  0.3033  0.6344 -0.3917
   66bbb     C5 1712   5.701   7.373   3.276  0.6628  0.4071 -0.4430
   66bbb     C6 1713   5.720   7.454   3.403 -0.2093 -0.6500  0.2675
   66bbb     C7 1714   5.617   7.121   3.130 -0.4265 -0.2412 -0.2359
   66bbb     C8 1715   5.573   7.044   3.001 -0.8407  0.5335  0.4542
   66bbb     N2 1716   5.428   7.043   2.991 -0.3948 -0.3294 -0.0327
   66bbb     O1 1717   6.076   6.883   2.888  0.5574 -0.2469  0.3625
   66bbb     O2 1718   5.813   7.445   3.473 -0.8702  0.1295 -0.0997
   66bbb     H1 1719   5.949   7.060   3.191 -0.5151  0.4886 -0.8743
   66bbb     H2 1720   5.794   6.962   3.173  1.2331 -2.2029  0.0137
   66bbb     H3 1721   5.893   7.261   3.268 -1.0072  2.9201 -0.5948
   66bbb     H4 1722   5.766   7.172   3.356 -0.8882  0.0891 -0.0187
   66bbb     H5 1723   5.815   7.007   2.915 -1.1971  1.7526  0.0949
   66bbb     H6 1724   5.958   7.101   2.952  1.8102 -0.4276  2.2363
   66bbb     H7 1725   5.592   7.356   3.276  0.1659  3.1019 -1.4680
   66bbb     H8 1726   5.725   7.430   3.185 -0.2714  0.0493 -0.9263
   66bbb     H9 1727   5.556   7.211   3.129 -0.8438 -0.5202 -0.4173
   66bbb    H10 1728   5.601   7.057   3.217 -1.6798  2.0293  1.3217
   66bbb    H11 1729   5.622   6.946   3.005  0.5286  1.0115 -2.2648
   66bbb    H12 1730   5.621   7.086   2.911 -0.1685  0.4567  0.7716
   66bbb    H13 1731   5.378   7.116   2.942  2.1735 -0.0509 -2.4873
   66bbb    H25 1732   5.787   7.215   3.054 -1.5709 -0.0204 -0.6815
   67bbb     N1 1733   5.661   6.850   2.434  0.3873 -0.0144 -0.0826
   67bbb     C1 1734   5.705   6.992   2.442 -0.3791 -0.4983  0.2218
   67bbb     C2 1735   5.662   6.796   2.286 -0.3181 -1.1939 -0.1535
   67bbb     C3 1736   5.787   7.028   2.569 -0.2679 -0.1720  0.7561
   67bbb     C4 1737   5.901   6.925   2.587 -0.4428 -1.1080  0.1829
   67bbb     C5 1738   5.798   6.809   2.205 -0.3505  0.7304  0.5996
   67bbb     C6 1739   5.909   6.727   2.263 -0.7235 -0.1243 -0.1807
   67bbb     C7 1740   5.524   6.842   2.501  0.1109 -0.2338  0.8705
   67bbb     C8 1741   5.455   6.704   2.484  0.3135 -0.2017 -0.0636
   67bbb     N2 1742   5.328   6.703   2.558  0.1346  0.3717  0.0901
   67bbb     O1 1743   5.884   6.816   2.639  0.5072 -0.0240 -0.0950
   67bbb     O2 1744   5.915   6.693   2.380 -0.0915 -0.5262 -0.3834
   67bbb     H1 1745   5.761   7.022   2.353 -1.3329 -0.4452 -0.3666
   67bbb     H2 1746   5.617   7.055   2.452  0.0968  0.1605  0.3680
   67bbb     H3 1747   5.583   6.845   2.229 -0.0637 -1.3020 -0.6053
   67bbb     H4 1748   5.626   6.693   2.290  0.3826 -1.4125  0.9058
   67bbb     H5 1749   5.822   7.132   2.565 -0.8987  0.0555  1.1128
   67bbb     H6 1750   5.730   7.026   2.662 -0.9875  3.3849  0.5306
   67bbb     H7 1751   5.825   6.915   2.197  0.5666  0.5748  1.4070
   67bbb     H8 1752   5.782   6.770   2.103 -1.1274  1.0980  0.5758
   67bbb     H9 1753   5.471   6.924   2.452  2.6182  1.3352  0.5768
   67bbb    H10 1754   5.537   6.859   2.608 -2.3207 -0.1880  1.1982
   67bbb    H11 1755   5.520   6.620   2.514  2.1337  0.4939 -1.7857
   67bbb    H12 1756   5.443   6.684   2.377  1.1890  0.1838 -0.2434
   67bbb    H13 1757   5.247   6.656   2.522 -1.2122  1.2571  1.8193
   67bbb    H25 1758   5.728   6.802   2.496 -1.4547  1.8474  3.6869
   68bbb     N1 1759   5.748   6.086   4.491 -0.4783  0.3657 -0.5805
   68bbb     C1 1760   5.825   6.109   4.361 -0.2727 -0.0021  0.1313
   68bbb     C2 1761   5.854   6.060   4.604  0.2103 -0.0896 -0.2037
   68bbb     C3 1762   5.869   6.252   4.331  0.5739  0.6603  0.5597
   68bbb     C4 1763   5.746   6.338   4.285  0.2094  0.2913  0.6110
   68bbb     C5 1764   5.807   6.056   4.756 -0.6307 -0.3380 -0.3521
   68bbb     C6 1765   5.708   6.165   4.797 -0.3330  0.2435  0.2762
   68bbb     C7 1766   5.648   5.970   4.476 -0.0872  0.1335  0.5603
   68bbb     C8 1767   5.504   6.008   4.432  0.4415  0.2155  0.0383
   68bbb     N2 1768   5.446   6.090   4.541 -0.4863 -0.2729  0.0416
   68bbb     O1 1769   5.624   6.310   4.300 -0.0412  0.4437 -0.5747
   68bbb     O2 1770   5.653   6.233   4.715 -0.4183  0.6437  0.7363
   68bbb     H1 1771   5.915   6.051   4.385 -1.6468 -1.8998  1.0164
   68bbb     H2 1772   5.772   6.070   4.274  0.1984 -1.2271  0.3642
   68bbb     H3 1773   5.920   6.145   4.592  0.1091 -0.0856 -0.7340
   68bbb     H4 1774   5.919   5.975   4.580  0.6499  0.2587 -0.2453
   68bbb     H5 1775   5.911   6.301   4.420  0.0980  3.4981 -0.6539
   68bbb     H6 1776   5.942   6.242   4.249 -2.1841 -0.2759 -1.9459
   68bbb     H7 1777   5.895   6.078   4.819 -1.1232 -0.9560  0.5679
   68bbb     H8 1778   5.772   5.955   4.781  2.0546 -0.7573  2.3601
   68bbb     H9 1779   5.633   5.932   4.577 -1.5203  0.7399  0.5993
   68bbb    H10 1780   5.688   5.890   4.413  1.0667  2.0438 -1.2601
   68bbb    H11 1781   5.439   5.921   4.418  0.5008  0.1148  0.3839
   68bbb    H12 1782   5.500   6.064   4.338 -2.8558  1.0284  0.5451
   68bbb    H13 1783   5.503   6.106   4.623 -1.1470  1.2932  0.2285
   68bbb    H25 1784   5.693   6.171   4.511 -2.1887 -0.8497  0.1889
   69bbb     N1 1785   6.120   6.780   4.465  0.0506 -0.2044  0.2277
   69bbb     C1 1786   6.216   6.678   4.520 -0.6098 -0.2960  0.1382
   69bbb     C2 1787   6.190   6.911   4.459  0.6887 -0.0460 -0.0607
   69bbb     C3 1788   6.306   6.590   4.427 -0.9423  0.0998  0.2727
   69bbb     C4 1789   6.232   6.473   4.360 -0.0806  0.1271 -0.0821
   69bbb     C5 1790   6.111   7.042   4.430  0.3058  0.2329  0.8952
   69bbb     C6 1791   6.192   7.168   4.445 -0.1824 -0.1785  0.4030
   69bbb     C7 1792   5.993   6.784   4.546 -0.2511 -0.4508 -0.0234
   69bbb     C8 1793   5.908   6.663   4.528  0.4946  0.5051 -0.2651
   69bbb     N2 1794   5.781   6.680   4.606 -0.0149  0.4345  0.5325
   69bbb     O1 1795   6.113   6.452   4.381  0.2100 -0.4950 -0.2907
   69bbb     O2 1796   6.300   7.164   4.501 -0.0801 -0.2562  0.4590
   69bbb     H1 1797   6.274   6.730   4.597 -1.4472  1.0035 -0.0818
   69bbb     H2 1798   6.158   6.609   4.582 -1.6138  0.0178 -0.4409
   69bbb     H3 1799   6.283   6.902   4.402  1.3979  3.0637  0.3930
   69bbb     H4 1800   6.237   6.924   4.557  1.4134  0.6448 -0.4824
   69bbb     H5 1801   6.354   6.656   4.354 -2.0090  1.2628  0.5948
   69bbb     H6 1802   6.379   6.545   4.495 -0.5724 -0.2296 -0.3308
   69bbb     H7 1803   6.026   7.051   4.499 -0.6648  0.6324 -0.3079
   69bbb     H8 1804   6.073   7.039   4.327  1.6580  0.1658  0.3806
   69bbb     H9 1805   5.933   6.864   4.504 -0.0106 -1.4997 -2.5045
   69bbb    H10 1806   6.020   6.799   4.651  2.0830 -0.6078 -0.5583
   69bbb    H11 1807   5.951   6.570   4.565 -0.3314  0.5299  0.8326
   69bbb    H12 1808   5.870   6.645   4.427  2.7475  1.4864 -1.3399
   69bbb    H13 1809   5.771   6.769   4.654 -1.0200  0.9046 -0.5003
   69bbb    H25 1810   6.096   6.745   4.371 -0.2286  2.1318 -0.6257
   70bbb     N1 1811   7.419   3.884   2.637  0.6863  0.2612 -0.5843
   70bbb     C1 1812   7.295   3.891   2.551  0.3049  0.0833  0.1677
   70bbb     C2 1813   7.535   3.945   2.562 -0.0306  0.6575  0.1862
   70bbb     C3 1814   7.288   3.791   2.434 -0.2842  0.0751  0.4139
   70bbb     C4 1815   7.156   3.799   2.360  0.0064  0.2971 -0.9339
   70bbb     C5 1816   7.546   4.102   2.556 -0.8276 -1.2116 -0.4053
   70bbb     C6 1817   7.688   4.145   2.519 -0.2915 -0.0650 -0.6357
   70bbb     C7 1818   7.388   3.951   2.764 -0.2816  0.0966  0.1345
   70bbb     C8 1819   7.313   3.876   2.875  0.6580 -0.1779 -0.5672
   70bbb     N2 1820   7.415   3.794   2.949  0.3241 -1.0886 -0.4446
   70bbb     O1 1821   7.066   3.875   2.389 -0.3108  0.3797  0.1556
   70bbb     O2 1822   7.780   4.062   2.500 -0.3199  0.0058 -0.7968
   70bbb     H1 1823   7.208   3.876   2.614 -0.9379  1.2132 -1.1990
   70bbb     H2 1824   7.291   3.992   2.509 -0.6849  0.4039  0.9847
   70bbb     H3 1825   7.526   3.902   2.463 -0.3452  0.6557  0.2151
   70bbb     H4 1826   7.620   3.900   2.614 -0.5968 -1.3320 -0.5310
   70bbb     H5 1827   7.366   3.794   2.357  0.8904 -1.7569  1.4561
   70bbb     H6 1828   7.305   3.693   2.481 -1.2152  0.0646  0.7544
   70bbb     H7 1829   7.510   4.154   2.645 -0.8518 -0.3862 -0.8857
   70bbb     H8 1830   7.488   4.144   2.473  0.2675  0.0717 -0.5508
   70bbb     H9 1831   7.333   4.043   2.738  1.0717  0.5835 -1.1558
   70bbb    H10 1832   7.474   3.987   2.821  0.5222 -2.6469  0.8039
   70bbb    H11 1833   7.231   3.813   2.838  1.6169 -0.9025 -1.5218
   70bbb    H12 1834   7.269   3.950   2.942 -0.6162 -0.9626 -0.4991
   70bbb    H13 1835   7.498   3.845   2.978  0.8509 -1.5253 -1.1478
   70bbb    H25 1836   7.430   3.785   2.663 -1.1350  0.2174  0.1495
   71bbb     N1 1837   8.254   3.661   3.533 -0.0059 -0.5240  0.0432
   71bbb     C1 1838   8.366   3.593   3.605  0.4557  0.7227 -0.4098
   71bbb     C2 1839   8.307   3.806   3.495 -1.3363  0.1895 -0.3013
   71bbb     C3 1840   8.360   3.439   3.594  0.2250 -0.1683 -0.4856
   71bbb     C4 1841   8.501   3.383   3.636 -0.7035  0.7743  0.3230
   71bbb     C5 1842   8.323   3.904   3.612  0.1126 -0.4145  0.1844
   71bbb     C6 1843   8.402   4.030   3.563 -0.1233 -0.1352  0.0457
   71bbb     C7 1844   8.120   3.676   3.602  0.2937  0.2765 -0.0417
   71bbb     C8 1845   8.003   3.701   3.506  0.1433  0.0875  0.3028
   71bbb     N2 1846   7.948   3.575   3.455  0.1261 -0.4449 -0.5923
   71bbb     O1 1847   8.606   3.449   3.638  0.0642  0.0894 -0.6159
   71bbb     O2 1848   8.359   4.104   3.475  0.7270  0.2060 -0.4808
   71bbb     H1 1849   8.455   3.631   3.555  2.2523 -0.2791  1.8484
   71bbb     H2 1850   8.367   3.622   3.710 -1.2353  1.5797 -0.5967
   71bbb     H3 1851   8.249   3.856   3.416 -0.8413  0.5960 -0.4188
   71bbb     H4 1852   8.407   3.794   3.454 -0.5638  4.2640 -0.0841
   71bbb     H5 1853   8.284   3.388   3.656  0.5199 -2.4866 -1.8895
   71bbb     H6 1854   8.338   3.400   3.494  0.0036 -3.1194  0.5952
   71bbb     H7 1855   8.369   3.845   3.692 -1.5236 -1.9906  0.0361
   71bbb     H8 1856   8.221   3.932   3.642 -0.1951 -1.2231 -0.0621
   71bbb     H9 1857   8.133   3.758   3.673  1.1345  0.4172 -0.3554
   71bbb    H10 1858   8.105   3.588   3.666  1.0371 -0.1162 -0.3925
   71bbb    H11 1859   8.049   3.757   3.424  0.3977 -1.1200 -0.3969
   71bbb    H12 1860   7.926   3.761   3.557 -1.5013 -0.5953 -1.2972
   71bbb    H13 1861   8.020   3.516   3.416  0.7506 -0.4270  0.4994
   71bbb    H25 1862   8.238   3.612   3.443 -0.8766  0.4552 -0.3597
   72bbb     N1 1863   5.719   2.979   3.604  0.2630  0.0027  0.2682
   72bbb     C1 1864   5.771   3.013   3.459 -0.2227  0.4804  0.4533
   72bbb     C2 1865   5.592   2.891   3.610 -0.1978  0.3970 -0.3603
   72bbb     C3 1866   5.816   2.890   3.372  0.6739  1.0497  0.7071
   72bbb     C4 1867   5.933   2.807   3.448  0.6506 -0.3040  0.4807
   72bbb     C5 1868   5.605   2.752   3.670 -0.0135 -0.4537 -0.4425
   72bbb     C6 1869   5.621   2.755   3.823 -0.5710  0.2903 -0.6786
   72bbb     C7 1870   5.682   3.110   3.673 -0.2213  0.0946 -0.5571
   72bbb     C8 1871   5.794   3.211   3.718  0.5148  0.1645 -0.0081
   72bbb     N2 1872   5.891   3.128   3.796 -0.2303 -0.5874  0.2117
   72bbb     O1 1873   5.961   2.821   3.563 -0.1595  0.0129  0.2390
   72bbb     O2 1874   5.673   2.853   3.877 -0.3586  0.3679 -0.0189
   72bbb     H1 1875   5.694   3.069   3.407 -2.0877 -2.2401  0.0982
   72bbb     H2 1876   5.863   3.071   3.471 -1.0993  1.6287  1.9947
   72bbb     H3 1877   5.566   2.877   3.505 -0.6879  1.2129 -0.3528
   72bbb     H4 1878   5.514   2.942   3.667  0.3841 -1.0351  1.8895
   72bbb     H5 1879   5.735   2.819   3.352  0.6689  1.3384 -0.3655
   72bbb     H6 1880   5.864   2.913   3.277 -1.6407 -3.2763 -1.8092
   72bbb     H7 1881   5.678   2.693   3.613 -0.4133 -0.0393 -1.4090
   72bbb     H8 1882   5.522   2.687   3.640  0.4193 -0.1748 -2.3737
   72bbb     H9 1883   5.632   3.078   3.764 -0.9897 -0.0029 -1.0005
   72bbb    H10 1884   5.598   3.160   3.623 -1.5735  2.5497  3.6795
   72bbb    H11 1885   5.748   3.292   3.776 -1.5945 -1.4546  0.7073
   72bbb    H12 1886   5.839   3.244   3.623  0.0612 -2.0789 -1.0581
   72bbb    H13 1887   5.873   3.119   3.896 -0.1812 -3.3253  0.0401
   72bbb    H25 1888   5.784   2.924   3.661  0.8715  1.0689  0.6456
   73bbb     N1 1889   6.370   2.137   3.976  0.2654 -0.4336 -0.9631
   73bbb     C1 1890   6.419   2.106   3.834 -0.6104  0.5204  0.0354
   73bbb     C2 1891   6.218   2.101   3.990 -0.1775  0.0671  0.1562
   73bbb     C3 1892   6.443   1.954   3.804  0.0230 -0.5666 -0.1109
   73bbb     C4 1893   6.475   1.939   3.651 -0.0499  0.0336 -0.0643
   73bbb     C5 1894   6.181   2.033   4.122 -0.8235  0.4144  0.2091
   73bbb     C6 1895   6.248   1.896   4.132 -0.0902 -0.4280  0.3971
   73bbb     C7 1896   6.386   2.288   4.000  0.2416  0.1453  0.1626
   73bbb     C8 1897   6.360   2.378   3.874  1.2326 -1.1474  0.3530
   73bbb     N2 1898   6.363   2.523   3.890  0.3669  0.5591 -0.2771
   73bbb     O1 1899   6.416   1.997   3.567  0.4578 -0.3205  0.1043
   73bbb     O2 1900   6.367   1.881   4.116 -0.2426 -0.0113  0.4009
   73bbb     H1 1901   6.339   2.143   3.769 -2.1646 -0.7015  1.1607
   73bbb     H2 1902   6.510   2.164   3.816  0.6214 -1.7730 -1.5961
   73bbb     H3 1903   6.205   2.029   3.909  0.2907 -0.8827  0.8988
   73bbb     H4 1904   6.155   2.188   3.969  0.0163 -0.3266 -2.4767
   73bbb     H5 1905   6.523   1.915   3.869  0.9728  2.1632  0.4851
   73bbb     H6 1906   6.349   1.898   3.814 -1.0235  1.1468 -0.0011
   73bbb     H7 1907   6.073   2.020   4.127 -0.7821 -0.2707 -0.5525
   73bbb     H8 1908   6.210   2.098   4.206 -2.3932  0.4540  0.7425
   73bbb     H9 1909   6.489   2.295   4.035  0.7356 -0.7971 -1.0324
   73bbb    H10 1910   6.316   2.318   4.078 -0.2625  1.5579 -0.7926
   73bbb    H11 1911   6.260   2.364   3.831  0.8040  1.8335  0.1745
   73bbb    H12 1912   6.428   2.357   3.791  1.0637  2.3284 -0.8295
   73bbb    H13 1913   6.346   2.566   3.980 -1.0689 -0.2575 -0.1354
   73bbb    H25 1914   6.426   2.084   4.044  3.7620  1.9656 -1.7184
   74bbb     N1 1915   7.889   5.355   4.089 -0.0737 -0.1684  0.6870
   74bbb     C1 1916   7.881   5.208   4.123  0.1628 -0.4831 -0.0554
   74bbb     C2 1917   7.966   5.438   4.199  0.2326  0.0476  0.3156
   74bbb     C3 1918   7.817   5.105   4.021 -0.6854 -0.0926 -0.2764
   74bbb     C4 1919   7.935   5.050   3.937 -0.2965  0.1048  0.2943
   74bbb     C5 1920   8.113   5.392   4.193  0.2959 -0.3302 -0.5779
   74bbb     C6 1921   8.197   5.488   4.272 -0.5915  0.3788 -0.2826
   74bbb     C7 1922   7.748   5.408   4.084 -0.1889 -0.6666  0.0295
   74bbb     C8 1923   7.719   5.557   4.049  0.0788  0.1563  0.1440
   74bbb     N2 1924   7.580   5.596   4.066  0.3802 -0.1896 -0.3327
   74bbb     O1 1925   8.053   5.036   3.979  0.0153 -0.8469 -0.4389
   74bbb     O2 1926   8.263   5.441   4.361 -0.6028  0.9239  0.1093
   74bbb     H1 1927   7.984   5.180   4.147 -0.6436 -2.6023  1.1687
   74bbb     H2 1928   7.821   5.205   4.214 -0.9784 -0.8898 -0.8073
   74bbb     H3 1929   7.926   5.414   4.297 -1.5130 -1.4825 -0.6965
   74bbb     H4 1930   7.949   5.544   4.181  1.2334  0.2710  0.6053
   74bbb     H5 1931   7.776   5.016   4.069 -0.3333 -0.9197 -1.4641
   74bbb     H6 1932   7.744   5.156   3.957 -1.0768  0.8904  0.9329
   74bbb     H7 1933   8.139   5.398   4.087 -0.9613  4.3664 -0.8296
   74bbb     H8 1934   8.133   5.290   4.228 -0.2180 -0.0007  0.7505
   74bbb     H9 1935   7.710   5.382   4.183  1.2982 -1.0590  0.5314
   74bbb    H10 1936   7.696   5.351   4.008  0.6090  0.0529 -1.0872
   74bbb    H11 1937   7.755   5.566   3.946 -1.9410  0.8747 -0.5555
   74bbb    H12 1938   7.780   5.627   4.107 -0.2689 -0.9345  1.9206
   74bbb    H13 1939   7.559   5.666   4.136 -0.4878 -0.0762 -0.6857
   74bbb    H25 1940   7.937   5.367   3.998 -0.4017  1.1985  0.6668
   75bbb     N1 1941   7.101   6.234   3.870  0.4083  0.1452 -0.3704
   75bbb     C1 1942   7.151   6.359   3.944 -1.1945  0.7574 -0.1395
   75bbb     C2 1943   6.980   6.285   3.788  0.1106  0.8871  0.2243
   75bbb     C3 1944   7.245   6.448   3.859  0.4550  0.2953  0.1133
   75bbb     C4 1945   7.378   6.380   3.839 -0.3577  0.1795  0.1255
   75bbb     C5 1946   6.930   6.194   3.673  0.1777  0.1621 -0.1008
   75bbb     C6 1947   7.030   6.165   3.561  0.3288 -0.3502 -0.8449
   75bbb     C7 1948   7.034   6.133   3.962 -0.3668  0.3601 -0.0408
   75bbb     C8 1949   7.130   6.037   4.032 -0.3106 -0.5963  0.1233
   75bbb     N2 1950   7.058   5.928   4.090  0.1409  0.3999 -0.1216
   75bbb     O1 1951   7.396   6.259   3.832  0.2430  0.1597  0.4786
   75bbb     O2 1952   7.138   6.216   3.567  0.0984 -0.4448 -0.2975
   75bbb     H1 1953   7.072   6.412   4.000 -0.7965  0.2797  0.9002
   75bbb     H2 1954   7.208   6.312   4.024 -3.2962 -1.7300  0.0387
   75bbb     H3 1955   7.001   6.384   3.747  1.4963  0.5697  0.1296
   75bbb     H4 1956   6.899   6.306   3.859 -0.9710  1.3744 -1.1071
   75bbb     H5 1957   7.206   6.469   3.759 -1.0191  2.1084  1.0115
   75bbb     H6 1958   7.255   6.541   3.915  0.0009  0.9708 -0.9029
   75bbb     H7 1959   6.852   6.254   3.623 -1.5678 -2.5428 -0.8330
   75bbb     H8 1960   6.878   6.101   3.697 -0.8137  0.4692 -0.9639
   75bbb     H9 1961   6.977   6.068   3.896  1.2510 -0.1895 -0.9590
   75bbb    H10 1962   6.971   6.181   4.037 -0.3224  2.1096 -1.0611
   75bbb    H11 1963   7.188   6.081   4.115  2.5616 -2.6680 -0.6421
   75bbb    H12 1964   7.206   6.001   3.962 -0.1489 -0.1836  0.0831
   75bbb    H13 1965   7.045   5.932   4.190  1.0555  0.2477  0.0118
   75bbb    H25 1966   7.174   6.188   3.814  0.7471 -1.1289  1.0865
   76bbb     N1 1967   7.052   3.423   4.364  0.7781 -0.4473 -0.3288
   76bbb     C1 1968   7.066   3.272   4.363  0.5240 -0.2749 -0.0467
   76bbb     C2 1969   7.045   3.479   4.222  0.4817  0.4545 -0.4846
   76bbb     C3 1970   7.063   3.213   4.504  0.0374 -0.0199 -0.4554
   76bbb     C4 1971   6.942   3.237   4.591  0.0287  0.5057 -0.1120
   76bbb     C5 1972   6.906   3.475   4.143 -0.2278  0.5831 -0.3667
   76bbb     C6 1973   6.788   3.549   4.197 -0.5094 -0.1325  0.7671
   76bbb     C7 1974   7.156   3.508   4.444  0.1606  0.6192  0.3512
   76bbb     C8 1975   7.126   3.656   4.483  0.3996 -0.4990 -0.5719
   76bbb     N2 1976   7.172   3.760   4.394  0.2664 -0.0335  0.4813
   76bbb     O1 1977   6.847   3.311   4.570  0.0227  0.0728 -0.0405
   76bbb     O2 1978   6.794   3.619   4.295  0.0152 -0.0866 -0.3468
   76bbb     H1 1979   6.979   3.234   4.309 -0.2528 -1.4362  1.8959
   76bbb     H2 1980   7.162   3.245   4.319  0.6586  0.5877 -0.2947
   76bbb     H3 1981   7.116   3.417   4.167  2.2281  2.6635 -0.8556
   76bbb     H4 1982   7.088   3.579   4.217  0.6668  0.3354 -1.4779
   76bbb     H5 1983   7.083   3.105   4.494  0.6201  0.1305 -1.0065
   76bbb     H6 1984   7.150   3.247   4.563 -0.1724 -0.1121 -0.0880
   76bbb     H7 1985   6.881   3.369   4.128 -0.1450  0.6760 -1.2077
   76bbb     H8 1986   6.902   3.523   4.044 -1.4155  0.9756 -0.1452
   76bbb     H9 1987   7.249   3.501   4.387  0.6190 -1.3442  1.2547
   76bbb    H10 1988   7.176   3.462   4.541  1.9988  2.6172  0.9939
   76bbb    H11 1989   7.186   3.685   4.570 -2.2881  1.4514  0.8095
   76bbb    H12 1990   7.021   3.671   4.513  0.9619 -1.1025  1.9334
   76bbb    H13 1991   7.217   3.735   4.307 -1.8850  1.0864 -1.0311
   76bbb    H25 1992   6.963   3.444   4.411 -0.1097 -0.9636 -1.7106
   77bbb     N1 1993   7.730   4.341   4.788  0.0859  0.3339  0.4320
   77bbb     C1 1994   7.619   4.396   4.870  0.0251 -0.2530  0.0360
   77bbb     C2 1995   7.833   4.269   4.880 -0.0808  0.5894  0.3882
   77bbb     C3 1996   7.534   4.284   4.948  0.1946 -0.2700  0.2825
   77bbb     C4 1997   7.449   4.193   4.851 -0.3085  0.3865  0.9071
   77bbb     C5 1998   7.836   4.111   4.867 -0.3004  0.1923  0.0403
   77bbb     C6 1999   7.905   4.078   4.739  0.2007  0.5504  0.5137
   77bbb     C7 2000   7.796   4.466   4.718  0.3522  0.7039 -0.1060
   77bbb     C8 2001   7.711   4.524   4.603 -0.4370 -0.2218  1.2185
   77bbb     N2 2002   7.642   4.429   4.516  0.4311 -0.2999  0.9286
   77bbb     O1 2003   7.492   4.169   4.741 -0.8315  0.0829 -0.1365
   77bbb     O2 2004   7.880   4.131   4.636 -0.1812 -0.2692 -0.4094
   77bbb     H1 2005   7.660   4.461   4.948 -2.2619  0.8108  0.4428
   77bbb     H2 2006   7.547   4.452   4.810 -1.7914 -0.3153  2.0006
   77bbb     H3 2007   7.811   4.296   4.983 -1.2986 -0.5960  0.4531
   77bbb     H4 2008   7.935   4.304   4.859 -0.1780  1.3320  1.0787
   77bbb     H5 2009   7.599   4.225   5.013  0.1807 -0.7748 -0.1508
   77bbb     H6 2010   7.465   4.340   5.012  1.2996  0.0577  1.2072
   77bbb     H7 2011   7.735   4.069   4.868  0.2547 -1.2480  2.0668
   77bbb     H8 2012   7.887   4.074   4.957 -0.7992 -1.3717 -0.2900
   77bbb     H9 2013   7.897   4.435   4.690  0.5863  0.5287  0.8799
   77bbb    H10 2014   7.804   4.541   4.798  0.2479 -0.1815  0.7507
   77bbb    H11 2015   7.776   4.589   4.542 -1.0272  0.6697  1.5246
   77bbb    H12 2016   7.639   4.591   4.650 -1.4675  0.8923 -1.6942
   77bbb    H13 2017   7.675   4.335   4.496 -1.1920 -0.3450 -2.1506
   77bbb    H25 2018   7.707   4.269   4.718  1.9850 -0.6354  0.7272
   78bbb     N1 2019   4.322   6.146   0.324 -0.5541 -0.1300 -0.6965
   78bbb     C1 2020   4.430   6.140   0.433  0.2747 -0.0493  0.1560
   78bbb     C2 2021   4.386   6.140   0.178 -0.9873  0.6549 -0.2271
   78bbb     C3 2022   4.376   6.141   0.577  0.3914 -0.2250  0.1916
   78bbb     C4 2023   4.479   6.148   0.695  0.0430  0.8589  0.0281
   78bbb     C5 2024   4.459   6.003   0.140  0.2094 -0.2605 -0.0328
   78bbb     C6 2025   4.528   6.009   0.004 -1.3193 -0.2887 -0.0566
   78bbb     C7 2026   4.239   6.278   0.339 -0.0153 -0.0940  0.8322
   78bbb     C8 2027   4.118   6.298   0.240 -0.8074  0.2960 -0.8999
   78bbb     N2 2028   4.012   6.213   0.284  0.2744  1.0572  0.5467
   78bbb     O1 2029   4.597   6.136   0.667 -0.0066  0.1234 -0.0526
   78bbb     O2 2030   4.581   6.110  -0.040 -0.6163 -0.1040 -0.1116
   78bbb     H1 2031   4.474   6.042   0.413 -1.1359 -1.2055  2.2554
   78bbb     H2 2032   4.510   6.211   0.416 -0.6982  0.9165 -0.5204
   78bbb     H3 2033   4.455   6.223   0.166 -2.0692  1.3823 -1.7219
   78bbb     H4 2034   4.311   6.152   0.100  1.4004  0.3638 -2.7266
   78bbb     H5 2035   4.315   6.229   0.597  2.0374  2.0389 -3.6397
   78bbb     H6 2036   4.307   6.057   0.592  0.6191 -0.2235  1.3148
   78bbb     H7 2037   4.384   5.924   0.128 -0.5185  0.3266  0.5015
   78bbb     H8 2038   4.526   5.967   0.220 -0.0854 -1.2876 -0.2381
   78bbb     H9 2039   4.317   6.354   0.346  0.7071 -0.9891  3.6804
   78bbb    H10 2040   4.204   6.272   0.442  0.0604 -1.4684  0.7956
   78bbb    H11 2041   4.145   6.269   0.137 -2.0076 -0.1615 -1.0998
   78bbb    H12 2042   4.078   6.400   0.235 -0.6256  0.4311  0.1451
   78bbb    H13 2043   4.014   6.181   0.380 -0.5943  0.5233  0.3934
   78bbb    H25 2044   4.259   6.069   0.349  1.6878 -0.7574  3.9440
   79bbb     N1 2045   2.958   6.521   0.261  0.0097  0.2035 -0.0065
   79bbb     C1 2046   2.866   6.450   0.154 -0.1093  0.1103 -0.1038
   79bbb     C2 2047   2.999   6.664   0.220  0.0463  0.4544 -0.4303
   79bbb     C3 2048   2.729   6.521   0.143 -0.4485  0.0998  0.5450
   79bbb     C4 2049   2.629   6.422   0.074 -0.2042 -0.3528  0.2564
   79bbb     C5 2050   3.083   6.683   0.093  0.3954  0.5232  0.8441
   79bbb     C6 2051   3.162   6.812   0.096  0.9935 -0.2693  0.5411
   79bbb     C7 2052   3.088   6.444   0.283  0.0657 -0.2183 -0.5984
   79bbb     C8 2053   3.091   6.312   0.348 -0.5790 -0.1304 -0.2475
   79bbb     N2 2054   3.233   6.268   0.359  0.2807  0.6565  0.1464
   79bbb     O1 2055   2.519   6.392   0.126  0.5433 -0.0657 -0.1146
   79bbb     O2 2056   3.140   6.895   0.181 -0.0021  0.1389 -0.1857
   79bbb     H1 2057   2.922   6.440   0.061 -0.9747 -0.4903 -0.5745
   79bbb     H2 2058   2.851   6.354   0.204 -0.9418  0.5339  0.4900
   79bbb     H3 2059   3.038   6.718   0.307 -2.9341  2.4453 -0.1758
   79bbb     H4 2060   2.906   6.718   0.201  0.6520  1.3039 -1.0809
   79bbb     H5 2061   2.681   6.546   0.238 -1.3646 -1.1574  0.4340
   79bbb     H6 2062   2.732   6.613   0.083  1.2175  0.4645  1.1410
   79bbb     H7 2063   3.023   6.693   0.001  1.8503  0.8228 -0.1084
   79bbb     H8 2064   3.155   6.602   0.077 -0.1822  0.0719  0.4884
   79bbb     H9 2065   3.143   6.502   0.357  2.7649 -3.9671  0.5890
   79bbb    H10 2066   3.146   6.441   0.191  0.0793 -1.0929 -0.5712
   79bbb    H11 2067   3.028   6.242   0.292 -1.1962  0.8187 -0.7676
   79bbb    H12 2068   3.044   6.317   0.446 -1.8105 -0.1171 -0.8230
   79bbb    H13 2069   3.299   6.325   0.411  1.3615 -1.2324  0.9389
   79bbb    H25 2070   2.913   6.524   0.353 -1.3844  0.3484 -0.6693
   80bbb     N1 2071   3.206   4.859   0.276  0.2343  0.2008 -0.2917
   80bbb     C1 2072   3.070   4.915   0.315 -0.2647 -0.3047 -0.0817
   80bbb     C2 2073   3.245   4.923   0.139  0.4409 -0.3344 -0.1070
   80bbb     C3 2074   3.039   4.899   0.468  0.0257  0.6819  0.2019
   80bbb     C4 2075   2.908   4.976   0.500 -0.7262 -0.1592  0.1465
   80bbb     C5 2076   3.261   5.076   0.123  0.0991  0.0192 -0.3305
   80bbb     C6 2077   3.129   5.129   0.072 -0.2889  0.0515 -0.7118
   80bbb     C7 2078   3.190   4.705   0.271 -0.1319  0.3002  0.1134
   80bbb     C8 2079   3.321   4.627   0.245  0.3162  0.1689 -0.3214
   80bbb     N2 2080   3.399   4.611   0.364 -0.2695  0.5095  0.3768
   80bbb     O1 2081   2.846   5.040   0.419  0.3704  0.4399 -0.1344
   80bbb     O2 2082   3.088   5.101  -0.036  0.0891  0.1293 -0.6917
   80bbb     H1 2083   3.073   5.023   0.306  0.9437 -0.4666 -2.5070
   80bbb     H2 2084   2.994   4.871   0.250  0.7942 -2.0913 -0.1793
   80bbb     H3 2085   3.175   4.896   0.059 -1.2152 -1.1781  1.5553
   80bbb     H4 2086   3.336   4.866   0.121 -0.3135 -1.8071  0.6186
   80bbb     H5 2087   3.016   4.795   0.494 -1.5055  0.5191 -1.5429
   80bbb     H6 2088   3.125   4.935   0.524  0.4313 -1.5997  1.1173
   80bbb     H7 2089   3.340   5.080   0.047 -0.2394 -2.2454 -0.8821
   80bbb     H8 2090   3.294   5.126   0.215  0.0227  1.0493 -0.8465
   80bbb     H9 2091   3.114   4.691   0.194  0.5751  2.5363 -1.0624
   80bbb    H10 2092   3.146   4.672   0.365 -0.8312 -0.6299 -0.5243
   80bbb    H11 2093   3.384   4.677   0.171  0.3568 -0.4317 -0.7073
   80bbb    H12 2094   3.290   4.529   0.205  0.0653  1.3264 -3.2688
   80bbb    H13 2095   3.396   4.525   0.418  1.5508  0.6954  0.8512
   80bbb    H25 2096   3.270   4.888   0.351  0.1548  0.0497 -0.1645
   81bbb     N1 2097   4.262   4.993  -0.303  0.7057  0.2798  0.7150
   81bbb     C1 2098   4.382   4.977  -0.203  0.5848 -0.0145 -0.5969
   81bbb     C2 2099   4.239   5.106  -0.541  0.2095  0.3111  0.6075
   81bbb     C3 2100   4.471   4.850  -0.195  0.2165 -0.1806  0.2590
   81bbb     C4 2101   4.569   4.844  -0.076 -0.3697  0.0157  0.4967
   81bbb     C5 2102   4.124   5.127  -0.653  0.2139  0.1873  0.2247
   81bbb     C6 2103   4.167   5.212  -0.772  0.3549 -0.4492  0.3678
   81bbb     C7 2104   4.154   4.976  -0.180  0.4467  0.4336  0.0006
   81bbb     C8 2105   4.150   4.845  -0.090  0.0816 -0.2643  0.0388
   81bbb     N2 2106   4.043   4.863   0.012  0.2628  0.4376 -0.8262
   81bbb     O1 2107   4.619   4.939  -0.018 -0.1793 -0.0284 -0.3767
   81bbb     O2 2108   4.241   5.305  -0.758  0.6172  0.0955  0.2104
   81bbb     H1 2109   4.444   5.066  -0.194  2.8337 -1.4559 -0.9764
   81bbb     H2 2110   4.338   4.967  -0.103  1.3476 -1.9079 -0.4092
   81bbb     H3 2111   4.319   5.079  -0.610 -0.0770  0.6500  0.1310
   81bbb     H4 2112   4.263   5.213  -0.544 -0.3561  0.4348 -2.1865
   81bbb     H5 2113   4.404   4.764  -0.195 -2.1976  1.5794 -0.1190
   81bbb     H6 2114   4.539   4.853  -0.281 -1.5912  0.4808 -1.2136
   81bbb     H7 2115   4.039   5.172  -0.600  0.9977 -0.1367  1.8379
   81bbb     H8 2116   4.085   5.038  -0.703  0.0778  0.1981  0.3090
   81bbb     H9 2117   4.056   4.980  -0.227  0.0163  0.4064  0.8865
   81bbb    H10 2118   4.172   5.068  -0.123  0.9015  2.3447 -2.9972
   81bbb    H11 2119   4.245   4.827  -0.037 -1.1958  0.1546  2.6305
   81bbb    H12 2120   4.129   4.759  -0.154  2.4698 -1.3793  0.6364
   81bbb    H13 2121   3.971   4.934   0.003  0.6892  0.7742 -1.6823
   81bbb    H25 2122   4.269   4.895  -0.335 -0.0523  0.5358 -0.3091
   82bbb     N1 2123   5.811   6.697   0.557  0.0015  0.6470 -0.5423
   82bbb     C1 2124   5.664   6.735   0.532  0.0582  0.5270  0.3835
   82bbb     C2 2125   5.891   6.817   0.531 -0.0302  0.0524 -0.1845
   82bbb     C3 2126   5.604   6.793   0.658  0.0442 -0.3934 -0.4740
   82bbb     C4 2127   5.451   6.795   0.650 -0.2153 -0.3424 -0.2395
   82bbb     C5 2128   6.044   6.802   0.562  0.4389  0.3933 -0.3593
   82bbb     C6 2129   6.119   6.929   0.565  0.5450  0.1482 -0.4210
   82bbb     C7 2130   5.852   6.579   0.470 -0.3511 -0.0445 -0.6036
   82bbb     C8 2131   5.788   6.444   0.504 -0.5086  0.9364 -0.7965
   82bbb     N2 2132   5.767   6.411   0.644  0.0608  0.2711 -0.7445
   82bbb     O1 2133   5.396   6.771   0.544 -0.2237 -0.1529 -0.1092
   82bbb     O2 2134   6.101   7.011   0.657 -0.2858  1.0041  0.1250
   82bbb     H1 2135   5.656   6.804   0.448 -2.3306  0.4445  0.4859
   82bbb     H2 2136   5.602   6.649   0.506  1.2839 -0.6848  1.3042
   82bbb     H3 2137   5.850   6.889   0.602 -1.7037 -0.6931 -0.3323
   82bbb     H4 2138   5.873   6.848   0.428 -0.4215 -1.6689 -0.6690
   82bbb     H5 2139   5.637   6.725   0.738  2.3528 -0.0976 -1.1234
   82bbb     H6 2140   5.643   6.894   0.673 -1.4548  0.0204  0.9589
   82bbb     H7 2141   6.094   6.743   0.484  1.1628  1.4773 -0.7505
   82bbb     H8 2142   6.062   6.748   0.655  1.3020  0.4502 -0.4823
   82bbb     H9 2143   5.959   6.573   0.490  0.0085  3.5712 -0.7605
   82bbb    H10 2144   5.843   6.610   0.365 -1.3212 -0.8100 -0.7618
   82bbb    H11 2145   5.858   6.369   0.465 -0.6524 -0.2327  1.0680
   82bbb    H12 2146   5.692   6.432   0.452 -2.2333 -0.5678  2.3664
   82bbb    H13 2147   5.833   6.351   0.693  0.5617 -0.1661 -1.9268
   82bbb    H25 2148   5.830   6.669   0.655 -0.4722  0.6845 -0.4364
   83bbb     N1 2149   5.558   6.077   1.774 -0.6195 -0.1111  0.2245
   83bbb     C1 2150   5.474   6.211   1.776 -0.2121  0.5212  0.0715
   83bbb     C2 2151   5.654   6.066   1.899  0.4369 -0.3832 -0.3554
   83bbb     C3 2152   5.378   6.244   1.890 -0.8803  0.3693 -0.1112
   83bbb     C4 2153   5.353   6.397   1.872  0.6676  0.1218  0.1089
   83bbb     C5 2154   5.712   5.924   1.929  0.2670  0.2369  0.2606
   83bbb     C6 2155   5.834   5.922   2.021  0.4498 -1.2044 -0.1220
   83bbb     C7 2156   5.652   6.078   1.652  0.1267  0.1064  0.0136
   83bbb     C8 2157   5.578   6.079   1.519  0.8658  0.5218 -0.0570
   83bbb     N2 2158   5.663   6.057   1.399  0.8709 -0.4140 -0.4817
   83bbb     O1 2159   5.427   6.486   1.905 -0.8270  0.3310  0.3705
   83bbb     O2 2160   5.827   5.959   2.140 -0.3432 -0.3419 -0.7273
   83bbb     H1 2161   5.552   6.287   1.767  1.3555 -0.5458  3.2935
   83bbb     H2 2162   5.410   6.208   1.687 -0.6091  2.3509  0.2573
   83bbb     H3 2163   5.600   6.101   1.988  1.6074  0.0679  0.1888
   83bbb     H4 2164   5.736   6.136   1.887  1.8628 -2.0164 -0.5539
   83bbb     H5 2165   5.284   6.190   1.873 -0.4553 -0.6233  0.5926
   83bbb     H6 2166   5.416   6.221   1.991  0.7060 -1.0330 -0.9814
   83bbb     H7 2167   5.746   5.874   1.837  1.3988  0.0153  0.7830
   83bbb     H8 2168   5.627   5.870   1.973 -1.1243  1.3180 -1.0205
   83bbb     H9 2169   5.723   5.996   1.657 -1.9385 -1.8259 -0.9545
   83bbb    H10 2170   5.712   6.169   1.666 -0.1612  0.6071 -1.7119
   83bbb    H11 2171   5.529   6.176   1.514 -3.2249 -1.3042  0.4386
   83bbb    H12 2172   5.506   5.996   1.516  2.6323 -1.0705 -1.1518
   83bbb    H13 2173   5.745   5.999   1.409  0.0928 -1.5777 -0.5404
   83bbb    H25 2174   5.491   5.999   1.768  1.3761 -1.9788  1.0423
   84bbb     N1 2175   4.253   7.415   0.376 -0.3370  0.6091  0.1424
   84bbb     C1 2176   4.199   7.528   0.456 -0.3554  0.4993 -0.3803
   84bbb     C2 2177   4.228   7.456   0.235 -0.1062  0.0804 -0.3549
   84bbb     C3 2178   4.266   7.544   0.598  1.4119  0.2264 -0.2945
   84bbb     C4 2179   4.214   7.670   0.671  0.3556 -0.0894  0.2806
   84bbb     C5 2180   4.346   7.526   0.170 -0.8460 -0.3058  0.3864
   84bbb     C6 2181   4.462   7.434   0.127 -0.2561  0.2176 -0.0529
   84bbb     C7 2182   4.170   7.286   0.406  0.2070 -0.6100 -0.4535
   84bbb     C8 2183   4.211   7.157   0.333  0.4249 -0.8756  0.0344
   84bbb     N2 2184   4.354   7.121   0.339  0.3289 -0.0207  0.0625
   84bbb     O1 2185   4.110   7.724   0.653  0.4714  0.4556  0.1724
   84bbb     O2 2186   4.445   7.316   0.103 -0.2113  0.0191  0.2358
   84bbb     H1 2187   4.230   7.618   0.404  0.0334  1.1504  0.9226
   84bbb     H2 2188   4.091   7.521   0.471 -0.2078 -1.1727  0.0942
   84bbb     H3 2189   4.149   7.531   0.237  1.2427  1.5225 -0.0231
   84bbb     H4 2190   4.205   7.364   0.179 -0.7842 -1.5605  2.4329
   84bbb     H5 2191   4.259   7.453   0.659 -0.5522  1.0768  0.8538
   84bbb     H6 2192   4.374   7.544   0.582  1.4553  0.0727  0.0111
   84bbb     H7 2193   4.384   7.596   0.245  2.3391 -0.7341 -0.6396
   84bbb     H8 2194   4.317   7.586   0.083  3.2179  2.3784  0.6163
   84bbb     H9 2195   4.063   7.303   0.390  0.0040 -3.3775 -2.9705
   84bbb    H10 2196   4.185   7.269   0.512  1.3599 -0.7156 -0.6176
   84bbb    H11 2197   4.148   7.075   0.370 -0.2377  0.3189  1.7089
   84bbb    H12 2198   4.175   7.174   0.231  2.4101  0.2488 -0.5240
   84bbb    H13 2199   4.416   7.187   0.383 -0.3355  1.0676 -0.5625
   84bbb    H25 2200   4.353   7.397   0.393 -0.5001 -0.7962 -0.2201
   85bbb     N1 2201   5.149   6.719  -0.230  0.4548 -0.0988  0.5156
   85bbb     C1 2202   5.192   6.571  -0.204  0.7626  0.6768  0.1682
   85bbb     C2 2203   5.222   6.781  -0.352 -0.7247 -0.3688 -0.3827
   85bbb     C3 2204   5.181   6.461  -0.316 -0.0332  0.3185  0.3601
   85bbb     C4 2205   5.049   6.406  -0.345  0.8541  0.4623 -0.5240
   85bbb     C5 2206   5.374   6.786  -0.338  0.8715  0.7206  0.2363
   85bbb     C6 2207   5.423   6.863  -0.455 -0.2119 -0.4095  0.3772
   85bbb     C7 2208   5.175   6.807  -0.116  0.0585  0.1372 -0.4548
   85bbb     C8 2209   5.073   6.799  -0.001 -0.2718  0.1618  0.2767
   85bbb     N2 2210   5.094   6.922   0.091  0.0514  0.3697 -0.3678
   85bbb     O1 2211   4.953   6.439  -0.277  0.1575  0.5438 -0.3416
   85bbb     O2 2212   5.356   6.886  -0.554 -0.3736 -0.0889 -0.1271
   85bbb     H1 2213   5.292   6.584  -0.163 -0.0208  0.2945  2.3082
   85bbb     H2 2214   5.134   6.532  -0.121  0.6196 -0.6680 -0.5369
   85bbb     H3 2215   5.200   6.887  -0.362  0.0438 -0.1863 -0.2021
   85bbb     H4 2216   5.188   6.727  -0.440 -1.0451  0.7500 -0.9578
   85bbb     H5 2217   5.225   6.496  -0.410 -1.2797 -1.9473 -1.1742
   85bbb     H6 2218   5.238   6.374  -0.279 -0.0512 -0.0317 -0.4158
   85bbb     H7 2219   5.419   6.686  -0.342 -0.2223  0.2052  0.3161
   85bbb     H8 2220   5.408   6.836  -0.246 -0.0565  2.4686 -0.3266
   85bbb     H9 2221   5.175   6.908  -0.159 -0.1829  0.2591 -0.1719
   85bbb    H10 2222   5.271   6.779  -0.074  0.2506 -0.1390 -1.0564
   85bbb    H11 2223   5.091   6.706   0.054 -0.4741  0.1415  0.3113
   85bbb    H12 2224   4.971   6.806  -0.041 -0.3769  1.3042  0.6876
   85bbb    H13 2225   5.174   6.982   0.079  1.0067 -1.0182 -1.1421
   85bbb    H25 2226   5.047   6.724  -0.243  0.6595 -0.9617 -1.8982
   86bbb     N1 2227   2.090   5.625   1.938 -0.6179  0.0221  0.2035
   86bbb     C1 2228   2.067   5.512   2.041 -0.5068 -0.2201  0.4985
   86bbb     C2 2229   1.981   5.726   1.956 -0.1751 -0.9694  0.5904
   86bbb     C3 2230   2.081   5.545   2.184  0.3444  0.1922 -0.8358
   86bbb     C4 2231   2.063   5.410   2.260 -0.9081 -0.3892  0.0611
   86bbb     C5 2232   1.833   5.698   1.932  0.6510  0.7037  0.0736
   86bbb     C6 2233   1.736   5.816   1.935 -0.0582  0.5021 -0.0860
   86bbb     C7 2234   2.081   5.582   1.794  0.0934 -0.0940  0.2576
   86bbb     C8 2235   2.108   5.684   1.690  0.4640  0.3978 -0.2730
   86bbb     N2 2236   2.251   5.726   1.686  0.0946 -0.0667  0.5946
   86bbb     O1 2237   1.952   5.354   2.258 -0.5094  0.5899  0.0698
   86bbb     O2 2238   1.749   5.910   2.006 -0.4959 -0.0706 -0.0241
   86bbb     H1 2239   1.968   5.475   2.015 -1.1679  0.5537  1.8053
   86bbb     H2 2240   2.135   5.429   2.024 -0.6056 -0.4263  1.0856
   86bbb     H3 2241   2.011   5.814   1.898 -0.6222 -1.0697  0.2019
   86bbb     H4 2242   1.993   5.741   2.063  1.8239 -2.6272  0.6716
   86bbb     H5 2243   2.177   5.594   2.203  0.7764 -0.3959 -1.4754
   86bbb     H6 2244   2.001   5.617   2.208 -1.8318 -2.0551 -0.9633
   86bbb     H7 2245   1.797   5.629   2.010 -0.1513 -0.8528 -1.5940
   86bbb     H8 2246   1.818   5.642   1.838 -0.3104  1.3798 -0.1905
   86bbb     H9 2247   1.982   5.536   1.784  0.3157 -0.4635 -0.3019
   86bbb    H10 2248   2.152   5.500   1.789 -0.5094 -0.6143  0.0342
   86bbb    H11 2249   2.047   5.775   1.691 -0.9098 -0.4998  1.0337
   86bbb    H12 2250   2.085   5.643   1.591 -0.7604  1.2436 -0.3659
   86bbb    H13 2251   2.325   5.659   1.670  0.7071  0.8853 -0.7621
   86bbb    H25 2252   2.179   5.669   1.968 -0.9895  1.0315 -0.1241
   87bbb     N1 2253   2.456   6.333   2.427 -0.8255 -0.0961  0.8320
   87bbb     C1 2254   2.334   6.424   2.427 -0.1563  0.0377 -0.0295
   87bbb     C2 2255   2.479   6.264   2.558  0.6511 -0.4892  0.4292
   87bbb     C3 2256   2.328   6.560   2.503 -0.1226 -0.1135  0.8967
   87bbb     C4 2257   2.198   6.649   2.486  0.3269  0.2481 -0.4069
   87bbb     C5 2258   2.365   6.165   2.590  0.2531  0.3046 -0.1478
   87bbb     C6 2259   2.258   6.218   2.692  0.3645  0.1866 -0.9745
   87bbb     C7 2260   2.578   6.416   2.403 -0.4465 -0.2600  0.3813
   87bbb     C8 2261   2.623   6.440   2.253  0.7741 -0.0716 -0.7234
   87bbb     N2 2262   2.613   6.321   2.172 -0.0430  0.6386 -0.2505
   87bbb     O1 2263   2.157   6.662   2.372 -0.7715  0.4913 -0.4917
   87bbb     O2 2264   2.232   6.333   2.695 -0.3175  0.2660  0.0323
   87bbb     H1 2265   2.315   6.440   2.321 -0.9044 -0.9394 -0.0582
   87bbb     H2 2266   2.249   6.360   2.452  0.4490 -1.7656 -2.2260
   87bbb     H3 2267   2.490   6.340   2.635  0.4256 -1.1579  1.1370
   87bbb     H4 2268   2.578   6.220   2.543  1.9437  2.3780 -0.1119
   87bbb     H5 2269   2.352   6.540   2.608  2.1487 -2.0040  0.1102
   87bbb     H6 2270   2.411   6.621   2.466  0.7213 -1.8188 -0.1351
   87bbb     H7 2271   2.403   6.070   2.630 -0.5422  0.1057  0.1502
   87bbb     H8 2272   2.305   6.138   2.503  0.2716 -1.9030  0.4700
   87bbb     H9 2273   2.668   6.367   2.442 -0.3764  0.7382  1.5404
   87bbb    H10 2274   2.573   6.517   2.445  1.1947  0.3122 -0.7032
   87bbb    H11 2275   2.729   6.467   2.256  0.8184 -0.2177 -0.9737
   87bbb    H12 2276   2.563   6.523   2.212 -1.0683 -0.3932  1.1755
   87bbb    H13 2277   2.554   6.247   2.207  0.2086  1.2179  1.5104
   87bbb    H25 2278   2.444   6.252   2.365 -0.2657  0.0092  0.5761
   88bbb     N1 2279   2.669   4.349   2.510 -0.4948  0.3919 -0.4676
   88bbb     C1 2280   2.519   4.326   2.528  0.4473 -0.6065  0.2249
   88bbb     C2 2281   2.748   4.227   2.553  0.0129 -1.1887  0.1336
   88bbb     C3 2282   2.433   4.262   2.413 -0.3676 -0.2680  1.0961
   88bbb     C4 2283   2.291   4.260   2.439  0.7243 -0.1942  0.4850
   88bbb     C5 2284   2.745   4.094   2.468  0.2512 -0.2838 -0.7546
   88bbb     C6 2285   2.834   3.986   2.530 -0.0155  0.6307 -0.5464
   88bbb     C7 2286   2.702   4.471   2.587 -0.7313  0.3070 -0.8905
   88bbb     C8 2287   2.681   4.612   2.519  0.8330 -0.6120 -0.2636
   88bbb     N2 2288   2.786   4.631   2.419 -0.1439  0.3401  0.0333
   88bbb     O1 2289   2.244   4.262   2.547  0.2029 -0.3571  0.3743
   88bbb     O2 2290   2.955   4.013   2.552 -0.2538  1.0636 -0.4439
   88bbb     H1 2291   2.518   4.255   2.611 -1.7112 -0.9936 -0.0761
   88bbb     H2 2292   2.483   4.423   2.561  2.6805  0.0320  0.9694
   88bbb     H3 2293   2.715   4.209   2.656 -1.7247  0.3718 -0.1005
   88bbb     H4 2294   2.855   4.248   2.567 -0.4363  0.4871  1.3513
   88bbb     H5 2295   2.455   4.316   2.319 -0.5593 -0.3164  1.0248
   88bbb     H6 2296   2.460   4.156   2.401 -0.6963 -0.6107  3.0582
   88bbb     H7 2297   2.773   4.114   2.364  1.2789  1.1551 -0.2451
   88bbb     H8 2298   2.641   4.060   2.463  0.3761 -1.1341  1.5057
   88bbb     H9 2299   2.806   4.465   2.616 -0.7939  0.5214 -0.6208
   88bbb    H10 2300   2.648   4.472   2.682  0.7535  1.5096 -0.0165
   88bbb    H11 2301   2.692   4.691   2.595  0.3013  0.3778 -1.2032
   88bbb    H12 2302   2.582   4.628   2.475  0.3684 -0.2608  0.8648
   88bbb    H13 2303   2.882   4.634   2.452 -0.1600  1.2243  0.0233
   88bbb    H25 2304   2.698   4.377   2.415 -0.2227  1.4456 -0.0921
   89bbb     N1 2305   2.129   4.502   1.650  0.1570  0.1115 -0.7089
   89bbb     C1 2306   2.061   4.552   1.527 -0.4149 -0.1137  0.2816
   89bbb     C2 2307   2.050   4.526   1.776  0.5147 -0.5519  0.2578
   89bbb     C3 2308   2.133   4.532   1.390 -0.1396  0.1410  0.1956
   89bbb     C4 2309   2.071   4.606   1.273  0.2807  0.7064 -1.2498
   89bbb     C5 2310   1.909   4.468   1.787 -0.2191  0.0781  0.4257
   89bbb     C6 2311   1.837   4.522   1.907 -0.3288 -0.4932 -0.0978
   89bbb     C7 2312   2.277   4.541   1.667  0.1394 -0.3833 -0.7355
   89bbb     C8 2313   2.353   4.485   1.779  0.3466  0.3256 -0.8411
   89bbb     N2 2314   2.500   4.466   1.769 -0.3695  0.3891 -0.1659
   89bbb     O1 2315   1.983   4.689   1.291 -0.8875 -0.1479  0.1936
   89bbb     O2 2316   1.893   4.558   2.013  0.1797 -0.6419  0.4624
   89bbb     H1 2317   1.961   4.510   1.527  0.0560 -1.2848  1.3167
   89bbb     H2 2318   2.050   4.660   1.538 -0.6417  0.3269 -3.1978
   89bbb     H3 2319   2.043   4.635   1.772  2.8377 -0.3238  0.6371
   89bbb     H4 2320   2.106   4.494   1.865  4.0820  2.8627 -0.4287
   89bbb     H5 2321   2.237   4.563   1.407  0.7746 -1.9965 -1.0978
   89bbb     H6 2322   2.131   4.429   1.351  1.3674 -1.0299  2.9406
   89bbb     H7 2323   1.903   4.359   1.798 -1.0327  0.1362  0.6611
   89bbb     H8 2324   1.846   4.497   1.702 -1.0100 -3.7272 -0.4677
   89bbb     H9 2325   2.274   4.649   1.679 -1.5308 -0.1268 -2.8023
   89bbb    H10 2326   2.329   4.528   1.572  0.6201  2.8137 -1.0093
   89bbb    H11 2327   2.310   4.391   1.816  1.1053 -0.1479 -1.1350
   89bbb    H12 2328   2.342   4.565   1.853 -0.0399  1.5272 -2.1451
   89bbb    H13 2329   2.542   4.421   1.688  2.0308  3.3394 -0.7213
   89bbb    H25 2330   2.134   4.401   1.632 -1.4074 -0.2591  0.7123
   90bbb     N1 2331   3.711   6.459   3.865  0.5633  0.2863 -0.0296
   90bbb     C1 2332   3.560   6.429   3.867  0.2965  0.0065 -0.9544
   90bbb     C2 2333   3.775   6.464   4.000  0.1062  0.3097 -0.4873
   90bbb     C3 2334   3.511   6.280   3.876  0.6430 -0.3317  0.6128
   90bbb     C4 2335   3.535   6.210   3.737 -0.2424  0.1103 -0.0875
   90bbb     C5 2336   3.929   6.461   3.999 -0.9504  0.3743  0.0111
   90bbb     C6 2337   4.006   6.332   3.954  0.3993  0.5184 -0.2861
   90bbb     C7 2338   3.734   6.586   3.790 -0.2929 -0.1925 -0.9407
   90bbb     C8 2339   3.827   6.572   3.669 -0.3549  0.4327 -0.3449
   90bbb     N2 2340   3.771   6.504   3.555  0.5469  0.0808 -0.5220
   90bbb     O1 2341   3.631   6.235   3.668  0.0658  0.1526 -0.0118
   90bbb     O2 2342   3.946   6.248   3.885  0.1141  0.1012 -0.3794
   90bbb     H1 2343   3.523   6.465   3.963  0.7271 -0.2704 -0.6811
   90bbb     H2 2344   3.514   6.475   3.779  0.2653  0.0585 -0.9102
   90bbb     H3 2345   3.730   6.387   4.062 -0.1927 -1.7563 -3.0820
   90bbb     H4 2346   3.755   6.562   4.045  0.4075 -0.6245  1.8164
   90bbb     H5 2347   3.574   6.232   3.953  0.1176 -1.3530  0.4167
   90bbb     H6 2348   3.408   6.272   3.911  0.9734 -1.5976  1.3877
   90bbb     H7 2349   3.965   6.482   4.100 -2.1757 -2.3087  1.1012
   90bbb     H8 2350   3.963   6.540   3.931 -0.4384 -0.3173 -0.5585
   90bbb     H9 2351   3.768   6.655   3.868 -2.6252  0.2942 -0.2798
   90bbb    H10 2352   3.634   6.622   3.767 -1.3630 -1.8633  0.7822
   90bbb    H11 2353   3.917   6.516   3.696 -2.1002 -1.1982  2.7836
   90bbb    H12 2354   3.846   6.677   3.643 -1.4471  0.3509 -1.5779
   90bbb    H13 2355   3.673   6.525   3.537 -0.1396 -0.1967  2.3720
   90bbb    H25 2356   3.762   6.386   3.813  2.1444 -0.6791  2.7007
   91bbb     N1 2357   3.985   5.653   3.698  0.0677  0.3512  0.5961
   91bbb     C1 2358   3.848   5.645   3.755 -0.5284  0.2332 -0.6758
   91bbb     C2 2359   4.074   5.723   3.795 -0.2079  0.3037 -0.4468
   91bbb     C3 2360   3.841   5.516   3.836  0.0992  0.1460 -0.1277
   91bbb     C4 2361   3.694   5.472   3.868  0.0720 -0.0669  0.3018
   91bbb     C5 2362   4.221   5.670   3.792 -0.2586  0.0703 -0.5769
   91bbb     C6 2363   4.242   5.527   3.849 -0.1851  0.3463 -0.1616
   91bbb     C7 2364   3.988   5.731   3.569  0.5112  0.6597  0.8678
   91bbb     C8 2365   3.914   5.667   3.449  0.1835 -0.0137  0.2047
   91bbb     N2 2366   3.893   5.767   3.338 -0.6041  0.1465 -0.3311
   91bbb     O1 2367   3.601   5.529   3.815  0.1635  0.0591  0.0280
   91bbb     O2 2368   4.298   5.442   3.781 -0.3480  0.6071 -0.2688
   91bbb     H1 2369   3.810   5.732   3.808 -0.4456  0.4123 -0.9121
   91bbb     H2 2370   3.782   5.639   3.669  0.2464 -0.9112 -1.2158
   91bbb     H3 2371   4.042   5.714   3.899  0.5639  0.2403 -0.2108
   91bbb     H4 2372   4.074   5.829   3.770  0.4432  0.7579  1.3602
   91bbb     H5 2373   3.876   5.423   3.790 -0.5199 -0.5397  0.7459
   91bbb     H6 2374   3.901   5.522   3.927  2.8577 -1.7229 -1.6812
   91bbb     H7 2375   4.275   5.744   3.852 -2.6983  1.4169  0.0713
   91bbb     H8 2376   4.253   5.687   3.689 -0.1241  0.2611 -0.5036
   91bbb     H9 2377   4.091   5.752   3.538 -0.1754  4.0704  0.4340
   91bbb    H10 2378   3.942   5.827   3.595 -3.3475 -0.8060  0.1849
   91bbb    H11 2379   3.815   5.639   3.486  0.3891  1.0018  1.6096
   91bbb    H12 2380   3.962   5.577   3.407  1.6405  0.5673  0.5484
   91bbb    H13 2381   3.962   5.769   3.264  0.9045  2.7446  1.0151
   91bbb    H25 2382   4.013   5.555   3.682  0.6534  0.5488  0.3611
   92bbb     N1 2383   3.130   7.217   2.326  0.0337  0.8767  0.7640
   92bbb     C1 2384   2.989   7.262   2.298 -0.0342 -1.1791  0.2270
   92bbb     C2 2385   3.132   7.098   2.412 -0.1493  0.0717  0.1883
   92bbb     C3 2386   2.973   7.324   2.154  0.1121  0.3826 -0.3060
   92bbb     C4 2387   2.981   7.216   2.041  0.1631  0.4499  0.2505
   92bbb     C5 2388   3.076   6.969   2.351 -0.2317 -0.2317  0.4663
   92bbb     C6 2389   3.159   6.912   2.235 -0.8274  0.5021 -0.4309
   92bbb     C7 2390   3.208   7.330   2.379  0.1444 -0.4584  0.3962
   92bbb     C8 2391   3.353   7.307   2.420 -0.0581 -0.2400 -0.5896
   92bbb     N2 2392   3.437   7.249   2.315  0.1233  0.1406  0.6307
   92bbb     O1 2393   2.962   7.099   2.068  0.0453  0.0179 -0.0816
   92bbb     O2 2394   3.272   6.948   2.208 -0.3870 -0.0937 -0.0054
   92bbb     H1 2395   2.915   7.182   2.309 -0.7757 -0.5051  0.2593
   92bbb     H2 2396   2.967   7.339   2.373  0.6609  0.5171 -1.2274
   92bbb     H3 2397   3.073   7.119   2.501  1.4899 -1.7370  1.7779
   92bbb     H4 2398   3.232   7.090   2.455 -0.7049  1.9003  1.9513
   92bbb     H5 2399   2.876   7.375   2.146  0.4561  1.1536  0.3112
   92bbb     H6 2400   3.056   7.391   2.131  0.1695  0.4487  0.0907
   92bbb     H7 2401   2.975   6.981   2.311  0.2909 -1.7068 -1.4793
   92bbb     H8 2402   3.069   6.895   2.432 -0.1525  1.0837  1.7163
   92bbb     H9 2403   3.157   7.373   2.466  1.9643 -1.4543  2.0406
   92bbb    H10 2404   3.206   7.408   2.303 -1.8290  1.1280  1.9260
   92bbb    H11 2405   3.363   7.241   2.507  0.5559 -0.3843 -0.7637
   92bbb    H12 2406   3.390   7.402   2.460 -0.6811 -1.1409  2.4335
   92bbb    H13 2407   3.447   7.293   2.225  1.0377 -2.2508 -0.5194
   92bbb    H25 2408   3.174   7.199   2.235  1.5851  2.5517  1.1242
   93bbb     N1 2409   3.264   6.858   1.271  0.7133 -0.1974  0.5539
   93bbb     C1 2410   3.167   6.742   1.298  0.5955 -0.1198 -0.1718
   93bbb     C2 2411   3.302   6.856   1.125  0.2379  0.2085  0.6225
   93bbb     C3 2412   3.031   6.745   1.231 -0.1733 -0.0442  0.6716
   93bbb     C4 2413   2.953   6.609   1.243 -0.7104  0.3102 -0.3147
   93bbb     C5 2414   3.266   6.987   1.059  0.3409 -0.1666  0.2954
   93bbb     C6 2415   3.369   7.092   1.097 -0.0942 -0.0581  0.0919
   93bbb     C7 2416   3.381   6.854   1.371  0.4215 -0.1913 -0.3206
   93bbb     C8 2417   3.338   6.867   1.513  0.1415  0.2422 -0.3732
   93bbb     N2 2418   3.444   6.871   1.613 -0.2364  0.3190 -0.2209
   93bbb     O1 2419   2.970   6.525   1.336  0.5191 -0.0867  0.0190
   93bbb     O2 2420   3.398   7.114   1.215  0.3699 -0.0099  0.6399
   93bbb     H1 2421   3.229   6.656   1.274  1.5400  0.6033 -0.3810
   93bbb     H2 2422   3.148   6.758   1.405 -1.0526 -1.3001 -0.2559
   93bbb     H3 2423   3.258   6.775   1.067 -0.7243  1.5318 -0.5610
   93bbb     H4 2424   3.408   6.827   1.120  0.0196 -0.7422  1.1499
   93bbb     H5 2425   2.964   6.820   1.275  0.3308  0.1039  1.1875
   93bbb     H6 2426   3.039   6.765   1.124  0.8021  1.6328  1.0287
   93bbb     H7 2427   3.165   7.020   1.085 -0.2255 -0.9601 -0.8192
   93bbb     H8 2428   3.255   6.981   0.950 -2.3650  1.9860  0.3486
   93bbb     H9 2429   3.445   6.938   1.346  0.9714 -0.3660  0.4511
   93bbb    H10 2430   3.437   6.762   1.356 -0.6952 -1.1653  1.1666
   93bbb    H11 2431   3.268   6.786   1.539  0.8154 -0.1251  0.3067
   93bbb    H12 2432   3.276   6.957   1.523 -0.8257 -0.3965 -0.3912
   93bbb    H13 2433   3.521   6.807   1.599 -1.3829 -1.7199  2.0820
   93bbb    H25 2434   3.215   6.948   1.281 -0.0913 -0.6044  0.3097
   94bbb     N1 2435   8.309   4.168   0.188 -0.0040  0.5964 -0.2600
   94bbb     C1 2436   8.296   4.312   0.242  0.2934  0.0291  0.3013
   94bbb     C2 2437   8.225   4.148   0.069  0.2175 -0.0788  0.4519
   94bbb     C3 2438   8.365   4.355   0.377 -0.2493  0.2049  0.2535
   94bbb     C4 2439   8.518   4.331   0.370 -0.0806  0.0688 -0.7399
   94bbb     C5 2440   8.282   4.223  -0.053 -0.0180  0.1325  0.2440
   94bbb     C6 2441   8.282   4.146  -0.180 -0.1708  0.7639 -0.0089
   94bbb     C7 2442   8.287   4.049   0.289 -0.1050  0.2476 -0.0167
   94bbb     C8 2443   8.153   4.058   0.359 -0.2997  0.0155  0.3263
   94bbb     N2 2444   8.154   3.988   0.490  0.3052 -0.2141 -0.5771
   94bbb     O1 2445   8.570   4.291   0.271 -0.4836 -0.1388  0.0691
   94bbb     O2 2446   8.212   4.046  -0.196 -0.2105 -0.2612  0.0071
   94bbb     H1 2447   8.341   4.373   0.163  0.9606  1.3644  1.6508
   94bbb     H2 2448   8.188   4.321   0.258  0.1752  1.2131 -0.9871
   94bbb     H3 2449   8.123   4.182   0.089  0.2173  1.1373 -1.3268
   94bbb     H4 2450   8.221   4.043   0.041 -1.9317  0.3717 -1.2207
   94bbb     H5 2451   8.353   4.461   0.402  0.8419  0.3171  0.3455
   94bbb     H6 2452   8.335   4.286   0.457  0.3814  0.0186  0.3385
   94bbb     H7 2453   8.375   4.272  -0.022 -0.0820  0.0468  0.5710
   94bbb     H8 2454   8.211   4.304  -0.075  0.7261  0.7721  0.1372
   94bbb     H9 2455   8.368   4.056   0.362 -0.4315 -0.8389  0.4675
   94bbb    H10 2456   8.297   3.958   0.231 -4.9321 -0.1216 -0.6540
   94bbb    H11 2457   8.076   4.007   0.300  0.9819 -0.8319 -0.6796
   94bbb    H12 2458   8.130   4.162   0.383  1.8694  0.3680  1.0867
   94bbb    H13 2459   8.168   4.038   0.577  2.9075 -3.0728  0.8111
   94bbb    H25 2460   8.406   4.159   0.156 -0.1986  2.0953 -1.3878
   95bbb     N1 2461   8.472   3.750   1.531 -0.0044 -0.3038  0.4108
   95bbb     C1 2462   8.399   3.774   1.662  0.2472  0.4692 -0.0921
   95bbb     C2 2463   8.604   3.824   1.539  0.3674  0.2729  0.4195
   95bbb     C3 2464   8.276   3.684   1.699  0.3150  0.1533 -0.6470
   95bbb     C4 2465   8.231   3.729   1.836  0.5687  0.0122  0.4513
   95bbb     C5 2466   8.715   3.753   1.621 -0.0908  0.5500 -0.1965
   95bbb     C6 2467   8.795   3.638   1.557 -1.1471 -0.4833 -0.5297
   95bbb     C7 2468   8.390   3.791   1.414 -0.6428 -0.0482  0.4379
   95bbb     C8 2469   8.413   3.711   1.287 -1.0903 -0.1635 -0.2164
   95bbb     N2 2470   8.317   3.765   1.187 -0.1071 -0.5057 -0.3775
   95bbb     O1 2471   8.316   3.746   1.924  0.2542 -0.0625  0.2111
   95bbb     O2 2472   8.758   3.584   1.454  0.2346 -0.0493  0.7032
   95bbb     H1 2473   8.462   3.769   1.751 -1.4294  3.0954  1.3849
   95bbb     H2 2474   8.371   3.879   1.655 -0.6617  0.1535 -2.3447
   95bbb     H3 2475   8.585   3.924   1.579  0.2375 -0.3903  2.1158
   95bbb     H4 2476   8.643   3.845   1.440  0.8438  0.1308  0.5755
   95bbb     H5 2477   8.197   3.687   1.623  0.5423  1.2157 -0.8599
   95bbb     H6 2478   8.314   3.581   1.710  1.5666  0.6474 -0.1680
   95bbb     H7 2479   8.663   3.716   1.710 -1.9424 -0.7421 -1.7283
   95bbb     H8 2480   8.791   3.824   1.655  0.8100 -0.7745  0.6744
   95bbb     H9 2481   8.408   3.898   1.403  0.0535  0.0207  2.1071
   95bbb    H10 2482   8.284   3.800   1.437 -1.0651 -0.3261 -1.2500
   95bbb    H11 2483   8.393   3.605   1.308  1.8290 -0.4682  1.5629
   95bbb    H12 2484   8.515   3.726   1.250 -0.2968 -1.1108  1.4417
   95bbb    H13 2485   8.258   3.842   1.215  1.6699  0.4264  1.0079
   95bbb    H25 2486   8.499   3.651   1.520  0.9313 -0.0484  0.3516
   96bbb     N1 2487   6.859   3.402   0.147  0.0552  0.3143  0.0059
   96bbb     C1 2488   6.855   3.466   0.012 -0.2943  0.1268 -0.0084
   96bbb     C2 2489   6.995   3.423   0.203  0.2348 -0.5398  0.3081
   96bbb     C3 2490   6.899   3.611  -0.001 -0.1575  0.4738  0.1097
   96bbb     C4 2491   6.904   3.646  -0.152  0.0676  0.0600  0.8328
   96bbb     C5 2492   7.118   3.339   0.140 -0.0352  0.2762  0.1593
   96bbb     C6 2493   7.234   3.334   0.240 -0.6943  0.2572  0.6519
   96bbb     C7 2494   6.815   3.263   0.137  0.7067 -0.0080  0.2377
   96bbb     C8 2495   6.756   3.216   0.275 -0.1560 -0.1962  0.6239
   96bbb     N2 2496   6.776   3.074   0.285  0.5004 -0.2521  0.3544
   96bbb     O1 2497   6.911   3.561  -0.243  0.0118 -0.4252 -0.6551
   96bbb     O2 2498   7.234   3.381   0.354  0.3025 -0.2879  0.0139
   96bbb     H1 2499   6.901   3.396  -0.058  0.8592  2.5044 -1.7743
   96bbb     H2 2500   6.752   3.462  -0.022 -0.2341  1.6027 -0.4315
   96bbb     H3 2501   6.988   3.391   0.307 -0.0680 -1.3913  0.0341
   96bbb     H4 2502   7.014   3.531   0.205  0.3525 -0.4688 -1.6978
   96bbb     H5 2503   6.824   3.676   0.045 -0.1929  1.0811 -0.7581
   96bbb     H6 2504   7.002   3.627   0.035  0.9379  0.2707 -2.6228
   96bbb     H7 2505   7.146   3.363   0.037 -0.8343 -1.6700 -0.5651
   96bbb     H8 2506   7.081   3.237   0.124  0.5523  0.0986 -0.0653
   96bbb     H9 2507   6.896   3.199   0.103 -0.4729 -0.7603 -1.2572
   96bbb    H10 2508   6.734   3.253   0.065  0.5904  0.8014  0.2438
   96bbb    H11 2509   6.650   3.244   0.275  0.1535  1.1248  2.4184
   96bbb    H12 2510   6.793   3.267   0.365 -1.6237  0.8334  0.6850
   96bbb    H13 2511   6.695   3.018   0.261 -1.4420  2.3574  0.4400
   96bbb    H25 2512   6.792   3.454   0.206 -0.0584 -0.1244  0.2599
   97bbb     N1 2513   7.448   2.821  -0.245  0.2288 -0.3133 -0.4989
   97bbb     C1 2514   7.313   2.833  -0.324 -0.3642 -0.6127 -0.1542
   97bbb     C2 2515   7.551   2.750  -0.332  0.3391 -0.5670 -0.8758
   97bbb     C3 2516   7.313   2.929  -0.447  0.2725 -0.2039 -0.2249
   97bbb     C4 2517   7.382   3.063  -0.420 -0.1039 -0.1128 -0.1753
   97bbb     C5 2518   7.698   2.732  -0.285  0.0362  0.3671 -0.2580
   97bbb     C6 2519   7.766   2.854  -0.229 -0.5328  0.4829  0.5136
   97bbb     C7 2520   7.426   2.743  -0.118  0.1712 -0.5719 -0.1667
   97bbb     C8 2521   7.371   2.832  -0.000 -0.0933  0.5069 -1.1441
   97bbb     N2 2522   7.358   2.755   0.129  0.4157  0.4489  0.7951
   97bbb     O1 2523   7.435   3.093  -0.314  0.2034 -0.3638 -0.3494
   97bbb     O2 2524   7.703   2.945  -0.176  0.0029  0.6753 -0.1834
   97bbb     H1 2525   7.290   2.733  -0.360  2.9027 -2.0128  1.3161
   97bbb     H2 2526   7.231   2.867  -0.259  0.0999  0.8101 -0.2730
   97bbb     H3 2527   7.564   2.810  -0.422 -2.8467  1.7704  0.0373
   97bbb     H4 2528   7.496   2.664  -0.370 -1.5635  0.7477 -1.2169
   97bbb     H5 2529   7.361   2.873  -0.529 -1.8010 -1.5365 -0.6115
   97bbb     H6 2530   7.209   2.934  -0.482  0.4776  0.3018 -0.7853
   97bbb     H7 2531   7.755   2.696  -0.372 -1.0999  0.6088 -1.1276
   97bbb     H8 2532   7.704   2.664  -0.200  0.4847 -0.2091 -0.7408
   97bbb     H9 2533   7.522   2.699  -0.090 -0.7587 -1.1434  2.4283
   97bbb    H10 2534   7.364   2.657  -0.143  0.0161 -0.5945  0.2869
   97bbb    H11 2535   7.271   2.867  -0.027  0.2831  1.2886 -1.5474
   97bbb    H12 2536   7.435   2.919   0.018 -0.1889  0.4997 -0.7739
   97bbb    H13 2537   7.399   2.663   0.140  0.4449  0.4494  0.6905
   97bbb    H25 2538   7.479   2.916  -0.219  1.6971 -1.0909  0.7632
   98bbb     N1 2539   6.215   2.201   1.690  0.1353  0.8453 -0.1540
   98bbb     C1 2540   6.362   2.207   1.667 -0.1671  0.4592  0.7134
   98bbb     C2 2541   6.176   2.057   1.717 -0.0476 -0.2737  0.3878
   98bbb     C3 2542   6.448   2.185   1.794 -0.2173 -0.6937 -0.4254
   98bbb     C4 2543   6.599   2.223   1.762 -0.2007 -0.7291 -0.1830
   98bbb     C5 2544   6.059   2.037   1.814  0.6648  0.4395  0.6026
   98bbb     C6 2545   6.097   2.068   1.959  0.4923  0.0102  0.6293
   98bbb     C7 2546   6.127   2.251   1.580  0.3718  0.2788  0.1138
   98bbb     C8 2547   6.137   2.409   1.569  0.2410  0.1299 -0.0281
   98bbb     N2 2548   6.079   2.473   1.689  0.4959  0.2132 -0.2779
   98bbb     O1 2549   6.656   2.180   1.666 -0.4333  0.2763  0.6640
   98bbb     O2 2550   6.151   2.177   1.985  0.0345  0.1629  0.3165
   98bbb     H1 2551   6.393   2.135   1.591  1.5139  0.0526  1.7374
   98bbb     H2 2552   6.381   2.306   1.626 -0.4713 -0.2490 -1.2507
   98bbb     H3 2553   6.268   2.012   1.755  0.2692 -0.5284 -0.6512
   98bbb     H4 2554   6.151   2.001   1.627 -1.0876 -1.7651  1.5547
   98bbb     H5 2555   6.420   2.256   1.873 -0.0413  0.4969 -1.3918
   98bbb     H6 2556   6.447   2.080   1.825  0.3256 -0.6010 -0.0736
   98bbb     H7 2557   6.033   1.931   1.807 -0.7597  0.8774 -2.7436
   98bbb     H8 2558   5.968   2.079   1.770 -1.0928 -0.1137  3.4021
   98bbb     H9 2559   6.025   2.214   1.594  0.1788  0.9494  0.4759
   98bbb    H10 2560   6.163   2.205   1.488  0.3835 -2.1377  1.2294
   98bbb    H11 2561   6.097   2.446   1.474 -0.3649 -3.1025 -1.1383
   98bbb    H12 2562   6.241   2.444   1.561  0.0547  0.2415 -3.6901
   98bbb    H13 2563   5.998   2.530   1.671  1.5116  1.6589 -0.3973
   98bbb    H25 2564   6.195   2.262   1.771 -0.1081 -0.6460  0.9621
   99bbb     N1 2565   6.720   1.930   2.164 -0.1249 -0.2442 -0.7820
   99bbb     C1 2566   6.670   1.846   2.048 -0.2596 -0.3567 -0.3314
   99bbb     C2 2567   6.783   1.854   2.278  0.0171 -0.3458 -0.1860
   99bbb     C3 2568   6.785   1.803   1.948  0.5179  0.7659  0.3014
   99bbb     C4 2569   6.860   1.924   1.888  0.5988 -0.0956  0.8225
   99bbb     C5 2570   6.880   1.941   2.362  0.4219 -0.1666 -0.8797
   99bbb     C6 2571   7.000   1.995   2.278 -0.2079  0.3413 -0.5046
   99bbb     C7 2572   6.616   2.013   2.234  0.3997 -0.7099  0.2519
   99bbb     C8 2573   6.558   2.128   2.146  0.7064  0.9307  0.5197
   99bbb     N2 2574   6.455   2.208   2.214 -0.0714 -0.0355 -0.1561
   99bbb     O1 2575   6.839   2.035   1.927 -0.5312 -0.3868  0.6912
   99bbb     O2 2576   6.988   2.049   2.170  0.1612 -0.3048  0.2029
   99bbb     H1 2577   6.618   1.759   2.087 -0.0216  0.1835  1.2396
   99bbb     H2 2578   6.599   1.906   1.990 -1.8206 -1.5775  0.2550
   99bbb     H3 2579   6.819   1.754   2.252  0.6991 -0.5420  1.4034
   99bbb     H4 2580   6.705   1.825   2.348  0.0548  1.9413  0.8962
   99bbb     H5 2581   6.867   1.752   2.001 -0.2615 -1.5230 -0.5552
   99bbb     H6 2582   6.745   1.740   1.868  0.6864 -1.0164  1.5347
   99bbb     H7 2583   6.912   1.886   2.451  0.7193  2.5063  0.7723
   99bbb     H8 2584   6.829   2.029   2.402  1.1911  0.1339 -0.5354
   99bbb     H9 2585   6.650   2.057   2.328 -0.8050 -0.2526  0.4909
   99bbb    H10 2586   6.531   1.945   2.241  0.6739 -1.1865 -0.9387
   99bbb    H11 2587   6.523   2.094   2.048 -1.3712  0.5330  1.3355
   99bbb    H12 2588   6.640   2.191   2.112  1.1816 -0.8859 -1.9612
   99bbb    H13 2589   6.398   2.168   2.287  0.4841 -1.9897 -0.7422
   99bbb    H25 2590   6.790   2.002   2.140  0.8333 -0.4459  1.2085
  100bbb     N1 2591   8.056   2.740   0.969  0.2885 -0.4712  0.2729
  100bbb     C1 2592   8.079   2.896   0.966  0.2601 -0.2223  0.3000
  100bbb     C2 2593   8.077   2.668   0.828  0.4456 -0.9693 -0.0005
  100bbb     C3 2594   8.230   2.924   0.979  0.3012  0.0875 -0.1212
  100bbb     C4 2595   8.277   3.067   0.986 -0.2736 -0.5487  0.5550
  100bbb     C5 2596   8.185   2.553   0.828 -0.2499  0.1725 -0.1358
  100bbb     C6 2597   8.138   2.432   0.913  0.4932 -0.3860 -0.8330
  100bbb     C7 2598   7.909   2.712   1.003 -0.0856  0.5542 -0.3925
  100bbb     C8 2599   7.907   2.662   1.154 -0.1431  0.0109  0.1779
  100bbb     N2 2600   7.783   2.602   1.189  0.5670 -0.1832  0.0719
  100bbb     O1 2601   8.195   3.161   0.984 -0.2619  0.2864  0.3034
  100bbb     O2 2602   8.030   2.407   0.963  0.4560 -0.2868  0.0412
  100bbb     H1 2603   8.038   2.943   0.877  1.2532  1.9884  0.9341
  100bbb     H2 2604   8.027   2.934   1.054 -0.8144  3.1991 -1.6426
  100bbb     H3 2605   8.102   2.742   0.753 -4.2523  0.0783 -0.8048
  100bbb     H4 2606   7.987   2.613   0.801  1.4819 -3.0640  0.5214
  100bbb     H5 2607   8.257   2.889   1.080 -0.3660  0.0326  0.0453
  100bbb     H6 2608   8.289   2.866   0.908  0.9498  2.8475 -2.0105
  100bbb     H7 2609   8.286   2.584   0.857 -0.5603  0.8243  0.2912
  100bbb     H8 2610   8.195   2.521   0.724 -1.4838  0.9685 -0.5217
  100bbb     H9 2611   7.866   2.645   0.928 -0.0079 -0.4417  0.4285
  100bbb    H10 2612   7.854   2.804   0.983  1.7862  1.9310  0.4735
  100bbb    H11 2613   7.936   2.748   1.216  2.4243 -0.6698  0.0344
  100bbb    H12 2614   7.986   2.591   1.183 -0.6479 -0.7791 -0.3258
  100bbb    H13 2615   7.707   2.616   1.124  0.4455 -0.5608  0.1321
  100bbb    H25 2616   8.110   2.699   1.047 -0.3359  0.5201  1.2576
  101bbb     N1 2617   8.071   2.194   2.179 -0.1609 -0.2339 -0.1704
  101bbb     C1 2618   8.213   2.241   2.188  0.3451 -0.3211  0.2706
  101bbb     C2 2619   8.043   2.053   2.234  0.4357  0.5158  0.1393
  101bbb     C3 2620   8.233   2.389   2.156 -0.2982 -0.4203  0.1505
  101bbb     C4 2621   8.166   2.479   2.254 -0.0018  0.2084 -0.7000
  101bbb     C5 2622   8.099   2.015   2.379 -0.2734 -0.0353 -0.5416
  101bbb     C6 2623   8.006   1.922   2.458  0.4324  0.1649  0.3564
  101bbb     C7 2624   8.031   2.199   2.032 -0.1405 -0.0819  0.5339
  101bbb     C8 2625   7.878   2.229   2.019 -0.1818 -0.2916 -0.1630
  101bbb     N2 2626   7.859   2.302   1.894 -0.4133 -0.1783  0.1316
  101bbb     O1 2627   8.067   2.437   2.315  1.0764 -0.4959 -0.0283
  101bbb     O2 2628   7.891   1.895   2.422  0.1724 -0.2221  0.3337
  101bbb     H1 2629   8.260   2.217   2.283 -2.0025 -1.4645  1.2324
  101bbb     H2 2630   8.267   2.185   2.111 -0.4390 -0.7198 -0.0036
  101bbb     H3 2631   8.081   1.984   2.158 -1.1368  2.3813 -2.5417
  101bbb     H4 2632   7.934   2.053   2.238  0.4435 -0.2974  0.4782
  101bbb     H5 2633   8.342   2.398   2.170 -0.6408  0.8483  2.5538
  101bbb     H6 2634   8.207   2.411   2.052 -0.9442 -2.8636 -0.2817
  101bbb     H7 2635   8.094   2.110   2.434  2.1867  0.0201 -0.3243
  101bbb     H8 2636   8.205   1.989   2.375  0.1876  1.6335 -0.1185
  101bbb     H9 2637   8.060   2.103   1.991 -2.2836 -0.0471 -1.2201
  101bbb    H10 2638   8.090   2.276   1.982 -0.3578 -0.0598  0.3150
  101bbb    H11 2639   7.847   2.292   2.103  0.8225 -0.3565  0.2760
  101bbb    H12 2640   7.828   2.131   2.019 -0.5643 -0.0984  0.4328
  101bbb    H13 2641   7.886   2.254   1.810 -1.9987  1.1660 -1.2149
  101bbb    H25 2642   8.010   2.256   2.235  0.2521 -0.7037  0.8169
  102bbb     N1 2643   8.148   5.617   2.228 -0.8567 -0.1185 -0.2617
  102bbb     C1 2644   8.154   5.487   2.296 -0.2089  0.1788 -0.0637
  102bbb     C2 2645   8.279   5.691   2.246  0.4572 -0.4597  0.8250
  102bbb     C3 2646   8.061   5.373   2.247  0.7188 -0.7591  0.1595
  102bbb     C4 2647   8.051   5.360   2.095  0.7087  0.4347  0.1285
  102bbb     C5 2648   8.320   5.715   2.395 -0.5386 -0.3470 -0.3026
  102bbb     C6 2649   8.357   5.589   2.474  1.0955  0.5721 -0.6205
  102bbb     C7 2650   8.031   5.700   2.286  0.2833  0.0003  0.3938
  102bbb     C8 2651   7.989   5.830   2.220 -0.3024 -0.3913 -0.0149
  102bbb     N2 2652   7.990   5.818   2.070 -0.0932  0.8777 -0.6548
  102bbb     O1 2653   8.007   5.446   2.031 -0.2410 -0.4102  0.0349
  102bbb     O2 2654   8.432   5.506   2.429 -0.4011 -0.5401 -0.3305
  102bbb     H1 2655   8.259   5.457   2.296 -0.1333  0.3966  0.8391
  102bbb     H2 2656   8.132   5.502   2.402 -2.9991  0.1275 -0.5518
  102bbb     H3 2657   8.283   5.775   2.177 -0.0802 -0.1927  1.1118
  102bbb     H4 2658   8.356   5.620   2.214 -1.1108 -2.4552  1.2646
  102bbb     H5 2659   8.100   5.280   2.289  1.8402 -0.8677 -1.0517
  102bbb     H6 2660   7.962   5.396   2.287  1.8512  1.2091  2.0758
  102bbb     H7 2661   8.245   5.773   2.449 -2.4104 -1.6959 -1.3325
  102bbb     H8 2662   8.410   5.776   2.405 -0.3515 -0.8054  1.2168
  102bbb     H9 2663   8.051   5.714   2.392 -0.6093 -1.0461  0.7155
  102bbb    H10 2664   7.948   5.631   2.273 -0.7247  0.6867  2.6772
  102bbb    H11 2665   8.058   5.905   2.260 -0.2837 -0.3222 -0.1738
  102bbb    H12 2666   7.884   5.845   2.251 -0.2523  1.6355 -0.6372
  102bbb    H13 2667   8.064   5.871   2.024 -0.8024  2.9127  0.4259
  102bbb    H25 2668   8.131   5.597   2.128 -1.4664 -1.0364  0.0097
  103bbb     N1 2669   8.619   5.520   1.308 -0.0446 -0.0981  0.8759
  103bbb     C1 2670   8.710   5.632   1.267 -1.1416 -0.1019 -0.0790
  103bbb     C2 2671   8.691   5.385   1.292 -0.6130  0.2156  0.0838
  103bbb     C3 2672   8.856   5.645   1.320  0.3968 -0.4587  0.1509
  103bbb     C4 2673   8.874   5.618   1.469 -0.4352  0.2885 -0.0651
  103bbb     C5 2674   8.746   5.349   1.149  0.5185 -0.0880  0.1312
  103bbb     C6 2675   8.808   5.215   1.152 -0.6249 -0.6964 -0.4622
  103bbb     C7 2676   8.489   5.537   1.235 -0.5033 -0.7236  0.2782
  103bbb     C8 2677   8.386   5.439   1.284  0.7290 -0.1176  0.4761
  103bbb     N2 2678   8.329   5.468   1.417  0.1722 -0.5890 -0.0471
  103bbb     O1 2679   8.812   5.535   1.538 -0.3598 -0.0003  0.0947
  103bbb     O2 2680   8.829   5.153   1.260 -0.2174  0.0070  0.0825
  103bbb     H1 2681   8.717   5.623   1.159 -2.3008 -2.9813 -0.0175
  103bbb     H2 2682   8.650   5.723   1.279 -0.2731  1.0574 -3.3454
  103bbb     H3 2683   8.620   5.310   1.326 -0.2695 -0.0279  0.2668
  103bbb     H4 2684   8.769   5.392   1.368 -1.4120  3.4798  0.7901
  103bbb     H5 2685   8.917   5.583   1.252 -1.3203  0.4734 -2.3710
  103bbb     H6 2686   8.891   5.745   1.294 -0.4533 -0.7354 -2.3984
  103bbb     H7 2687   8.814   5.425   1.111 -2.2889  2.4025 -0.3080
  103bbb     H8 2688   8.662   5.338   1.079  1.0102 -0.4232 -0.4094
  103bbb     H9 2689   8.528   5.508   1.137  2.7002 -6.5047  2.7379
  103bbb    H10 2690   8.460   5.642   1.243 -0.3808 -0.6588 -0.0809
  103bbb    H11 2691   8.424   5.336   1.286  4.3117  0.9895 -1.4996
  103bbb    H12 2692   8.306   5.448   1.209  1.0996  0.3045  0.1248
  103bbb    H13 2693   8.390   5.450   1.496  2.4471  0.4802 -1.4749
  103bbb    H25 2694   8.593   5.533   1.407 -0.6074 -1.6930  0.9610
  104bbb     N1 2695   7.423   6.435   2.620 -0.1502  0.1118  0.1547
  104bbb     C1 2696   7.447   6.359   2.753 -0.1909  0.1576 -0.3547
  104bbb     C2 2697   7.300   6.521   2.636 -0.2569 -0.1248  0.8622
  104bbb     C3 2698   7.602   6.300   2.753 -0.5874 -0.5000 -0.3286
  104bbb     C4 2699   7.613   6.183   2.856  0.6891 -0.5394 -0.2027
  104bbb     C5 2700   7.274   6.614   2.513  0.4461 -0.3880  0.1704
  104bbb     C6 2701   7.234   6.759   2.553  0.1255  0.7874 -0.6060
  104bbb     C7 2702   7.403   6.336   2.507  0.0386  0.3365  0.8006
  104bbb     C8 2703   7.270   6.261   2.505 -0.5107  0.2564 -0.5540
  104bbb     N2 2704   7.263   6.209   2.363  0.2769  0.4998 -0.2227
  104bbb     O1 2705   7.518   6.140   2.920 -0.4871 -0.3647 -0.0440
  104bbb     O2 2706   7.206   6.799   2.666 -0.2241  0.7297 -0.2071
  104bbb     H1 2707   7.439   6.430   2.835  0.4432 -1.5333  1.2391
  104bbb     H2 2708   7.370   6.283   2.762  0.3281 -0.2015  1.4517
  104bbb     H3 2709   7.323   6.574   2.729  0.9348 -0.4757  0.7844
  104bbb     H4 2710   7.212   6.462   2.662  1.4440 -2.0321  2.7051
  104bbb     H5 2711   7.618   6.254   2.654 -0.4746 -2.1815  0.4441
  104bbb     H6 2712   7.672   6.381   2.775 -1.0034 -0.0175 -0.7369
  104bbb     H7 2713   7.206   6.560   2.446  1.3769 -4.0300  1.9236
  104bbb     H8 2714   7.368   6.635   2.459 -0.8401  3.3004 -0.9935
  104bbb     H9 2715   7.487   6.266   2.509  0.8119  1.2436  0.7955
  104bbb    H10 2716   7.406   6.392   2.414 -2.0615 -2.6544 -1.2406
  104bbb    H11 2717   7.180   6.324   2.515 -0.1352  0.6802  0.1726
  104bbb    H12 2718   7.273   6.179   2.578  3.3487  0.0347 -0.7581
  104bbb    H13 2719   7.325   6.136   2.331  0.7765  1.0743 -0.5667
  104bbb    H25 2720   7.500   6.503   2.612 -0.8065  0.7449 -0.8898
  105bbb     N1 2721   7.399   5.932   1.448  0.2384 -0.4126 -0.4037
  105bbb     C1 2722   7.425   6.036   1.341  0.0979  0.1034 -0.1095
  105bbb     C2 2723   7.515   5.836   1.455 -0.6437 -0.0950 -0.0503
  105bbb     C3 2724   7.546   6.130   1.349  0.2831 -0.5102 -0.1452
  105bbb     C4 2725   7.527   6.267   1.276  0.0135  0.1306  0.1408
  105bbb     C5 2726   7.538   5.751   1.326 -0.2656  0.3751  0.5675
  105bbb     C6 2727   7.671   5.674   1.338  0.1527  0.2913  0.0750
  105bbb     C7 2728   7.270   5.867   1.413  0.3047  0.8298 -0.4483
  105bbb     C8 2729   7.203   5.795   1.532  0.6978  0.1752 -0.3820
  105bbb     N2 2730   7.171   5.897   1.635 -0.2612  0.0566  0.3134
  105bbb     O1 2731   7.450   6.287   1.187  0.0908 -0.4800  0.0331
  105bbb     O2 2732   7.766   5.701   1.416 -0.0602  0.0699 -0.1252
  105bbb     H1 2733   7.436   5.987   1.244  2.6587  1.8967 -0.8586
  105bbb     H2 2734   7.330   6.088   1.326  0.5234  0.8358 -0.3459
  105bbb     H3 2735   7.494   5.771   1.541  0.2842  0.5985  0.7323
  105bbb     H4 2736   7.606   5.891   1.480 -0.2189 -1.7759  2.5904
  105bbb     H5 2737   7.581   6.150   1.450 -1.1742  1.8290 -0.0369
  105bbb     H6 2738   7.630   6.079   1.300  1.8306  1.3437  0.4447
  105bbb     H7 2739   7.536   5.809   1.233  0.0276  0.4974  0.6345
  105bbb     H8 2740   7.460   5.674   1.319  1.4708 -1.6444  2.0994
  105bbb     H9 2741   7.284   5.788   1.339 -0.4520  0.5032 -0.2521
  105bbb    H10 2742   7.197   5.933   1.367  0.4419  0.6185 -0.9845
  105bbb    H11 2743   7.279   5.725   1.568  3.2351  3.6258  1.6929
  105bbb    H12 2744   7.111   5.742   1.505  1.0775  0.0483 -1.4916
  105bbb    H13 2745   7.198   5.992   1.616  1.6698 -0.3780  0.7030
  105bbb    H25 2746   7.386   5.982   1.538 -2.0609  0.4591 -1.1630
  106bbb     N1 2747   6.256   5.199   0.034 -0.1506  0.3270  0.0014
  106bbb     C1 2748   6.342   5.076  -0.016  0.1566  0.1678  0.3319
  106bbb     C2 2749   6.284   5.321  -0.055 -0.0915  0.3955  0.4441
  106bbb     C3 2750   6.298   4.937   0.022 -0.1020 -0.1176  0.0540
  106bbb     C4 2751   6.209   4.875  -0.087 -0.4379 -0.8731 -0.4267
  106bbb     C5 2752   6.202   5.318  -0.187 -0.1678  0.2067  0.6417
  106bbb     C6 2753   6.055   5.329  -0.167  0.9139  0.1150  0.3288
  106bbb     C7 2754   6.278   5.230   0.183 -0.6333 -0.7100 -0.1008
  106bbb     C8 2755   6.174   5.333   0.236 -0.7006  0.2905  0.1002
  106bbb     N2 2756   6.030   5.305   0.220  0.2260 -0.1018  0.1963
  106bbb     O1 2757   6.121   4.937  -0.149 -0.2078  0.3030 -0.3855
  106bbb     O2 2758   5.996   5.263  -0.081 -0.0646  0.5361  0.4668
  106bbb     H1 2759   6.347   5.090  -0.124  0.5861  0.3261  0.3732
  106bbb     H2 2760   6.442   5.089   0.024  0.8535  0.7659 -1.5037
  106bbb     H3 2761   6.388   5.318  -0.089 -0.0913  0.6463  0.4203
  106bbb     H4 2762   6.255   5.403   0.011 -0.6596 -1.1959  2.2406
  106bbb     H5 2763   6.387   4.875   0.036 -1.1921 -1.5306  1.0870
  106bbb     H6 2764   6.245   4.943   0.119 -1.4180  1.1275 -0.6950
  106bbb     H7 2765   6.227   5.219  -0.229  2.1747  0.4773  1.2166
  106bbb     H8 2766   6.236   5.402  -0.249  0.8503 -0.4870  0.2115
  106bbb     H9 2767   6.381   5.265   0.185 -1.6263  2.5014 -0.3579
  106bbb    H10 2768   6.265   5.133   0.232  1.9564 -1.0182  0.1138
  106bbb    H11 2769   6.198   5.431   0.192 -0.8350 -0.2215 -1.1348
  106bbb    H12 2770   6.188   5.347   0.344 -1.1412 -1.9234  0.4815
  106bbb    H13 2771   5.990   5.326   0.129  1.1720  0.3508 -0.1335
  106bbb    H25 2772   6.157   5.173   0.018 -0.2314  0.5014  0.2136
  107bbb     N1 2773   5.381   4.493   0.648  0.6436 -0.0863 -0.1070
  107bbb     C1 2774   5.277   4.403   0.593 -0.1447  0.0113  0.1070
  107bbb     C2 2775   5.461   4.408   0.749 -0.5369  0.3340  0.2747
  107bbb     C3 2776   5.302   4.374   0.440 -0.0917 -0.4635  0.5219
  107bbb     C4 2777   5.209   4.261   0.387  0.5823  0.4767  0.6949
  107bbb     C5 2778   5.558   4.292   0.684 -0.4946 -0.4273  0.7602
  107bbb     C6 2779   5.698   4.345   0.609  0.3152  0.4179 -0.5454
  107bbb     C7 2780   5.324   4.616   0.716  0.1654 -0.1250 -0.1413
  107bbb     C8 2781   5.431   4.717   0.762  0.6242 -0.4363  0.2293
  107bbb     N2 2782   5.490   4.796   0.655 -0.0429  0.2562 -0.1305
  107bbb     O1 2783   5.112   4.226   0.451 -0.0304 -0.2312 -0.0329
  107bbb     O2 2784   5.629   4.429   0.553 -0.2212 -0.0403 -0.2365
  107bbb     H1 2785   5.253   4.321   0.661 -1.3240  0.1955 -0.0606
  107bbb     H2 2786   5.188   4.466   0.594  0.1485  0.5013 -1.6488
  107bbb     H3 2787   5.395   4.354   0.817  1.6854 -1.9494  0.7653
  107bbb     H4 2788   5.525   4.475   0.807  0.6245 -0.8741  0.4532
  107bbb     H5 2789   5.283   4.459   0.373  1.1637 -0.4925  0.0876
  107bbb     H6 2790   5.406   4.353   0.410 -0.0808  0.6745 -0.3342
  107bbb     H7 2791   5.504   4.237   0.606  1.5751 -0.2130 -0.9410
  107bbb     H8 2792   5.551   4.205   0.750 -3.3913 -1.2945 -0.5360
  107bbb     H9 2793   5.269   4.588   0.806 -0.9950  0.8382 -0.5234
  107bbb    H10 2794   5.260   4.663   0.641 -0.7844 -0.4544  0.4346
  107bbb    H11 2795   5.514   4.670   0.817  1.0872  1.6065  1.3797
  107bbb    H12 2796   5.385   4.784   0.836 -2.2776 -1.0465 -0.8919
  107bbb    H13 2797   5.429   4.828   0.580 -0.4937  1.7071  0.8217
  107bbb    H25 2798   5.448   4.520   0.574  0.6376 -3.1840 -1.3847
  108bbb     N1 2799   7.471   5.880   0.061 -0.2364 -0.3096 -0.0262
  108bbb     C1 2800   7.465   5.990   0.163 -0.1922  0.1007 -0.0432
  108bbb     C2 2801   7.442   5.925  -0.075  0.3607  0.6555  0.5215
  108bbb     C3 2802   7.575   5.991   0.272  0.9572 -0.7656  0.2993
  108bbb     C4 2803   7.715   6.030   0.220  0.0782  0.0884  0.8492
  108bbb     C5 2804   7.542   5.872  -0.181  0.5022  0.4500  0.1471
  108bbb     C6 2805   7.493   5.892  -0.328 -0.7889  0.0287 -0.1006
  108bbb     C7 2806   7.367   5.773   0.107  0.4234 -0.1972  0.2486
  108bbb     C8 2807   7.343   5.648   0.018 -0.3837  0.0616  0.0257
  108bbb     N2 2808   7.232   5.564   0.058 -0.6897  0.0809  0.2249
  108bbb     O1 2809   7.736   6.035   0.101  0.8996  0.0486  0.8386
  108bbb     O2 2810   7.378   5.916  -0.356  1.1972  0.2814 -0.8630
  108bbb     H1 2811   7.474   6.084   0.108  3.5375 -0.1354 -0.0818
  108bbb     H2 2812   7.366   5.985   0.211 -0.2481  1.1102 -0.0220
  108bbb     H3 2813   7.444   6.034  -0.079  2.1604  0.6642  0.8544
  108bbb     H4 2814   7.340   5.896  -0.099  0.9886  0.1042 -1.7126
  108bbb     H5 2815   7.535   6.055   0.352 -1.3751 -2.6007  0.6966
  108bbb     H6 2816   7.595   5.890   0.309 -0.1709 -2.0306 -2.2882
  108bbb     H7 2817   7.539   5.763  -0.172  0.3472  0.4848  0.5121
  108bbb     H8 2818   7.640   5.917  -0.163  0.2526  1.0676 -0.0281
  108bbb     H9 2819   7.270   5.815   0.136 -1.4555 -1.3023 -3.7526
  108bbb    H10 2820   7.408   5.733   0.200  1.5309  1.5828  0.5807
  108bbb    H11 2821   7.438   5.593   0.018 -1.0206 -1.1469 -1.6785
  108bbb    H12 2822   7.322   5.685  -0.083  0.7395  0.0266 -0.2318
  108bbb    H13 2823   7.178   5.586   0.141 -0.1203 -1.0434  0.9375
  108bbb    H25 2824   7.568   5.845   0.062  0.0162  0.2292 -2.1291
  109bbb     N1 2825   6.365   5.089  -0.651 -0.1384  0.8291 -0.6317
  109bbb     C1 2826   6.233   5.115  -0.582 -0.6954 -0.2823 -0.6843
  109bbb     C2 2827   6.365   4.954  -0.722 -0.1472  0.6390  0.4112
  109bbb     C3 2828   6.179   5.004  -0.482  0.5661  0.2107  0.1636
  109bbb     C4 2829   6.043   5.039  -0.426  0.3202 -0.5779  0.1066
  109bbb     C5 2830   6.288   4.939  -0.850  0.1323 -0.3115 -0.2098
  109bbb     C6 2831   6.319   4.808  -0.922 -1.0055 -0.7059  0.0642
  109bbb     C7 2832   6.481   5.088  -0.559  0.2448  0.4829  0.1606
  109bbb     C8 2833   6.525   5.223  -0.496  0.4337  0.0754 -0.2287
  109bbb     N2 2834   6.635   5.178  -0.408 -0.1689 -0.4296 -0.3230
  109bbb     O1 2835   6.001   5.146  -0.395 -0.6621 -0.1469  0.2015
  109bbb     O2 2836   6.413   4.732  -0.891 -0.0417 -0.7486 -0.9047
  109bbb     H1 2837   6.251   5.208  -0.528  1.1028 -1.5870  1.0964
  109bbb     H2 2838   6.158   5.131  -0.659 -1.2124  2.5290  0.2740
  109bbb     H3 2839   6.334   4.873  -0.656  0.5417  0.1421  0.1334
  109bbb     H4 2840   6.469   4.929  -0.744  0.7315  3.0409  1.4856
  109bbb     H5 2841   6.183   4.901  -0.519  4.3789  0.0828  0.4771
  109bbb     H6 2842   6.240   5.000  -0.391  2.2198  1.6655 -0.8197
  109bbb     H7 2843   6.307   5.026  -0.915  0.0787  1.2345  1.7569
  109bbb     H8 2844   6.181   4.944  -0.827  0.7604  0.3144  2.9481
  109bbb     H9 2845   6.560   5.055  -0.627  0.1219 -2.1688  1.1769
  109bbb    H10 2846   6.466   5.012  -0.482 -2.6663 -0.3843 -1.1488
  109bbb    H11 2847   6.433   5.261  -0.450  0.1234  0.4904 -1.1631
  109bbb    H12 2848   6.553   5.302  -0.567  0.6421 -0.4592 -0.7554
  109bbb    H13 2849   6.710   5.132  -0.459  0.4486  0.0113  0.1789
  109bbb    H25 2850   6.376   5.165  -0.719  0.1077  0.3085 -1.1814
  110bbb     N1 2851   5.393   1.226   2.168  0.2826  0.3744 -0.2800
  110bbb     C1 2852   5.472   1.199   2.300 -0.1226 -0.0391  0.3758
  110bbb     C2 2853   5.474   1.306   2.061 -0.2074 -0.6695 -0.4691
  110bbb     C3 2854   5.385   1.135   2.407  0.3511 -0.1727 -0.1111
  110bbb     C4 2855   5.467   1.086   2.531  0.4289  1.0502 -0.6172
  110bbb     C5 2856   5.616   1.254   2.038  0.2997 -0.0096 -0.0368
  110bbb     C6 2857   5.692   1.324   1.927 -0.5087 -0.3131 -0.0409
  110bbb     C7 2858   5.268   1.312   2.192 -0.0195  0.0653 -0.2377
  110bbb     C8 2859   5.184   1.351   2.063 -0.0417  0.4851 -0.9151
  110bbb     N2 2860   5.063   1.426   2.101 -0.2384 -0.0185  0.6166
  110bbb     O1 2861   5.547   1.156   2.587  0.2094  0.6454  0.3845
  110bbb     O2 2862   5.650   1.422   1.865  0.4676  0.3910 -0.3925
  110bbb     H1 2863   5.560   1.140   2.274  1.4147  2.1772  0.2564
  110bbb     H2 2864   5.505   1.296   2.336  1.6391 -0.3044 -0.4161
  110bbb     H3 2865   5.485   1.407   2.100 -1.1864 -0.7937  0.1517
  110bbb     H4 2866   5.425   1.302   1.964 -0.3009  0.9648 -0.5107
  110bbb     H5 2867   5.317   1.211   2.447 -1.4248 -1.4321 -0.5902
  110bbb     H6 2868   5.320   1.054   2.371 -1.2780  1.2734 -0.5684
  110bbb     H7 2869   5.598   1.148   2.017 -0.0770  0.0314  0.0729
  110bbb     H8 2870   5.677   1.274   2.127  0.0958 -0.8966  0.3219
  110bbb     H9 2871   5.303   1.406   2.235 -1.6153  0.2820  0.6761
  110bbb    H10 2872   5.199   1.265   2.262  0.4426 -0.0438  0.1499
  110bbb    H11 2873   5.165   1.260   2.005 -0.8001  0.8673 -1.2864
  110bbb    H12 2874   5.238   1.421   1.998  0.5977 -0.0683 -0.9912
  110bbb    H13 2875   5.052   1.464   2.194 -1.1289 -0.6256  0.7702
  110bbb    H25 2876   5.378   1.134   2.125  0.1660 -0.7224  2.0155
  111bbb     N1 2877   3.927   1.106   2.163 -0.3561 -0.1413 -0.1659
  111bbb     C1 2878   3.945   1.145   2.315  0.5393  0.4577  0.7240
  111bbb     C2 2879   3.806   1.020   2.129  0.1708  0.0997 -0.3076
  111bbb     C3 2880   3.817   1.216   2.366 -0.6765 -0.3475  0.4920
  111bbb     C4 2881   3.793   1.346   2.293 -0.1105 -0.2699 -0.1615
  111bbb     C5 2882   3.784   0.991   1.983 -0.7516  0.1933 -0.0369
  111bbb     C6 2883   3.754   1.111   1.899 -0.5401  0.3839  0.4946
  111bbb     C7 2884   4.059   1.045   2.128  0.7014  0.0045 -0.7309
  111bbb     C8 2885   4.136   1.108   2.015  0.1957  0.2692  0.6574
  111bbb     N2 2886   4.222   1.215   2.066  0.2169 -0.2402  0.2430
  111bbb     O1 2887   3.857   1.384   2.195  0.8227 -0.2906 -0.2909
  111bbb     O2 2888   3.743   1.224   1.943  0.2546  0.5006  0.7699
  111bbb     H1 2889   3.965   1.054   2.372 -0.2722  1.3198  2.4669
  111bbb     H2 2890   4.034   1.206   2.327  2.3951 -2.1101  0.9396
  111bbb     H3 2891   3.713   1.066   2.162 -1.3480 -1.4799 -2.1716
  111bbb     H4 2892   3.819   0.920   2.172 -3.0010 -1.8285 -3.2848
  111bbb     H5 2893   3.726   1.158   2.347 -1.8882  0.8308  2.3439
  111bbb     H6 2894   3.822   1.240   2.473  0.9715  3.1205 -0.2274
  111bbb     H7 2895   3.692   0.932   1.981 -2.1451  2.2510 -1.9891
  111bbb     H8 2896   3.866   0.936   1.935  0.0171  2.3461 -1.3407
  111bbb     H9 2897   4.036   0.943   2.097  1.4062 -0.6901  0.8926
  111bbb    H10 2898   4.120   1.039   2.218 -0.4681  1.6537  0.2234
  111bbb    H11 2899   4.056   1.140   1.947  0.9968 -2.0769 -1.5528
  111bbb    H12 2900   4.200   1.030   1.971 -0.5405  1.4644 -2.8274
  111bbb    H13 2901   4.236   1.232   2.165 -0.4271  2.6423 -0.0638
  111bbb    H25 2902   3.917   1.187   2.101  0.2970  0.1734  0.1274
  112bbb     N1 2903   5.601   2.655   0.740 -0.4464  0.7089  0.4554
  112bbb     C1 2904   5.722   2.709   0.815 -0.3431 -0.0712  0.4886
  112bbb     C2 2905   5.625   2.652   0.587  0.4593  0.1480  0.2058
  112bbb     C3 2906   5.845   2.615   0.808 -0.2150  0.3849 -0.1271
  112bbb     C4 2907   5.964   2.649   0.907  0.9392 -0.8317 -0.3269
  112bbb     C5 2908   5.521   2.578   0.502 -0.1478  0.6233  0.2868
  112bbb     C6 2909   5.543   2.588   0.350  0.4564  0.2467 -0.3824
  112bbb     C7 2910   5.487   2.754   0.762 -0.2346 -0.4295 -0.1560
  112bbb     C8 2911   5.428   2.750   0.908 -0.7060 -0.0404  0.1579
  112bbb     N2 2912   5.296   2.813   0.903 -0.1704  0.0822  0.1743
  112bbb     O1 2913   5.958   2.625   1.026 -0.0952 -0.1865 -0.3320
  112bbb     O2 2914   5.641   2.641   0.304 -0.0220 -0.3264  0.4850
  112bbb     H1 2915   5.754   2.810   0.791  0.8529  0.2838  3.1833
  112bbb     H2 2916   5.692   2.719   0.919  0.6721  2.5399  0.6097
  112bbb     H3 2917   5.710   2.586   0.566  0.2118 -0.0227 -0.2746
  112bbb     H4 2918   5.630   2.756   0.556 -1.2149  0.1051 -0.3123
  112bbb     H5 2919   5.818   2.512   0.832 -0.9918  0.5518 -0.2593
  112bbb     H6 2920   5.879   2.610   0.703  1.2534  0.6011  0.3148
  112bbb     H7 2921   5.425   2.625   0.529 -1.1046 -0.1362 -1.6185
  112bbb     H8 2922   5.523   2.473   0.534  0.2595 -0.1876 -2.1695
  112bbb     H9 2923   5.405   2.726   0.696 -0.4060 -0.2043 -0.0384
  112bbb    H10 2924   5.510   2.853   0.723  1.6023 -0.7632 -0.0143
  112bbb    H11 2925   5.490   2.802   0.981  2.6257 -2.4174 -0.7432
  112bbb    H12 2926   5.419   2.646   0.943  1.5463 -0.0220  0.9447
  112bbb    H13 2927   5.276   2.878   0.828 -1.7261  1.8411  1.9959
  112bbb    H25 2928   5.575   2.562   0.774 -1.8992 -0.0333 -2.3733
  113bbb     N1 2929   4.604   1.915   0.583 -0.5316  0.5148  0.0354
  113bbb     C1 2930   4.712   1.887   0.686 -0.1584  0.5717 -0.3877
  113bbb     C2 2931   4.622   1.819   0.457  0.1907  0.0288 -0.0189
  113bbb     C3 2932   4.694   1.950   0.830  0.1647 -0.0142 -0.0156
  113bbb     C4 2933   4.564   1.921   0.900 -0.4522 -0.3205  0.6462
  113bbb     C5 2934   4.588   1.667   0.490  0.4207 -0.0575  0.2414
  113bbb     C6 2935   4.441   1.646   0.518  0.0264  0.2338 -0.2146
  113bbb     C7 2936   4.621   2.057   0.527 -0.2876 -0.4734  0.5851
  113bbb     C8 2937   4.764   2.107   0.473  0.0942  0.0473  0.0086
  113bbb     N2 2938   4.846   2.180   0.568  0.4290 -0.5183 -0.0656
  113bbb     O1 2939   4.458   1.942   0.846 -0.3739 -0.3192 -0.1201
  113bbb     O2 2940   4.358   1.717   0.475 -0.0336 -0.1099  0.5528
  113bbb     H1 2941   4.724   1.779   0.692 -1.0270  0.5257  0.7809
  113bbb     H2 2942   4.808   1.916   0.644  0.1036 -1.2126 -1.1145
  113bbb     H3 2943   4.728   1.823   0.431  0.3407  1.5713  0.6898
  113bbb     H4 2944   4.557   1.857   0.378 -0.1372 -1.1706 -0.3470
  113bbb     H5 2945   4.763   1.900   0.899 -0.7041 -3.0666 -1.1856
  113bbb     H6 2946   4.713   2.058   0.829  1.4829 -0.2052 -2.0811
  113bbb     H7 2947   4.659   1.630   0.564  2.0059  0.1259 -1.1367
  113bbb     H8 2948   4.615   1.603   0.405 -0.3234 -0.5898  0.4005
  113bbb     H9 2949   4.578   2.131   0.595 -2.2495 -0.5914 -0.4458
  113bbb    H10 2950   4.555   2.066   0.441  1.8619 -2.0495 -1.3451
  113bbb    H11 2951   4.757   2.155   0.375  0.5780  0.4360  0.1577
  113bbb    H12 2952   4.829   2.022   0.451  1.1808  1.2432 -1.6267
  113bbb    H13 2953   4.911   2.128   0.626  0.7576  2.0543  2.0767
  113bbb    H25 2954   4.508   1.916   0.621 -1.2849  1.8195 -1.8059
  114bbb     N1 2955   3.089   3.452   0.116  0.2030 -0.1332  0.2781
  114bbb     C1 2956   3.244   3.452   0.112 -0.0072 -0.3525 -0.4038
  114bbb     C2 2957   3.035   3.436  -0.028  1.0209  0.0115  0.9708
  114bbb     C3 2958   3.295   3.306   0.104 -0.3088  0.6098  0.0491
  114bbb     C4 2959   3.263   3.218   0.223 -0.5112  0.7576 -0.3459
  114bbb     C5 2960   2.882   3.409  -0.031 -0.1196 -0.0202 -0.3522
  114bbb     C6 2961   2.820   3.394  -0.166 -0.0405 -0.3445  0.1890
  114bbb     C7 2962   3.039   3.572   0.189 -0.1528  0.1253  0.2076
  114bbb     C8 2963   3.075   3.580   0.338  0.8078  0.5051  0.5543
  114bbb     N2 2964   3.044   3.454   0.408 -0.3076  0.1480  0.1280
  114bbb     O1 2965   3.248   3.261   0.338  0.0692 -0.2258  0.1515
  114bbb     O2 2966   2.860   3.455  -0.260  0.0094 -0.3063 -0.2439
  114bbb     H1 2967   3.284   3.512   0.030 -1.1332  0.5458 -0.3346
  114bbb     H2 2968   3.275   3.500   0.205 -1.0031  1.4089 -0.9160
  114bbb     H3 2969   3.086   3.352  -0.077 -1.0965 -0.3920 -0.6838
  114bbb     H4 2970   3.056   3.527  -0.083 -0.4083 -0.4005 -0.3415
  114bbb     H5 2971   3.267   3.262   0.008  0.5271  2.4069 -1.0633
  114bbb     H6 2972   3.404   3.311   0.107 -0.1942  0.4292 -2.2837
  114bbb     H7 2973   2.835   3.503   0.001 -0.4892  0.3131 -1.7728
  114bbb     H8 2974   2.848   3.328   0.034  1.2870  0.5955  1.2337
  114bbb     H9 2975   2.931   3.590   0.187 -0.0868  0.5008 -0.1834
  114bbb    H10 2976   3.086   3.656   0.137  2.0087  0.3563  2.3219
  114bbb    H11 2977   2.997   3.646   0.377  0.5292 -0.0205  0.8921
  114bbb    H12 2978   3.179   3.616   0.344  1.6336 -0.4563 -3.9434
  114bbb    H13 2979   2.989   3.382   0.363  0.5080  0.9098 -2.2443
  114bbb    H25 2980   3.055   3.371   0.170 -3.7210  0.3259 -1.2090
  115bbb     N1 2981   2.379   2.753   1.048 -0.7794 -0.3108 -0.2812
  115bbb     C1 2982   2.287   2.818   1.152 -0.0731  0.1594  0.5689
  115bbb     C2 2983   2.521   2.727   1.105  1.1235  0.3276  0.0569
  115bbb     C3 2984   2.141   2.807   1.111  0.6488  0.8543  0.3694
  115bbb     C4 2985   2.040   2.842   1.220 -0.0565 -0.4531 -0.2879
  115bbb     C5 2986   2.522   2.632   1.231  0.3069  0.2671  0.0622
  115bbb     C6 2987   2.473   2.493   1.208 -0.1953  0.3001  0.6136
  115bbb     C7 2988   2.388   2.831   0.917 -0.0809  0.2271 -0.0147
  115bbb     C8 2989   2.462   2.967   0.918  0.3798  0.5629  0.3281
  115bbb     N2 2990   2.609   2.968   0.905 -0.4596 -0.7670  0.1267
  115bbb     O1 2991   2.077   2.848   1.334 -0.3771  0.0915  0.2578
  115bbb     O2 2992   2.409   2.469   1.106 -0.6720 -0.1979  0.1830
  115bbb     H1 2993   2.301   2.764   1.246  1.1430 -0.4282  0.0622
  115bbb     H2 2994   2.304   2.926   1.157 -3.2575  0.8215 -0.6370
  115bbb     H3 2995   2.546   2.830   1.131  1.9163  0.1149  0.1642
  115bbb     H4 2996   2.590   2.697   1.026 -0.9636 -2.3275 -0.8866
  115bbb     H5 2997   2.124   2.879   1.031 -0.4384  0.4076  0.1858
  115bbb     H6 2998   2.119   2.709   1.066 -1.6960  1.5689 -0.1443
  115bbb     H7 2999   2.453   2.663   1.310  0.7517 -3.7305  2.2333
  115bbb     H8 3000   2.619   2.617   1.278  0.8080  0.9450 -0.7226
  115bbb     H9 3001   2.287   2.853   0.882  0.2087  1.9007  0.1152
  115bbb    H10 3002   2.435   2.769   0.840 -0.3311  0.6589 -0.5282
  115bbb    H11 3003   2.423   2.999   1.015  0.8109  0.7343  0.4431
  115bbb    H12 3004   2.420   3.032   0.840 -2.0792 -1.6700 -0.3544
  115bbb    H13 3005   2.662   2.895   0.858  0.8075  0.0279  0.2770
  115bbb    H25 3006   2.342   2.659   1.029  0.3602 -1.1394  1.3941
  116bbb     N1 3007   4.751   3.258  -0.013  0.2072 -0.2025 -0.1316
  116bbb     C1 3008   4.737   3.131   0.075 -0.1934  0.6182 -0.7435
  116bbb     C2 3009   4.814   3.203  -0.145 -0.3879  0.0010  0.1431
  116bbb     C3 3010   4.609   3.047   0.059  0.3672 -0.2332 -0.7262
  116bbb     C4 3011   4.479   3.125   0.090 -0.3668  0.3828  0.1597
  116bbb     C5 3012   4.799   3.297  -0.264  0.0907 -0.1598  0.0224
  116bbb     C6 3013   4.804   3.222  -0.397 -0.0301  0.1891 -0.3382
  116bbb     C7 3014   4.830   3.367   0.052 -0.1699 -0.1969  0.1465
  116bbb     C8 3015   4.757   3.449   0.160  0.3469 -0.1506  0.3988
  116bbb     N2 3016   4.656   3.532   0.094 -0.3583 -0.7434 -0.8001
  116bbb     O1 3017   4.459   3.247   0.091 -0.0384  0.1900 -0.3283
  116bbb     O2 3018   4.785   3.103  -0.403  0.7368 -0.0206  0.0116
  116bbb     H1 3019   4.830   3.075   0.062 -0.3420  0.0278  0.6281
  116bbb     H2 3020   4.739   3.171   0.176 -3.5233  4.1638 -1.8243
  116bbb     H3 3021   4.754   3.116  -0.173  0.1694 -0.5613  0.6868
  116bbb     H4 3022   4.919   3.177  -0.131 -0.5217 -0.5487  0.1596
  116bbb     H5 3023   4.596   3.011  -0.044 -0.2578  2.3998 -1.6665
  116bbb     H6 3024   4.612   2.968   0.135  1.8836 -1.0555 -1.5899
  116bbb     H7 3025   4.878   3.372  -0.255  1.3320 -1.5470  1.3726
  116bbb     H8 3026   4.702   3.348  -0.260  0.2394  0.3879 -2.0081
  116bbb     H9 3027   4.854   3.433  -0.031 -0.3819 -1.7456 -1.2160
  116bbb    H10 3028   4.920   3.318   0.089  1.1790  1.9767 -0.1217
  116bbb    H11 3029   4.832   3.507   0.216  0.1077  1.1231 -0.5522
  116bbb    H12 3030   4.705   3.378   0.225  3.3469 -0.6514  2.4595
  116bbb    H13 3031   4.651   3.534  -0.007 -0.4988 -1.2810 -0.8062
  116bbb    H25 3032   4.656   3.292  -0.031  0.7316  0.6271 -1.4666
  117bbb     N1 3033   4.249   3.999  -0.351  0.2587 -0.2584  0.6518
  117bbb     C1 3034   4.300   3.910  -0.457 -0.4597  0.6646  0.3929
  117bbb     C2 3035   4.336   4.132  -0.361  0.9334 -0.3237 -0.2626
  117bbb     C3 3036   4.196   3.874  -0.561 -0.0279 -0.5305  0.1992
  117bbb     C4 3037   4.079   3.812  -0.497  0.7593 -0.0723 -0.4016
  117bbb     C5 3038   4.269   4.215  -0.473  0.1113  0.1681  0.0498
  117bbb     C6 3039   4.325   4.355  -0.489 -0.0908  0.3034 -0.6320
  117bbb     C7 3040   4.265   3.942  -0.213 -0.4747  0.2665  0.0020
  117bbb     C8 3041   4.177   3.813  -0.179 -0.6133 -0.4895  0.7291
  117bbb     N2 3042   4.191   3.756  -0.046 -0.1642 -0.3339 -0.4371
  117bbb     O1 3043   4.004   3.877  -0.425 -0.0939 -0.2775 -0.2093
  117bbb     O2 3044   4.377   4.413  -0.397 -0.1866 -0.4504  0.3554
  117bbb     H1 3045   4.390   3.947  -0.508  0.3677  0.5504  1.7344
  117bbb     H2 3046   4.329   3.814  -0.416  1.0742  1.0994  0.3890
  117bbb     H3 3047   4.436   4.102  -0.393  0.8240  1.3708 -2.4694
  117bbb     H4 3048   4.322   4.194  -0.272 -0.1272  0.1864 -0.7639
  117bbb     H5 3049   4.170   3.966  -0.615  2.4815 -0.1361 -0.4645
  117bbb     H6 3050   4.229   3.796  -0.631 -1.7236 -1.4762  0.3991
  117bbb     H7 3051   4.161   4.219  -0.453  0.1548  1.4597  0.0865
  117bbb     H8 3052   4.280   4.170  -0.572 -3.1553  3.7256 -2.2196
  117bbb     H9 3053   4.239   4.029  -0.151 -0.1058 -0.2093  0.8416
  117bbb    H10 3054   4.371   3.925  -0.193 -0.7694 -0.2355  1.2800
  117bbb    H11 3055   4.200   3.730  -0.247  0.7768  1.0510 -0.7595
  117bbb    H12 3056   4.070   3.838  -0.182 -0.8554 -1.4040  1.2739
  117bbb    H13 3057   4.263   3.790   0.018  1.4095 -1.3298 -1.6105
  117bbb    H25 3058   4.148   4.019  -0.362  0.3761 -0.3430 -0.7173
  118bbb     N1 3059   4.267   3.760   1.553 -0.2801  0.2269 -0.0939
  118bbb     C1 3060   4.381   3.728   1.649 -0.9231 -0.3060  0.5643
  118bbb     C2 3061   4.243   3.639   1.461 -0.2622  0.2185 -0.4077
  118bbb     C3 3062   4.350   3.633   1.762 -0.7297 -0.0544 -0.0773
  118bbb     C4 3063   4.261   3.695   1.863  0.4858 -0.5779  0.4195
  118bbb     C5 3064   4.358   3.587   1.363  0.1781 -0.4952  0.0937
  118bbb     C6 3065   4.433   3.463   1.410  0.2367  0.0198 -0.2691
  118bbb     C7 3066   4.297   3.885   1.475 -0.4826 -0.0294 -0.2057
  118bbb     C8 3067   4.288   4.017   1.558  0.2657  0.0643 -0.6405
  118bbb     N2 3068   4.147   4.044   1.607  0.3041  0.1394 -0.2015
  118bbb     O1 3069   4.162   3.760   1.827  0.5577 -0.0288  0.4111
  118bbb     O2 3070   4.435   3.420   1.525 -0.5096 -0.1502 -0.1266
  118bbb     H1 3071   4.452   3.678   1.582  0.6994  1.3250  0.9641
  118bbb     H2 3072   4.436   3.814   1.686 -0.4718 -0.8917  1.2914
  118bbb     H3 3073   4.153   3.671   1.407 -2.7278 -1.6296  2.3431
  118bbb     H4 3074   4.201   3.561   1.523 -0.3579  0.0507 -0.6812
  118bbb     H5 3075   4.314   3.534   1.729  0.1485  0.2838 -2.1571
  118bbb     H6 3076   4.445   3.617   1.814 -0.5768  2.3375  0.4959
  118bbb     H7 3077   4.434   3.665   1.363 -0.3145 -0.0103  0.0939
  118bbb     H8 3078   4.328   3.575   1.258 -0.1670  0.8615  0.0232
  118bbb     H9 3079   4.221   3.888   1.396 -0.8911  1.4625  0.2041
  118bbb    H10 3080   4.402   3.883   1.443 -0.3734  2.7443 -0.2861
  118bbb    H11 3081   4.323   4.096   1.489  1.3311  0.0749 -0.1137
  118bbb    H12 3082   4.357   4.003   1.642  1.5365 -1.0914 -1.8050
  118bbb    H13 3083   4.061   4.025   1.558 -0.5856  1.5324  0.7395
  118bbb    H25 3084   4.182   3.774   1.610  0.1021 -3.1520  1.5167
  119bbb     N1 3085   4.059   4.438   2.585  0.1074  0.1990  0.1427
  119bbb     C1 3086   4.129   4.572   2.627 -0.9174  0.5183 -0.3686
  119bbb     C2 3087   3.996   4.351   2.695  0.1233  0.2575 -0.7124
  119bbb     C3 3088   4.049   4.668   2.714 -0.7634 -0.1826  0.1516
  119bbb     C4 3089   4.136   4.781   2.766  0.1043  0.2644 -0.7610
  119bbb     C5 3090   4.094   4.281   2.794 -0.2159 -0.4895 -0.5094
  119bbb     C6 3091   4.023   4.161   2.858 -0.1704 -0.1837 -0.2579
  119bbb     C7 3092   4.148   4.359   2.498 -0.1893  0.5244  0.4321
  119bbb     C8 3093   4.082   4.225   2.445  0.3527  0.2759 -0.4199
  119bbb     N2 3094   4.142   4.162   2.323  0.6230  0.2898  0.1712
  119bbb     O1 3095   4.256   4.777   2.754 -0.5101  0.3280 -0.2963
  119bbb     O2 3096   3.998   4.063   2.791 -0.1154  0.5454 -1.1680
  119bbb     H1 3097   4.220   4.545   2.680  0.0988  0.0684 -2.2521
  119bbb     H2 3098   4.159   4.628   2.539  1.3025  1.6007  1.0077
  119bbb     H3 3099   3.935   4.279   2.642 -1.9880  1.8179 -0.5165
  119bbb     H4 3100   3.932   4.416   2.756  0.1496 -0.1052 -0.2940
  119bbb     H5 3101   3.958   4.705   2.666 -1.7250 -1.6876  0.7446
  119bbb     H6 3102   4.015   4.604   2.796  0.2732 -2.6228 -1.1801
  119bbb     H7 3103   4.136   4.349   2.871 -0.7546 -0.5919 -0.1214
  119bbb     H8 3104   4.181   4.241   2.741 -0.6938 -2.0976 -0.1371
  119bbb     H9 3105   4.247   4.341   2.542  0.6105  1.4657 -0.9149
  119bbb    H10 3106   4.160   4.420   2.409  1.6110 -1.4766 -0.8133
  119bbb    H11 3107   3.974   4.240   2.431 -0.0545  1.4454  3.0222
  119bbb    H12 3108   4.096   4.148   2.522  0.4180  1.1910  0.5129
  119bbb    H13 3109   4.228   4.200   2.287  1.5213 -1.7463  0.0108
  119bbb    H25 3110   3.983   4.458   2.518  0.9186  0.1170 -0.8336
  120bbb     N1 3111   3.326   4.682   3.579  0.1187  0.0644  0.1255
  120bbb     C1 3112   3.206   4.770   3.553 -0.1426 -0.0578 -0.2705
  120bbb     C2 3113   3.362   4.701   3.736  0.1519  0.4763  0.5600
  120bbb     C3 3114   3.121   4.727   3.425 -0.1698 -0.5128 -0.3413
  120bbb     C4 3115   2.976   4.752   3.451  0.9451 -0.0448 -0.0772
  120bbb     C5 3116   3.446   4.598   3.810 -0.8150  0.4590  0.0227
  120bbb     C6 3117   3.436   4.614   3.962  0.5264 -0.6577 -0.4487
  120bbb     C7 3118   3.437   4.735   3.487  0.6513  0.1469 -0.3860
  120bbb     C8 3119   3.550   4.635   3.446 -0.2857 -0.7266 -0.2356
  120bbb     N2 3120   3.491   4.511   3.392 -0.5782 -0.1062 -0.4161
  120bbb     O1 3121   2.929   4.746   3.564  0.4933  0.1654 -0.2530
  120bbb     O2 3122   3.358   4.694   4.016 -0.0267 -0.1386 -0.2156
  120bbb     H1 3123   3.147   4.762   3.645  0.9399  0.5450  0.4880
  120bbb     H2 3124   3.226   4.876   3.543 -1.9873  0.2187 -1.5560
  120bbb     H3 3125   3.269   4.700   3.793 -0.0034 -1.6338  0.3293
  120bbb     H4 3126   3.406   4.799   3.758 -1.2021  1.3579 -0.4351
  120bbb     H5 3127   3.153   4.790   3.341 -0.8582  0.2101 -0.0804
  120bbb     H6 3128   3.121   4.619   3.407 -1.0865 -0.5975  0.0992
  120bbb     H7 3129   3.552   4.594   3.781 -0.4776 -1.0850  1.3531
  120bbb     H8 3130   3.405   4.498   3.794  1.4377 -0.2020 -2.4974
  120bbb     H9 3131   3.479   4.828   3.525 -3.0637  1.1888  1.7399
  120bbb    H10 3132   3.386   4.759   3.394  0.4576  1.2829  0.0061
  120bbb    H11 3133   3.617   4.599   3.524 -0.4106 -0.9040 -0.2107
  120bbb    H12 3134   3.610   4.686   3.370 -0.0482 -1.8544 -0.8221
  120bbb    H13 3135   3.484   4.434   3.457  1.5987 -0.8275 -0.9366
  120bbb    H25 3136   3.298   4.584   3.563  0.5128 -0.2777  1.3920
  121bbb     N1 3137   2.751   4.396   3.751  0.4453  0.4112  0.6848
  121bbb     C1 3138   2.794   4.544   3.744  0.1355 -0.0587 -0.8457
  121bbb     C2 3139   2.753   4.335   3.895  0.5316  0.4089 -0.0830
  121bbb     C3 3140   2.720   4.645   3.826  0.0405  0.6939 -0.4528
  121bbb     C4 3141   2.581   4.681   3.759 -0.0495 -0.1453  0.1382
  121bbb     C5 3142   2.725   4.185   3.912  0.2091 -0.2291  0.4657
  121bbb     C6 3143   2.730   4.132   4.056  0.1444  0.2471  0.1553
  121bbb     C7 3144   2.846   4.322   3.660  0.2570  0.7032  0.5238
  121bbb     C8 3145   2.877   4.388   3.526  0.0493  0.5977  0.2102
  121bbb     N2 3146   2.922   4.285   3.434 -0.5193  0.2014  0.4455
  121bbb     O1 3147   2.566   4.698   3.637 -0.3334  0.3059  0.4177
  121bbb     O2 3148   2.784   4.179   4.151 -0.7169 -1.0624  0.1940
  121bbb     H1 3149   2.900   4.546   3.770 -0.8626  1.7107  4.2039
  121bbb     H2 3150   2.781   4.576   3.641 -1.2407  0.7624 -0.4408
  121bbb     H3 3151   2.676   4.383   3.955  0.6519 -0.7991  1.0549
  121bbb     H4 3152   2.848   4.350   3.947  0.5835 -0.2860  0.0297
  121bbb     H5 3153   2.710   4.611   3.929  0.4509  2.9124  0.3753
  121bbb     H6 3154   2.786   4.733   3.829  2.7426 -1.1853 -0.5224
  121bbb     H7 3155   2.803   4.134   3.855  1.7130  1.9403  0.4770
  121bbb     H8 3156   2.628   4.166   3.864  1.7626  0.1867 -3.1747
  121bbb     H9 3157   2.797   4.227   3.641 -0.0040  1.1032 -0.9195
  121bbb    H10 3158   2.938   4.295   3.712  2.0309  3.0645 -1.1431
  121bbb    H11 3159   2.951   4.466   3.550  0.1258  0.1745  1.4031
  121bbb    H12 3160   2.789   4.435   3.481  1.6403  2.5635 -1.0746
  121bbb    H13 3161   2.900   4.188   3.453 -0.0150  0.4964  2.8308
  121bbb    H25 3162   2.653   4.386   3.721  0.4522  1.0438  0.4373
  122bbb     N1 3163   4.871   1.947   3.220 -0.0072  0.0033  0.3311
  122bbb     C1 3164   5.012   1.896   3.180  0.7150  0.1723  0.0855
  122bbb     C2 3165   4.878   2.070   3.316 -0.1875  0.0225 -0.0916
  122bbb     C3 3166   5.109   1.991   3.115 -0.5446  0.7035 -0.0969
  122bbb     C4 3167   5.249   1.947   3.144 -0.1219  0.3446  0.9716
  122bbb     C5 3168   4.981   2.082   3.434  0.7997 -0.4018 -0.1473
  122bbb     C6 3169   4.945   2.206   3.507  0.7523 -0.6404 -0.6201
  122bbb     C7 3170   4.805   1.827   3.289 -0.3258  0.3381 -0.6522
  122bbb     C8 3171   4.652   1.820   3.283  0.6734  0.3916 -0.5274
  122bbb     N2 3172   4.569   1.924   3.348  0.0032  0.3678  0.1925
  122bbb     O1 3173   5.285   1.927   3.257 -0.6547  0.1580 -0.2644
  122bbb     O2 3174   4.825   2.232   3.528 -0.1035  0.3530  0.1297
  122bbb     H1 3175   5.058   1.869   3.276  2.2140  1.0433 -0.3659
  122bbb     H2 3176   5.001   1.805   3.121 -1.4612 -0.4598  1.3297
  122bbb     H3 3177   4.786   2.077   3.375  0.3950  0.3492  0.7863
  122bbb     H4 3178   4.876   2.158   3.252  1.5100 -0.2462 -0.5608
  122bbb     H5 3179   5.092   2.000   3.007  1.5263  1.3122 -0.4116
  122bbb     H6 3180   5.105   2.096   3.147  1.8367  0.3472  1.6149
  122bbb     H7 3181   5.083   2.095   3.396  0.3881 -1.2208 -1.6388
  122bbb     H8 3182   4.982   1.992   3.497  0.0979 -0.8805 -0.7920
  122bbb     H9 3183   4.855   1.816   3.385  0.3384  3.2337 -0.5990
  122bbb    H10 3184   4.830   1.737   3.232  0.8390  1.0580 -1.3114
  122bbb    H11 3185   4.617   1.723   3.321  1.8936 -1.8757 -4.5805
  122bbb    H12 3186   4.627   1.812   3.176  0.0982  0.1365 -0.3767
  122bbb    H13 3187   4.505   1.981   3.295 -0.7714 -0.7624 -0.1031
  122bbb    H25 3188   4.818   1.974   3.136  0.9138 -0.7245 -0.5184
  123bbb     N1 3189   4.604   1.979   4.529 -0.5026 -0.9326  0.4621
  123bbb     C1 3190   4.531   1.932   4.651  0.4682 -0.5816 -1.5392
  123bbb     C2 3191   4.714   2.080   4.569  0.2598  0.3050 -0.4197
  123bbb     C3 3192   4.477   1.780   4.641 -1.3053  0.0188 -0.6300
  123bbb     C4 3193   4.583   1.674   4.607 -0.2273 -0.4708 -0.3223
  123bbb     C5 3194   4.839   2.024   4.643 -0.0423  0.1349  0.1091
  123bbb     C6 3195   4.937   1.958   4.540  0.3249 -0.4252  0.0498
  123bbb     C7 3196   4.510   2.055   4.433 -0.4218  0.5797  0.3314
  123bbb     C8 3197   4.577   2.115   4.310  0.9145 -0.4953 -0.5360
  123bbb     N2 3198   4.476   2.152   4.206  0.0218  0.7944 -0.9475
  123bbb     O1 3199   4.702   1.697   4.603  0.3488  0.6241  0.4064
  123bbb     O2 3200   4.932   1.972   4.418 -0.2154 -0.4566 -0.2169
  123bbb     H1 3201   4.600   1.952   4.733 -0.4150  0.2863 -0.9800
  123bbb     H2 3202   4.445   1.999   4.657  1.6892  1.0157 -1.2389
  123bbb     H3 3203   4.664   2.155   4.631 -2.4457 -2.1262  0.5479
  123bbb     H4 3204   4.758   2.131   4.483  0.0609 -0.8790 -1.2464
  123bbb     H5 3205   4.430   1.732   4.728 -1.0431 -0.7035 -0.8777
  123bbb     H6 3206   4.410   1.775   4.554 -0.1010  0.4820 -1.6119
  123bbb     H7 3207   4.807   1.952   4.720  0.4717 -1.9071 -1.5038
  123bbb     H8 3208   4.884   2.102   4.706 -1.3929 -0.4675  1.9175
  123bbb     H9 3209   4.464   2.134   4.492  1.2445  1.0599  1.0401
  123bbb    H10 3210   4.423   1.999   4.397 -0.7941  0.6434  1.1095
  123bbb    H11 3211   4.648   2.046   4.264  0.7325  0.6161 -2.6193
  123bbb    H12 3212   4.634   2.203   4.340 -0.3133  0.0995  0.1217
  123bbb    H13 3213   4.386   2.106   4.208  0.7060 -0.5753  0.5210
  123bbb    H25 3214   4.645   1.899   4.477  1.5158 -0.2277  0.8857
  124bbb     N1 3215   3.327   1.637   3.110 -0.0109 -0.1747 -0.5981
  124bbb     C1 3216   3.448   1.630   3.205  0.1693  0.1029  0.1658
  124bbb     C2 3217   3.272   1.492   3.076 -0.1110  0.0155 -0.5452
  124bbb     C3 3218   3.504   1.762   3.259 -0.3599 -0.3021  0.7285
  124bbb     C4 3219   3.615   1.738   3.363  0.6212  0.3048  0.2650
  124bbb     C5 3220   3.131   1.487   3.009 -0.3612 -0.0418  0.0515
  124bbb     C6 3221   3.080   1.344   2.991  0.2765  0.1035  0.2656
  124bbb     C7 3222   3.371   1.712   2.983 -0.5404  0.2500  1.0515
  124bbb     C8 3223   3.292   1.832   2.932  0.7982 -0.3078  0.7349
  124bbb     N2 3224   3.290   1.950   3.026  0.0818 -0.3408 -0.7029
  124bbb     O1 3225   3.669   1.630   3.394 -0.2032  0.4998 -0.0931
  124bbb     O2 3226   3.060   1.272   3.086 -0.3175  0.8608  0.1803
  124bbb     H1 3227   3.408   1.574   3.290 -0.9341 -0.3622 -0.6372
  124bbb     H2 3228   3.527   1.571   3.156 -1.0550  0.2933 -2.1631
  124bbb     H3 3229   3.279   1.429   3.165  1.1966  0.6269 -0.1915
  124bbb     H4 3230   3.345   1.455   3.003  0.2880  0.0534 -0.1686
  124bbb     H5 3231   3.549   1.831   3.186 -0.9717 -0.0738  0.5607
  124bbb     H6 3232   3.422   1.813   3.310  0.1604  0.1294  1.1366
  124bbb     H7 3233   3.116   1.544   2.916 -2.7227 -0.0531  0.3632
  124bbb     H8 3234   3.074   1.538   3.087 -0.1705  0.6838 -0.2710
  124bbb     H9 3235   3.385   1.632   2.911 -0.1436  0.8092  0.5029
  124bbb    H10 3236   3.467   1.758   3.005  1.3927 -2.9660  0.0033
  124bbb    H11 3237   3.189   1.801   2.916  1.6541 -3.3491  0.5896
  124bbb    H12 3238   3.348   1.859   2.841  0.3916 -2.5372 -0.2326
  124bbb    H13 3239   3.283   1.943   3.126 -0.5891 -0.4687 -0.7573
  124bbb    H25 3240   3.246   1.683   3.154 -0.7637 -3.1449  1.4156
  125bbb     N1 3241   3.227   2.510   3.975 -0.6108  0.6454  1.1429
  125bbb     C1 3242   3.374   2.558   3.987  0.4623 -0.7679  0.3868
  125bbb     C2 3243   3.219   2.364   4.035  0.1434  0.2443  0.7952
  125bbb     C3 3244   3.383   2.713   3.985  0.0647  0.4067 -0.2749
  125bbb     C4 3245   3.526   2.764   3.951  0.4622  0.4564 -0.2507
  125bbb     C5 3246   3.080   2.302   4.022 -0.1446  0.1039 -0.0207
  125bbb     C6 3247   3.064   2.179   4.106 -0.1950 -0.1228  0.7512
  125bbb     C7 3248   3.176   2.509   3.829 -0.4567 -0.0977 -0.4718
  125bbb     C8 3249   3.246   2.418   3.726 -0.0375 -0.2048 -0.1000
  125bbb     N2 3250   3.189   2.435   3.596  0.6591  0.0741 -0.4326
  125bbb     O1 3251   3.589   2.718   3.857  0.1321  0.0578  0.0441
  125bbb     O2 3252   3.125   2.163   4.208  0.6703  0.2071 -0.1544
  125bbb     H1 3253   3.417   2.517   4.078  0.8263  0.8238  0.9608
  125bbb     H2 3254   3.426   2.518   3.900  3.5008  0.7411  1.3625
  125bbb     H3 3255   3.250   2.369   4.140 -2.5905 -2.8325  1.9390
  125bbb     H4 3256   3.297   2.302   3.991  1.0494  0.0550  2.5637
  125bbb     H5 3257   3.313   2.755   3.912  0.4926  2.5194  0.4541
  125bbb     H6 3258   3.349   2.751   4.082  1.3368 -0.9029  0.7275
  125bbb     H7 3259   3.057   2.280   3.917 -1.1300 -1.0431  0.4167
  125bbb     H8 3260   3.006   2.374   4.059  0.6997  2.5102 -2.6859
  125bbb     H9 3261   3.191   2.611   3.794  1.6659 -0.1863  0.0403
  125bbb    H10 3262   3.068   2.494   3.828 -0.7927  1.8518  0.4879
  125bbb    H11 3263   3.244   2.310   3.747 -1.7272 -0.2335 -0.2656
  125bbb    H12 3264   3.353   2.437   3.720  0.0474 -1.0230 -1.8915
  125bbb    H13 3265   3.107   2.493   3.588 -0.7193 -1.6018  0.6329
  125bbb    H25 3266   3.169   2.566   4.039  1.1718  2.5999  1.1144
  126ccc     N1 3267   4.571   4.818   3.694 -0.1148 -0.2529 -0.7130
  126ccc     H4 3268   4.471   4.833   3.689  0.2747  3.0430 -0.4111
  126ccc     C3 3269   4.640   4.779   3.574  0.0274 -0.1315 -0.2234
  126ccc     H5 3270   4.741   4.738   3.585 -0.8837 -2.6909 -0.7098
  126ccc     C4 3271   4.649   4.908   3.484 -0.2224 -0.2000  0.2076
  126ccc     H6 3272   4.583   4.696   3.530 -0.6005  0.4987 -0.6251
  126ccc     H7 3273   4.709   4.882   3.396 -2.3729 -1.3035 -1.0015
  126ccc     H8 3274   4.693   4.993   3.538 -1.0562  0.9636 -0.8974
  126ccc     N2 3275   4.513   4.962   3.426 -0.1818  0.3666  0.6299
  126ccc     C5 3276   4.443   4.855   3.342  0.4163  0.4709  0.3408
  126ccc     C6 3277   4.537   5.090   3.338 -0.1205 -0.1979 -0.6244
  126ccc     H9 3278   4.593   5.055   3.250  0.0870 -0.5959 -0.3396
  126ccc     C7 3279   4.625   5.205   3.397  0.3842  0.3102  0.5326
  126ccc    H10 3280   4.439   5.123   3.303  0.8311  0.5855 -2.6968
  126ccc    H11 3281   4.714   5.180   3.456  0.1893 -0.6416  0.4387
  126ccc    H12 3282   4.560   5.270   3.457 -2.8019 -0.8388 -1.3964
  126ccc     C8 3283   4.670   5.289   3.273 -0.0561  0.7122 -0.3276
  126ccc     O2 3284   4.620   5.284   3.160 -0.6201 -0.0598 -0.6985
  126ccc    H13 3285   4.421   4.767   3.403 -1.6142  0.7297  0.0774
  126ccc    H14 3286   4.505   4.821   3.259  2.6966  3.4340  0.6567
  126ccc     C9 3287   4.299   4.890   3.294  0.4363 -0.0609 -0.2379
  126ccc    H15 3288   4.288   4.982   3.235  1.2383 -0.8979 -1.7313
  126ccc    H16 3289   4.234   4.906   3.381 -0.6799  1.6589 -1.3168
  126ccc    C10 3290   4.237   4.792   3.199  0.1062  0.4809 -0.3520
  126ccc     O4 3291   4.283   4.769   3.089 -0.2723 -0.7446  0.2767
  126ccc    C11 3292   4.975   5.567   2.980  0.4456 -0.6607 -0.2685
  126ccc    C12 3293   4.905   5.657   3.085  0.0118  0.4636 -0.0206
  126ccc    H17 3294   4.898   5.527   2.912 -0.8258 -0.9362  1.2736
  126ccc    C13 3295   4.795   5.567   3.151  0.1270 -0.1562 -0.5320
  126ccc    C14 3296   4.865   5.446   3.218 -0.3971  0.2587  0.1652
  126ccc    C15 3297   4.951   5.363   3.111 -0.2014 -0.1478 -0.1315
  126ccc    H18 3298   4.953   5.481   3.273  0.2458 -0.7949 -0.1554
  126ccc    H19 3299   4.715   5.542   3.080  0.2685 -0.5138 -0.5652
  126ccc    H20 3300   4.883   5.316   3.039 -0.9452 -0.5008  0.7809
  126ccc     O1 3301   5.040   5.265   3.169 -0.2519 -0.1957 -0.4198
  126ccc     O6 3302   4.740   5.646   3.259  0.1041  0.1473 -0.0472
  126ccc    C16 3303   5.084   5.648   2.910  0.3270 -0.0977 -0.0146
  126ccc    H21 3304   4.736   5.738   3.228  1.4373  0.8493  1.6674
  126ccc    H22 3305   4.816   5.356   3.396 -0.1975 -3.4543 -0.6143
  126ccc    H23 3306   5.149   5.691   2.988  0.8518  1.2974 -1.1747
  126ccc    H24 3307   5.043   5.736   2.859  1.4778  0.7226  0.4211
  126ccc     O7 3308   5.157   5.567   2.815 -0.4973  0.0540  0.7003
  126ccc    H25 3309   5.249   5.579   2.842  0.0617 -0.0294 -1.0545
  126ccc     O8 3310   5.037   5.451   3.044 -0.2415 -0.3421  0.1652
  126ccc    H26 3311   5.066   5.212   3.091  1.3954 -1.8582  1.1526
  126ccc    H27 3312   4.967   5.694   3.167 -0.3686 -1.4437  1.1980
  126ccc     O9 3313   4.851   5.778   3.025  0.2668  0.2341 -0.2539
  126ccc    H28 3314   4.799   5.749   2.949 -0.0156 -1.9918  0.7126
  126ccc     N3 3315   4.773   5.368   3.304 -0.0831 -0.8642 -0.3751
  126ccc    C17 3316   3.793   4.487   3.127 -0.3577  0.5293 -0.2690
  126ccc    C18 3317   3.813   4.624   3.056  0.4776  1.1509  0.2136
  126ccc    H29 3318   3.742   4.497   3.224 -2.0202 -0.3736 -0.9963
  126ccc    C19 3319   3.900   4.709   3.151 -0.0916 -0.3863  0.0443
  126ccc    C20 3320   4.040   4.642   3.162 -0.6156 -0.2591 -0.0562
  126ccc    C21 3321   4.031   4.493   3.199  0.7243  0.8554  0.2058
  126ccc    H30 3322   4.079   4.662   3.062  1.6201  2.8894  1.2867
  126ccc    H31 3323   3.854   4.708   3.251 -1.3477  2.7525 -0.4130
  126ccc    H32 3324   4.009   4.489   3.306 -2.0781  0.3049 -0.3123
  126ccc    O10 3325   4.146   4.419   3.168 -1.0089 -0.1421  0.3716
  126ccc    O11 3326   3.895   4.848   3.114  0.4480 -0.8737 -0.6779
  126ccc    C22 3327   3.709   4.391   3.043 -0.0687 -0.7894  0.3573
  126ccc    H33 3328   3.802   4.872   3.126  0.6703 -0.7923  1.2041
  126ccc    H34 3329   4.098   4.751   3.337  1.3370 -1.0954  0.3400
  126ccc    H35 3330   3.768   4.370   2.953  3.6111  0.3937  2.2901
  126ccc    H36 3331   3.625   4.450   3.001  1.6435  1.9187  0.4836
  126ccc    O12 3332   3.678   4.263   3.108 -0.4211  0.3408 -0.0707
  126ccc    H37 3333   3.696   4.262   3.204 -0.1041 -3.0715 -0.0533
  126ccc    O13 3334   3.929   4.424   3.127  0.6292 -0.1818  0.0307
  126ccc    H38 3335   4.221   4.479   3.185 -0.8770  0.3382 -1.5970
  126ccc    H39 3336   3.863   4.609   2.959  1.0963 -1.8803  0.8880
  126ccc     O5 3337   3.685   4.688   3.034  0.5681  0.2863  0.0630
  126ccc    H40 3338   3.714   4.764   2.982  2.8043 -0.6155 -0.0919
  126ccc     N4 3339   4.133   4.724   3.245 -0.1461  0.3306 -0.7002
  126ccc    H41 3340   4.462   4.989   3.511  2.1529  0.2465  2.1563
  127ccc     N1 3341   4.302   4.316   4.148  0.0797 -0.1758  0.3778
  127ccc     H4 3342   4.313   4.349   4.243  1.4560  2.5762 -0.6169
  127ccc     C3 3343   4.184   4.238   4.112 -0.2415 -0.3476  0.8530
  127ccc     H5 3344   4.223   4.155   4.051 -2.1804  0.8650 -2.2886
  127ccc     C4 3345   4.116   4.195   4.241  0.1160  0.3297  0.6526
  127ccc     H6 3346   4.115   4.293   4.046  0.9084  0.2951  0.1416
  127ccc     H7 3347   4.072   4.287   4.282  0.2707  1.9943 -2.6219
  127ccc     H8 3348   4.181   4.148   4.316 -0.6692  0.2598  1.3109
  127ccc     N2 3349   4.002   4.095   4.227  0.2099  0.7663 -0.6619
  127ccc     C5 3350   3.925   4.086   4.355  0.1991  0.1295  0.6877
  127ccc     C6 3351   4.048   3.951   4.178  0.1074 -0.3604 -0.2232
  127ccc     H9 3352   3.954   3.894   4.180  0.0546 -0.2626  0.2758
  127ccc     C7 3353   4.156   3.879   4.265  0.5971  0.7415 -0.2455
  127ccc    H10 3354   4.081   3.969   4.075 -0.4351 -1.8240 -0.6855
  127ccc    H11 3355   4.124   3.867   4.369 -0.8320 -0.9278 -0.8071
  127ccc    H12 3356   4.253   3.928   4.259  2.1688 -1.9135  1.5696
  127ccc     C8 3357   4.172   3.738   4.197 -0.4033 -0.1594 -0.9630
  127ccc     O2 3358   4.094   3.680   4.118  0.0314 -0.4878  1.1169
  127ccc    H13 3359   3.896   4.187   4.385 -0.4264 -0.4797  2.2686
  127ccc    H14 3360   3.993   4.054   4.435 -1.5581  0.4242  2.3556
  127ccc     C9 3361   3.802   3.994   4.351  0.5673 -0.5913 -0.5024
  127ccc    H15 3362   3.833   3.889   4.361  1.6646 -0.2072  0.3726
  127ccc    H16 3363   3.748   4.004   4.256 -0.2400 -0.4286 -0.0298
  127ccc    C10 3364   3.709   4.021   4.472  0.8620 -0.5748  0.0589
  127ccc     O4 3365   3.729   4.120   4.546  0.1091 -0.4527  0.4497
  127ccc    C11 3366   4.639   3.611   4.463  0.5901  0.3261  0.2268
  127ccc    C12 3367   4.658   3.651   4.314  1.0876  0.3601 -1.1650
  127ccc    H17 3368   4.610   3.505   4.461 -1.3118  0.8178  0.0759
  127ccc    C13 3369   4.527   3.639   4.239 -0.3572  0.2159  0.2547
  127ccc    C14 3370   4.408   3.713   4.304  0.4150  0.2279  0.9509
  127ccc    C15 3371   4.404   3.681   4.457  0.3754 -0.5144  0.3843
  127ccc    H18 3372   4.430   3.819   4.291 -0.7505  0.4697  0.8338
  127ccc    H19 3373   4.498   3.533   4.241  1.0338 -0.2398 -1.0701
  127ccc    H20 3374   4.351   3.586   4.472  0.4555 -0.6154  0.0463
  127ccc     O1 3375   4.325   3.779   4.520  0.0472 -0.0794 -0.8310
  127ccc     O6 3376   4.551   3.681   4.108  0.3102 -0.1793 -0.0873
  127ccc    C16 3377   4.771   3.616   4.535 -0.9514 -0.0019  1.1205
  127ccc    H21 3378   4.501   3.629   4.042 -0.1829  0.9147 -0.6167
  127ccc    H22 3379   4.281   3.570   4.222  1.3759  0.4780  0.5375
  127ccc    H23 3380   4.794   3.722   4.551  0.3344 -0.1888  0.6766
  127ccc    H24 3381   4.854   3.574   4.476  0.7064  1.0304  2.6243
  127ccc     O7 3382   4.761   3.550   4.661 -0.5841  0.0290  0.3521
  127ccc    H25 3383   4.839   3.552   4.719 -1.7405 -1.4463  2.0538
  127ccc     O8 3384   4.532   3.695   4.518  0.0084  0.5678 -0.2155
  127ccc    H26 3385   4.305   3.744   4.609 -1.1705  2.9029  0.1914
  127ccc    H27 3386   4.701   3.752   4.313  0.8584  0.4773 -0.2620
  127ccc     O9 3387   4.752   3.563   4.256 -0.4874 -0.4561  0.6486
  127ccc    H28 3388   4.710   3.475   4.253 -0.5948 -0.3780 -0.2823
  127ccc     N3 3389   4.277   3.669   4.247  0.8904  0.4244  0.6913
  127ccc    C17 3390   3.314   3.686   4.293 -0.2668 -0.6704 -1.0055
  127ccc    C18 3391   3.329   3.828   4.229 -0.6098 -0.1488 -0.1203
  127ccc    H29 3392   3.251   3.688   4.382  0.7048 -0.1039 -0.3172
  127ccc    C19 3393   3.415   3.928   4.314  0.2706  0.0234 -0.7407
  127ccc    C20 3394   3.539   3.864   4.380  0.4506 -0.0420  0.0405
  127ccc    C21 3395   3.503   3.725   4.437  0.3683 -0.8678  0.1104
  127ccc    H30 3396   3.607   3.840   4.297  0.9719 -0.6406  0.6282
  127ccc    H31 3397   3.353   3.958   4.400  0.0393 -1.4978 -0.3386
  127ccc    H32 3398   3.431   3.736   4.519 -2.2300 -0.4131 -2.0639
  127ccc    O10 3399   3.624   3.662   4.481 -0.2207  0.2498  0.1303
  127ccc    O11 3400   3.465   4.040   4.244 -0.5974  0.1351 -0.0435
  127ccc    C22 3401   3.262   3.577   4.201  0.8910 -0.1697 -0.4173
  127ccc    H33 3402   3.519   4.007   4.169  0.7114  1.7829  0.1109
  127ccc    H34 3403   3.533   3.978   4.556 -0.1383 -1.2273  0.9680
  127ccc    H35 3404   3.164   3.607   4.164  0.2059 -3.3471 -1.4609
  127ccc    H36 3405   3.243   3.488   4.262 -3.2832  0.1369 -0.9844
  127ccc    O12 3406   3.342   3.553   4.087 -0.0585 -0.1181  0.1926
  127ccc    H37 3407   3.304   3.484   4.030  0.5043 -1.2071  1.1031
  127ccc    O13 3408   3.446   3.645   4.336  0.1924 -0.4264 -0.0115
  127ccc    H38 3409   3.602   3.593   4.546  1.1777  0.6249  1.0299
  127ccc    H39 3410   3.383   3.819   4.134 -1.1796  0.9227 -0.5525
  127ccc     O5 3411   3.207   3.894   4.197 -0.3565 -0.2418 -0.0679
  127ccc    H40 3412   3.168   3.912   4.284 -1.8159 -2.2378 -0.2383
  127ccc     N4 3413   3.601   3.945   4.488 -0.0971  0.3062  0.2220
  127ccc    H41 3414   3.939   4.125   4.151 -1.8413 -1.4262  0.0347
  128ccc     N1 3415   6.484   4.970   4.800  0.9191 -0.1825  0.0043
  128ccc     H4 3416   6.507   4.975   4.898  0.7429  0.4878  0.0209
  128ccc     C3 3417   6.578   4.880   4.722  0.0223 -0.0756 -0.4426
  128ccc     H5 3418   6.557   4.889   4.615  1.3423  0.6003 -0.6716
  128ccc     C4 3419   6.560   4.736   4.768  0.5262  0.1858 -0.0576
  128ccc     H6 3420   6.680   4.920   4.730 -0.8600  2.2906 -0.0237
  128ccc     H7 3421   6.453   4.727   4.792  0.1451  2.6491 -0.5260
  128ccc     H8 3422   6.610   4.719   4.864  0.4887  0.3106 -0.0155
  128ccc     N2 3423   6.613   4.633   4.664  0.2778 -0.1836 -0.0047
  128ccc     C5 3424   6.577   4.489   4.711  0.1998 -0.8248  0.5044
  128ccc     C6 3425   6.754   4.653   4.619  0.3706 -0.8606 -0.0558
  128ccc     H9 3426   6.786   4.580   4.543 -1.2947  0.2019 -1.8612
  128ccc     C7 3427   6.854   4.659   4.734  0.0604 -0.0522 -0.5518
  128ccc    H10 3428   6.761   4.746   4.562 -2.3392  0.1848  1.1402
  128ccc    H11 3429   6.829   4.566   4.788 -1.8721 -0.6865 -2.4015
  128ccc    H12 3430   6.827   4.738   4.804 -2.1178 -2.2126  1.2243
  128ccc     C8 3431   6.999   4.664   4.704  0.7582 -0.2309 -0.4640
  128ccc     O2 3432   7.051   4.708   4.605 -0.7268 -0.5731 -0.4629
  128ccc    H13 3433   6.470   4.499   4.730 -0.3377 -0.5088 -2.2951
  128ccc    H14 3434   6.630   4.464   4.804 -4.2911  1.4684  4.0531
  128ccc     C9 3435   6.612   4.375   4.607  0.3194 -0.9258  0.3736
  128ccc    H15 3436   6.720   4.371   4.591  0.4222  0.1493  0.7394
  128ccc    H16 3437   6.562   4.395   4.511  2.0727  1.2808 -0.1639
  128ccc    C10 3438   6.562   4.240   4.662  0.2489 -0.3034  0.4298
  128ccc     O4 3439   6.503   4.234   4.773 -0.5958  0.1849  0.5777
  128ccc    C11 3440   7.465   4.792   4.776  0.0573 -0.1667 -0.6002
  128ccc    C12 3441   7.371   4.847   4.893 -0.2733 -0.1277  0.0800
  128ccc    H17 3442   7.444   4.836   4.678  0.6068  0.9378 -0.2391
  128ccc    C13 3443   7.221   4.816   4.866  0.3603 -0.9599  0.4581
  128ccc    C14 3444   7.211   4.667   4.839  0.0892 -0.3249 -0.7144
  128ccc    C15 3445   7.316   4.610   4.743 -0.3583 -0.0831  0.3107
  128ccc    H18 3446   7.233   4.628   4.939  0.9932  1.5487 -0.1387
  128ccc    H19 3447   7.189   4.868   4.775 -1.3111 -2.6868 -0.0196
  128ccc    H20 3448   7.307   4.646   4.639 -0.2648  0.4868  0.4978
  128ccc     O1 3449   7.325   4.465   4.742  0.6510  0.7653  0.1162
  128ccc     O6 3450   7.149   4.854   4.979 -0.2058  0.0929  0.0055
  128ccc    C16 3451   7.615   4.825   4.801 -0.1185  0.1721 -0.1339
  128ccc    H21 3452   7.069   4.903   4.953  0.4079  0.7771 -0.6433
  128ccc    H22 3453   7.025   4.589   4.892 -3.0315  1.2295 -0.5973
  128ccc    H23 3454   7.613   4.935   4.810 -0.9392  0.3234 -1.8379
  128ccc    H24 3455   7.690   4.803   4.725  1.2779 -3.2192  1.9797
  128ccc     O7 3456   7.665   4.772   4.929 -0.2681 -0.8550 -0.7284
  128ccc    H25 3457   7.622   4.828   4.996 -0.3009 -0.7354 -0.8485
  128ccc     O8 3458   7.447   4.654   4.786  0.0505 -0.5389  0.1063
  128ccc    H26 3459   7.240   4.430   4.709  1.1658 -1.6385  1.1152
  128ccc    H27 3460   7.398   4.803   4.990 -3.1753 -2.3922  0.0160
  128ccc     O9 3461   7.390   4.983   4.898  0.3807  0.1427 -0.1866
  128ccc    H28 3462   7.335   5.018   4.971 -0.5840 -1.8039  0.0887
  128ccc     N3 3463   7.073   4.628   4.811  0.1826  0.0730  0.5759
  128ccc    C17 3464   6.798   3.973   4.257 -0.0662  0.4665 -0.2075
  128ccc    C18 3465   6.648   4.013   4.231  0.1358 -0.3256  0.2444
  128ccc    H29 3466   6.805   3.875   4.306  0.1137 -0.3179 -1.7347
  128ccc    C19 3467   6.567   4.005   4.364  0.1019  0.1039  0.2577
  128ccc    C20 3468   6.635   4.109   4.458 -0.0691  0.6887  0.0032
  128ccc    C21 3469   6.786   4.072   4.478 -0.6640  0.5550 -0.1211
  128ccc    H30 3470   6.634   4.204   4.402 -1.4227  0.9947  0.5066
  128ccc    H31 3471   6.592   3.906   4.404  1.9512  0.8054  0.9604
  128ccc    H32 3472   6.788   3.975   4.528  0.0505  0.3536 -0.5157
  128ccc    O10 3473   6.864   4.157   4.563 -0.5637 -0.3631 -0.6473
  128ccc    O11 3474   6.432   4.039   4.342  0.0360  0.4862  0.2263
  128ccc    C22 3475   6.872   3.964   4.121 -0.0761 -1.2241  0.2880
  128ccc    H33 3476   6.379   3.958   4.344 -1.0094  1.1301 -0.5487
  128ccc    H34 3477   6.512   4.049   4.613  0.0694  0.1305  1.9139
  128ccc    H35 3478   6.867   4.059   4.068  3.7941 -0.7740  0.4391
  128ccc    H36 3479   6.820   3.902   4.047 -1.8577 -0.9984  1.2954
  128ccc    O12 3480   7.012   3.926   4.139  0.4537  0.1632  0.7504
  128ccc    H37 3481   7.034   3.862   4.069  0.5524 -0.2708  1.1706
  128ccc    O13 3482   6.854   4.069   4.349 -0.4008 -0.0602 -0.3497
  128ccc    H38 3483   6.913   4.220   4.508  1.1940  0.1475  1.3372
  128ccc    H39 3484   6.641   4.115   4.192  0.2193 -0.8546 -1.2110
  128ccc     O5 3485   6.593   3.923   4.140 -0.2598 -0.3942  0.4234
  128ccc    H40 3486   6.498   3.938   4.126 -0.5345 -1.5446  0.9372
  128ccc     N4 3487   6.566   4.131   4.586 -0.6754 -0.0562 -0.2997
  128ccc    H41 3488   6.554   4.646   4.581  1.9070  1.4421 -0.9869
  129ccc     N1 3489   6.002   4.863   5.401 -0.2722 -0.3193 -1.1104
  129ccc     H4 3490   5.909   4.904   5.399 -0.4328  0.5359  5.0258
  129ccc     C3 3491   6.022   4.773   5.513  0.0895 -0.8674  0.2065
  129ccc     H5 3492   6.123   4.775   5.556  1.2735 -2.1441 -2.2907
  129ccc     C4 3493   5.988   4.626   5.481 -0.6277  0.0919 -0.2211
  129ccc     H6 3494   5.944   4.807   5.581 -0.5482 -0.8301 -0.5326
  129ccc     H7 3495   5.887   4.613   5.441  0.0885  0.1201 -2.1076
  129ccc     H8 3496   6.003   4.567   5.573  1.2366 -0.1451 -0.6293
  129ccc     N2 3497   6.083   4.567   5.376  0.0834 -0.2814  0.1466
  129ccc     C5 3498   6.006   4.458   5.299 -0.1651 -0.2035  0.2820
  129ccc     C6 3499   6.208   4.509   5.445 -0.3171 -0.4343  0.7088
  129ccc     H9 3500   6.190   4.468   5.545  2.7069 -0.6000  1.2786
  129ccc     C7 3501   6.329   4.603   5.446 -0.6919 -0.3249  0.0429
  129ccc    H10 3502   6.242   4.422   5.386  3.0108  1.3903 -0.3326
  129ccc    H11 3503   6.408   4.571   5.515  1.9833  2.0403 -1.7294
  129ccc    H12 3504   6.297   4.702   5.479 -1.7463 -0.6813  0.1349
  129ccc     C8 3505   6.395   4.627   5.312 -0.2457 -0.3489 -0.0865
  129ccc     O2 3506   6.365   4.579   5.200  0.2684 -0.8603 -0.4982
  129ccc    H13 3507   5.905   4.497   5.281 -0.1578 -0.3619 -0.0994
  129ccc    H14 3508   6.002   4.364   5.357  3.3077 -0.1162  0.8980
  129ccc     C9 3509   6.065   4.432   5.160 -0.7291  0.2814 -0.1615
  129ccc    H15 3510   6.023   4.341   5.115  0.7435  0.0830 -1.2017
  129ccc    H16 3511   6.174   4.421   5.158 -0.8335 -0.7530 -1.2315
  129ccc    C10 3512   6.037   4.545   5.059  0.1149 -0.1578  0.3127
  129ccc     O4 3513   6.023   4.663   5.094 -0.9781 -0.2853  0.5604
  129ccc    C11 3514   6.759   4.970   5.099  1.0800 -0.7450  0.3371
  129ccc    C12 3515   6.813   4.834   5.140 -0.3244  0.8720 -0.6010
  129ccc    H17 3516   6.750   5.036   5.186 -2.1323  0.0785 -0.5195
  129ccc    C13 3517   6.715   4.776   5.247 -0.3023  0.2086 -0.2399
  129ccc    C14 3518   6.569   4.765   5.193 -0.0769  0.2896 -0.2201
  129ccc    C15 3519   6.524   4.897   5.133  0.1556 -0.5221  0.2068
  129ccc    H18 3520   6.562   4.693   5.110  0.3444  0.8248 -0.7231
  129ccc    H19 3521   6.715   4.851   5.328  2.4682  0.0649  0.0058
  129ccc    H20 3522   6.521   4.952   5.228 -1.8905 -2.1244  1.1441
  129ccc     O1 3523   6.394   4.886   5.077 -0.5131 -0.0734 -0.4933
  129ccc     O6 3524   6.769   4.653   5.301  0.2665  0.3400  0.1057
  129ccc    C16 3525   6.847   5.047   4.992 -0.0027  0.3337 -0.2145
  129ccc    H21 3526   6.714   4.639   5.380  0.4624  0.9503  0.3501
  129ccc    H22 3527   6.500   4.787   5.392  0.6392  2.9653 -1.8653
  129ccc    H23 3528   6.923   5.095   5.054 -0.0544 -0.1793  0.2505
  129ccc    H24 3529   6.792   5.130   4.945  0.2788  0.6773  0.0557
  129ccc     O7 3530   6.910   4.967   4.885  0.5988  0.0236 -0.1255
  129ccc    H25 3531   6.953   5.033   4.828  0.4671  0.6324  0.4710
  129ccc     O8 3532   6.624   4.956   5.050  0.0229 -0.2749  0.0741
  129ccc    H26 3533   6.348   4.835   5.146  1.3945 -0.3086  0.6863
  129ccc    H27 3534   6.822   4.769   5.052  1.0393 -0.4495  0.4625
  129ccc     O9 3535   6.945   4.847   5.209 -0.3677  0.3969  0.3238
  129ccc    H28 3536   6.990   4.763   5.188  0.0146  0.2243  1.7450
  129ccc     N3 3537   6.488   4.725   5.312  0.1515  0.2338  0.1705
  129ccc    C17 3538   6.008   4.685   4.547  0.1102 -0.1429  0.1017
  129ccc    C18 3539   5.882   4.607   4.597  0.3261  0.3066  0.1770
  129ccc    H29 3540   6.080   4.618   4.500 -1.6156 -1.2324 -1.1166
  129ccc    C19 3541   5.922   4.517   4.722  0.7138  0.1590 -0.8478
  129ccc    C20 3542   5.997   4.592   4.822 -0.2486 -0.7035 -0.1131
  129ccc    C21 3543   6.117   4.663   4.762 -0.1129 -0.3028  0.0118
  129ccc    H30 3544   5.934   4.672   4.861  0.8771 -0.2659  0.8327
  129ccc    H31 3545   5.975   4.432   4.677 -0.8035 -0.1526 -2.1527
  129ccc    H32 3546   6.177   4.588   4.709  0.0196  0.1059 -0.4334
  129ccc    O10 3547   6.184   4.741   4.855  0.1659 -0.0704  0.1210
  129ccc    O11 3548   5.799   4.477   4.793  0.5022 -0.4512  0.8174
  129ccc    C22 3549   5.971   4.794   4.439  0.3882  1.0071 -0.3021
  129ccc    H33 3550   5.825   4.413   4.862 -0.7485 -1.8507  0.0473
  129ccc    H34 3551   6.065   4.410   4.902  1.5353  0.2595 -0.9267
  129ccc    H35 3552   5.929   4.881   4.489  0.2716  0.8139 -0.0624
  129ccc    H36 3553   5.908   4.752   4.359 -0.5796  0.1255  0.8788
  129ccc    O12 3554   6.083   4.842   4.378  0.2221 -0.2077 -0.3738
  129ccc    H37 3555   6.089   4.935   4.407  0.4313 -0.5640  0.8055
  129ccc    O13 3556   6.075   4.749   4.656  0.5281 -0.7628 -0.2511
  129ccc    H38 3557   6.235   4.680   4.912 -0.9920 -1.5654 -0.3818
  129ccc    H39 3558   5.803   4.675   4.628  0.8870  0.2607  1.8348
  129ccc     O5 3559   5.825   4.526   4.501 -0.2024 -0.9761 -0.4703
  129ccc    H40 3560   5.731   4.526   4.527 -0.1506 -0.7422 -0.2812
  129ccc     N4 3561   6.034   4.503   4.929  0.2806 -0.1651 -0.8540
  129ccc    H41 3562   6.102   4.643   5.309 -0.3386 -0.9199 -0.7176
  130ccc     N1 3563   4.078   4.098   4.868  0.3272 -0.4308  0.2512
  130ccc     H4 3564   4.100   4.145   4.955 -0.3441 -3.0814  1.9606
  130ccc     C3 3565   3.949   4.130   4.802 -1.1188  0.0066 -0.8584
  130ccc     H5 3566   3.961   4.215   4.733  0.2203 -1.5860 -2.6838
  130ccc     C4 3567   3.844   4.155   4.916 -0.3788  0.0689  0.0659
  130ccc     H6 3568   3.910   4.044   4.747  1.8138 -2.0692  0.0716
  130ccc     H7 3569   3.891   4.202   5.004 -0.8866 -3.6028  2.5176
  130ccc     H8 3570   3.839   4.055   4.961 -0.2289  0.0616  0.0688
  130ccc     N2 3571   3.713   4.210   4.866  0.2531  0.0977 -0.2711
  130ccc     C5 3572   3.734   4.357   4.832 -0.3946 -0.3364  0.1058
  130ccc     C6 3573   3.607   4.197   4.976  0.5136  0.6659  0.9752
  130ccc     H9 3574   3.617   4.092   5.007  2.2891  0.7842  0.8988
  130ccc     C7 3575   3.458   4.215   4.936  0.4284 -0.3092  0.3440
  130ccc    H10 3576   3.646   4.253   5.062  1.5586  0.4075  0.6850
  130ccc    H11 3577   3.449   4.318   4.902  2.2065 -0.5781 -1.1098
  130ccc    H12 3578   3.386   4.194   5.016  0.2610 -1.6963 -0.1439
  130ccc     C8 3579   3.422   4.117   4.817 -0.0636 -0.1510 -0.1433
  130ccc     O2 3580   3.457   4.126   4.704  0.5216 -0.2014 -0.5064
  130ccc    H13 3581   3.637   4.390   4.793 -0.5833 -2.3321 -1.2696
  130ccc    H14 3582   3.806   4.357   4.749 -0.8753 -0.9779 -0.3235
  130ccc     C9 3583   3.777   4.457   4.944 -0.0015  1.3547  0.1170
  130ccc    H15 3584   3.873   4.418   4.982 -1.2757 -1.4767  0.6948
  130ccc    H16 3585   3.700   4.464   5.022 -0.0607  1.1888  0.0741
  130ccc    C10 3586   3.795   4.594   4.881 -0.5586 -0.7223 -0.7645
  130ccc     O4 3587   3.773   4.627   4.762 -0.0332  0.2149 -0.1185
  130ccc    C11 3588   3.413   3.588   4.811  0.5299 -0.1829 -0.0252
  130ccc    C12 3589   3.278   3.637   4.766 -0.3309 -0.0828 -0.6146
  130ccc    H17 3590   3.408   3.588   4.920 -1.9654  0.9715 -0.0959
  130ccc    C13 3591   3.255   3.786   4.804 -0.1185  0.0055 -0.1561
  130ccc    C14 3592   3.374   3.885   4.777 -0.1183 -0.5141  0.4759
  130ccc    C15 3593   3.502   3.815   4.835  0.2892  0.6334  0.5707
  130ccc    H18 3594   3.383   3.892   4.668  0.2187 -1.3754  0.4432
  130ccc    H19 3595   3.236   3.784   4.912  1.1914 -1.7014  0.0817
  130ccc    H20 3596   3.501   3.812   4.945  4.4063  0.9935  0.7880
  130ccc     O1 3597   3.626   3.881   4.802  0.0165  0.3674  0.3859
  130ccc     O6 3598   3.146   3.833   4.731  0.0401  0.9089 -0.4413
  130ccc    C16 3599   3.454   3.448   4.751  0.6788  0.4812  0.2900
  130ccc    H21 3600   3.070   3.778   4.758  1.0779 -1.1606 -1.5255
  130ccc    H22 3601   3.298   4.010   4.934 -2.6228 -1.5149 -1.5744
  130ccc    H23 3602   3.389   3.374   4.800 -0.0585 -0.3220 -1.7707
  130ccc    H24 3603   3.561   3.434   4.770  0.4921  1.0787  1.9232
  130ccc     O7 3604   3.437   3.462   4.609 -0.4211  0.0487  0.1825
  130ccc    H25 3605   3.467   3.376   4.573  2.3604  0.3702  1.4206
  130ccc     O8 3606   3.520   3.684   4.778  0.2206  0.4321 -0.4692
  130ccc    H26 3607   3.688   3.806   4.800  0.1904  0.4852 -2.4280
  130ccc    H27 3608   3.285   3.636   4.656 -0.7267 -1.1279 -0.6498
  130ccc     O9 3609   3.172   3.553   4.821 -0.4277 -0.2520  0.0816
  130ccc    H28 3610   3.091   3.564   4.768  0.1993  0.9299 -0.6794
  130ccc     N3 3611   3.347   4.013   4.845  0.0503 -0.3197 -0.1966
  130ccc    C17 3612   3.953   5.055   4.784  0.1332  0.4851  0.2820
  130ccc    C18 3613   3.850   5.062   4.907 -0.6374 -0.7726 -0.7636
  130ccc    H29 3614   3.899   5.026   4.692 -0.4651 -2.1556  1.3918
  130ccc    C19 3615   3.794   4.926   4.948 -0.4973  0.1464 -0.0719
  130ccc    C20 3616   3.903   4.816   4.953 -0.4101 -0.3167 -0.3316
  130ccc    C21 3617   4.012   4.826   4.833 -0.4660  0.1122 -0.7716
  130ccc    H30 3618   3.960   4.821   5.047  1.3184 -2.7699 -1.1426
  130ccc    H31 3619   3.721   4.897   4.872 -0.2762 -0.4038 -0.0800
  130ccc    H32 3620   3.972   4.782   4.740 -0.0339  0.3208 -1.0568
  130ccc    O10 3621   4.127   4.756   4.874  0.1545  0.0071  0.0489
  130ccc    O11 3622   3.728   4.940   5.073 -0.3910  0.4286 -0.5630
  130ccc    C22 3623   4.021   5.182   4.746  0.1304 -0.2409 -0.2028
  130ccc    H33 3624   3.674   4.859   5.071  2.0240 -1.2964 -0.1963
  130ccc    H34 3625   3.893   4.639   5.058 -0.5841  0.1530 -0.0816
  130ccc    H35 3626   4.081   5.216   4.831  0.3747  0.3998 -0.6231
  130ccc    H36 3627   3.951   5.261   4.715  0.9160  0.7026  0.3736
  130ccc    O12 3628   4.115   5.157   4.645  0.4750  0.3870  0.1537
  130ccc    H37 3629   4.165   5.074   4.654 -0.3897 -0.3465 -1.4771
  130ccc    O13 3630   4.051   4.957   4.809 -0.0211 -0.6116 -0.2642
  130ccc    H38 3631   4.165   4.824   4.932  3.0894 -2.7538  1.7021
  130ccc    H39 3632   3.911   5.107   4.986  1.9784 -2.0890 -1.9127
  130ccc     O5 3633   3.744   5.150   4.878 -0.0241 -0.1233 -0.2805
  130ccc    H40 3634   3.679   5.152   4.949  1.5376 -0.3271  1.2288
  130ccc     N4 3635   3.858   4.676   4.970 -0.3639 -0.1451 -0.2969
  130ccc    H41 3636   3.683   4.149   4.789  0.7068 -0.5840  0.0868
  131ccc     N1 3637   4.789   3.899   5.057 -0.4304  0.0235  0.2636
  131ccc     H4 3638   4.809   3.986   5.008 -1.2344 -0.2559 -0.6020
  131ccc     C3 3639   4.844   3.877   5.192  0.0918  0.4760 -0.1133
  131ccc     H5 3640   4.917   3.795   5.186 -1.6298 -1.1290  0.1592
  131ccc     C4 3641   4.732   3.844   5.293  0.2054 -0.4006 -0.0622
  131ccc     H6 3642   4.899   3.968   5.219  3.6321 -0.8009 -2.2924
  131ccc     H7 3643   4.774   3.819   5.391  0.6706 -1.4491 -0.5174
  131ccc     H8 3644   4.696   3.750   5.252  0.9459  0.2776 -2.4324
  131ccc     N2 3645   4.611   3.933   5.304  0.7699  1.3958 -0.5042
  131ccc     C5 3646   4.639   4.064   5.368 -0.4917 -0.7456  0.2333
  131ccc     C6 3647   4.491   3.860   5.375 -0.8574  0.2730 -0.3244
  131ccc     H9 3648   4.532   3.822   5.470 -1.1282  0.1099 -0.2733
  131ccc     C7 3649   4.418   3.750   5.285 -0.2038  0.5405 -0.5471
  131ccc    H10 3650   4.420   3.942   5.390 -0.0703  1.2128 -1.5237
  131ccc    H11 3651   4.359   3.688   5.355  1.6545  0.3117  0.9041
  131ccc    H12 3652   4.495   3.687   5.239  0.0599 -0.5069  1.2241
  131ccc     C8 3653   4.327   3.806   5.168  0.3652  0.5441  0.2562
  131ccc     O2 3654   4.339   3.918   5.125 -0.1566  0.7973  0.0746
  131ccc    H13 3655   4.745   4.079   5.348 -0.5546  0.3294  0.6449
  131ccc    H14 3656   4.628   4.049   5.477 -0.8275 -0.4680  0.2381
  131ccc     C9 3657   4.564   4.192   5.323  0.4301 -0.4253 -0.4291
  131ccc    H15 3658   4.608   4.281   5.371 -2.0565  0.3723  0.5487
  131ccc    H16 3659   4.460   4.184   5.356 -0.0671  1.3290 -1.4560
  131ccc    C10 3660   4.558   4.211   5.165 -0.5693  0.0358 -0.2179
  131ccc     O4 3661   4.644   4.165   5.087  0.6020  0.6781  0.5382
  131ccc    C11 3662   4.013   3.675   4.748  0.1868 -0.5363  0.1100
  131ccc    C12 3663   3.936   3.718   4.871  0.1812  0.6910 -0.4292
  131ccc    H17 3664   4.012   3.565   4.754 -0.1626 -0.6324 -1.4385
  131ccc    C13 3665   4.023   3.690   4.997  0.0079  0.4926 -0.1287
  131ccc    C14 3666   4.161   3.747   4.987  0.2490  0.9138  0.0499
  131ccc    C15 3667   4.231   3.693   4.864 -0.1398  0.5944  0.1981
  131ccc    H18 3668   4.156   3.855   4.970  0.1440  0.7867 -0.8045
  131ccc    H19 3669   4.024   3.581   5.004  1.5461  0.5944  2.2218
  131ccc    H20 3670   4.253   3.586   4.880 -1.3435  0.2778 -0.2067
  131ccc     O1 3671   4.360   3.756   4.842 -0.3013  0.0585  0.2944
  131ccc     O6 3672   3.959   3.740   5.117  0.2041  0.6177  0.2393
  131ccc    C16 3673   3.935   3.719   4.628 -0.4549 -0.3233  0.0868
  131ccc    H21 3674   4.014   3.715   5.194 -1.3000  1.1363  1.5452
  131ccc    H22 3675   4.251   3.618   5.126  0.2231 -0.2434 -1.7967
  131ccc    H23 3676   3.827   3.699   4.638 -0.9215  1.7962 -0.3447
  131ccc    H24 3677   3.960   3.659   4.539 -0.8144  0.8364 -0.8277
  131ccc     O7 3678   3.960   3.860   4.601  0.1310  0.5999 -0.0101
  131ccc    H25 3679   4.048   3.877   4.640  0.5340 -0.1312 -0.5652
  131ccc     O8 3680   4.152   3.710   4.745  0.2405  0.1121 -0.4882
  131ccc    H26 3681   4.416   3.677   4.838  1.9538  1.5708  0.4114
  131ccc    H27 3682   3.922   3.827   4.878  0.0298  0.7328 -1.2415
  131ccc     O9 3683   3.800   3.659   4.882 -0.5471  0.1709  0.0208
  131ccc    H28 3684   3.805   3.561   4.882  1.7271  0.2186 -0.7530
  131ccc     N3 3685   4.244   3.719   5.109 -0.3450  0.1399  0.3383
  131ccc    C17 3686   4.216   4.628   5.216  0.1997 -0.7540 -0.1302
  131ccc    C18 3687   4.147   4.494   5.206 -0.4510 -0.3743 -0.5560
  131ccc    H29 3688   4.207   4.687   5.124 -1.3958 -1.8184 -0.7097
  131ccc    C19 3689   4.226   4.392   5.123  0.1734  0.0857  0.6090
  131ccc    C20 3690   4.364   4.380   5.186  0.0951 -0.4427  0.0796
  131ccc    C21 3691   4.435   4.525   5.193 -0.1725  0.4008  0.3503
  131ccc    H30 3692   4.354   4.339   5.287 -0.8991  1.2261  0.6972
  131ccc    H31 3693   4.230   4.430   5.020 -1.0020  2.2626  1.3010
  131ccc    H32 3694   4.461   4.563   5.094 -0.5281  1.1097  0.5261
  131ccc    O10 3695   4.557   4.507   5.268 -0.0611 -0.1055 -0.2134
  131ccc    O11 3696   4.160   4.261   5.129  0.1238  0.3372  0.1007
  131ccc    C22 3697   4.141   4.712   5.328 -0.3310 -0.1885  0.4508
  131ccc    H33 3698   4.171   4.229   5.221  1.5471  1.9121  0.5134
  131ccc    H34 3699   4.458   4.325   5.020 -2.4611 -0.3220  0.4765
  131ccc    H35 3700   4.124   4.642   5.411 -1.3631  1.0950  1.3563
  131ccc    H36 3701   4.040   4.734   5.291 -0.3578  0.6304  0.9726
  131ccc    O12 3702   4.213   4.832   5.364  0.1885  0.1441 -0.3228
  131ccc    H37 3703   4.298   4.818   5.320  0.1399  3.9797 -2.1213
  131ccc    O13 3704   4.353   4.614   5.271  0.3704 -0.4856  0.4398
  131ccc    H38 3705   4.534   4.527   5.361  1.8975  0.8209  0.1134
  131ccc    H39 3706   4.144   4.454   5.309 -3.5858 -0.0542 -0.4013
  131ccc     O5 3707   4.018   4.513   5.154  0.2480 -0.1272  0.5454
  131ccc    H40 3708   3.963   4.438   5.182 -1.8331  0.5863 -1.3410
  131ccc     N4 3709   4.455   4.284   5.113 -0.1337 -0.1603  0.6621
  131ccc    H41 3710   4.580   3.957   5.209 -2.4010 -0.4031 -0.0612
  132ccc     N1 3711   5.651   3.976   4.072 -0.8362 -0.5087 -0.5340
  132ccc     H4 3712   5.597   4.027   4.004 -0.1595  2.3062  0.8887
  132ccc     C3 3713   5.749   4.055   4.155 -0.2401 -0.2124  0.0879
  132ccc     H5 3714   5.712   4.158   4.162 -1.5912 -0.4434 -2.6452
  132ccc     C4 3715   5.894   4.049   4.099  0.2167  0.1689 -0.1900
  132ccc     H6 3716   5.750   4.015   4.257  0.1319  2.6587  1.2970
  132ccc     H7 3717   5.888   4.054   3.990 -3.5919  0.5444 -0.1028
  132ccc     H8 3718   5.926   3.946   4.118 -1.7431 -0.7580 -1.6366
  132ccc     N2 3719   5.997   4.147   4.169 -0.8997  0.4690  0.4082
  132ccc     C5 3720   6.143   4.139   4.119 -0.9255 -0.1133  0.5060
  132ccc     C6 3721   5.993   4.140   4.319 -0.2151  0.4191  0.3189
  132ccc     H9 3722   6.053   4.222   4.360  0.2395  0.2848 -0.0764
  132ccc     C7 3723   6.042   4.000   4.379 -0.1505 -0.7309  0.2676
  132ccc    H10 3724   5.886   4.155   4.340 -0.8123 -2.5672 -0.1224
  132ccc    H11 3725   6.141   3.982   4.336  0.0230  1.9933 -0.6973
  132ccc    H12 3726   5.967   3.924   4.353 -1.9047  1.2141 -0.7316
  132ccc     C8 3727   6.049   4.017   4.527  0.8243  0.3620  0.1002
  132ccc     O2 3728   6.144   4.050   4.585 -0.2241 -0.1758 -0.3557
  132ccc    H13 3729   6.181   4.037   4.117  0.1142  0.2654 -0.9746
  132ccc    H14 3730   6.197   4.201   4.192  0.5872  0.4675 -1.0110
  132ccc     C9 3731   6.178   4.209   3.979  1.3504 -0.1380 -0.3039
  132ccc    H15 3732   6.151   4.315   3.982 -1.7345 -0.8514  0.1306
  132ccc    H16 3733   6.128   4.163   3.893  0.4733 -0.2913  0.2818
  132ccc    C10 3734   6.326   4.202   3.947 -0.4359  0.6109  0.0687
  132ccc     O4 3735   6.410   4.160   4.024 -0.0425 -0.3777  0.6936
  132ccc    C11 3736   5.964   4.069   5.012 -0.2510  0.0996  0.0674
  132ccc    C12 3737   5.838   4.124   4.938 -0.7554  0.1346 -0.1587
  132ccc    H17 3738   6.047   4.136   4.988  0.3850 -0.4433  0.6830
  132ccc    C13 3739   5.859   4.115   4.784  0.5462  0.2831  0.4455
  132ccc    C14 3740   5.916   3.977   4.736  0.4200 -0.4051 -0.4333
  132ccc    C15 3741   6.036   3.939   4.829  0.3359 -0.2090 -0.1604
  132ccc    H18 3742   5.840   3.902   4.762 -1.0761  0.5619 -1.8650
  132ccc    H19 3743   5.937   4.188   4.760 -0.2196  1.0387  0.2011
  132ccc    H20 3744   6.114   4.014   4.811 -0.3835  0.5981 -0.0003
  132ccc     O1 3745   6.079   3.811   4.808  0.5162 -0.6750 -0.1060
  132ccc     O6 3746   5.733   4.157   4.726  0.2539 -0.1605  0.1290
  132ccc    C16 3747   5.939   4.051   5.161 -0.5943 -0.1741 -0.2848
  132ccc    H21 3748   5.669   4.182   4.795 -1.2524 -0.7933 -0.9716
  132ccc    H22 3749   5.861   3.924   4.539 -0.2109 -0.7505 -0.4250
  132ccc    H23 3750   5.861   3.977   5.183  0.9382 -1.6478  0.4267
  132ccc    H24 3751   5.914   4.150   5.202 -0.1222 -0.4375  0.6785
  132ccc     O7 3752   6.056   4.029   5.237 -0.5144  1.0663  0.5778
  132ccc    H25 3753   6.024   4.017   5.328 -2.4155  1.1671 -0.0330
  132ccc     O8 3754   6.004   3.942   4.969 -0.4040  0.2094  0.4745
  132ccc    H26 3755   6.038   3.763   4.882 -0.2052  0.7107  0.4234
  132ccc    H27 3756   5.751   4.064   4.965  0.8027 -1.4944  1.4889
  132ccc     O9 3757   5.821   4.270   4.978  0.3190  0.9372 -0.2686
  132ccc    H28 3758   5.734   4.280   5.020 -0.2340 -0.5617 -0.9986
  132ccc     N3 3759   5.938   3.968   4.591 -0.5516 -0.5101 -0.1167
  132ccc    C17 3760   6.802   4.205   3.785 -0.0659 -0.5355 -0.3839
  132ccc    C18 3761   6.720   4.090   3.729  0.1528  0.0006 -0.4017
  132ccc    H29 3762   6.808   4.172   3.890 -2.2375 -1.2245 -0.4260
  132ccc    C19 3763   6.569   4.099   3.772  0.2479 -0.3205  0.1842
  132ccc    C20 3764   6.506   4.242   3.765  0.3600  0.4223  0.3055
  132ccc    C21 3765   6.605   4.345   3.836 -0.0847  0.7960  0.3923
  132ccc    H30 3766   6.501   4.268   3.659  2.1186  0.1648  0.1323
  132ccc    H31 3767   6.568   4.080   3.880 -2.2201  0.2047  0.3101
  132ccc    H32 3768   6.616   4.320   3.942 -0.3190 -0.8020  0.0637
  132ccc    O10 3769   6.570   4.483   3.811 -0.2575 -0.3854 -0.4645
  132ccc    O11 3770   6.484   4.007   3.702  0.4678 -0.1969  0.1854
  132ccc    C22 3771   6.942   4.215   3.718 -0.2263  0.5124  0.9116
  132ccc    H33 3772   6.388   4.018   3.715  0.6225  0.7165  0.6214
  132ccc    H34 3773   6.298   4.305   3.785 -0.4979 -1.1236  0.8665
  132ccc    H35 3774   7.012   4.135   3.743 -0.3414 -0.2897 -1.1284
  132ccc    H36 3775   6.996   4.307   3.742 -0.1732  2.4126 -4.8684
  132ccc    O12 3776   6.920   4.204   3.575 -0.0010 -0.5598  1.2432
  132ccc    H37 3777   7.000   4.165   3.535 -1.6333 -2.7383 -0.1344
  132ccc    O13 3778   6.738   4.336   3.782  0.0224 -0.3890  0.4359
  132ccc    H38 3779   6.477   4.491   3.838  0.5560  2.0566  2.2326
  132ccc    H39 3780   6.721   4.089   3.619 -0.5945  0.8242 -0.4224
  132ccc     O5 3781   6.766   3.970   3.787 -0.2337 -0.1502 -0.4158
  132ccc    H40 3782   6.840   3.947   3.729  0.7417  1.9489 -0.1134
  132ccc     N4 3783   6.363   4.234   3.821  0.5678 -0.7878 -0.2948
  132ccc    H41 3784   5.974   4.245   4.147  0.6737  0.8261  0.2301
  133ccc     N1 3785   5.088   3.379   4.356 -0.0938  0.1148 -0.2113
  133ccc     H4 3786   5.087   3.472   4.397 -1.7375 -0.3352  0.8598
  133ccc     C3 3787   5.013   3.275   4.434 -0.0872  0.3526  0.2770
  133ccc     H5 3788   5.073   3.186   4.458  0.0472  1.0942  3.1435
  133ccc     C4 3789   4.875   3.232   4.378 -0.5532  0.5108  0.4009
  133ccc     H6 3790   4.981   3.319   4.530 -0.0087 -0.9029  0.8974
  133ccc     H7 3791   4.880   3.205   4.272  1.8516  1.5459  0.1872
  133ccc     H8 3792   4.826   3.330   4.377 -1.3552  0.1187 -1.5135
  133ccc     N2 3793   4.779   3.131   4.457 -0.3508  0.3935  0.3122
  133ccc     C5 3794   4.845   2.988   4.460 -0.6264 -0.1817 -0.2596
  133ccc     C6 3795   4.643   3.131   4.396  0.5476 -0.3968 -0.0635
  133ccc     H9 3796   4.620   3.239   4.387  1.4793 -0.2396 -0.5918
  133ccc     C7 3797   4.536   3.055   4.463  0.7193  0.1583 -0.4640
  133ccc    H10 3798   4.643   3.089   4.295 -0.6146  1.6647 -0.9953
  133ccc    H11 3799   4.540   3.092   4.566 -1.4045 -1.3291  0.2293
  133ccc    H12 3800   4.561   2.948   4.462 -0.8087 -0.2197 -1.8269
  133ccc     C8 3801   4.399   3.083   4.414  0.3910  0.6116  0.7081
  133ccc     O2 3802   4.375   3.147   4.316  0.4660 -0.1013  0.1871
  133ccc    H13 3803   4.769   2.912   4.482 -1.2081  0.9026  1.7824
  133ccc    H14 3804   4.916   2.976   4.543 -0.3745 -1.4558 -0.6468
  133ccc     C9 3805   4.905   2.942   4.326 -0.9180  0.3252 -0.3977
  133ccc    H15 3806   4.985   3.009   4.292 -0.4567 -0.0160  0.0052
  133ccc    H16 3807   4.830   2.953   4.246  0.2502  2.2438 -1.3000
  133ccc    C10 3808   4.960   2.804   4.312  0.5070 -0.0459 -0.6476
  133ccc     O4 3809   4.904   2.701   4.345  0.2070  0.2667  0.3853
  133ccc    C11 3810   3.872   2.967   4.477 -0.1154 -0.1077  0.2064
  133ccc    C12 3811   3.920   3.089   4.560  0.0614 -0.5179 -0.2607
  133ccc    H17 3812   3.888   2.875   4.534  0.2158 -0.7020 -0.8171
  133ccc    C13 3813   4.070   3.094   4.580 -0.1310 -0.6907  0.1076
  133ccc    C14 3814   4.156   3.057   4.452 -0.1637  0.0004  0.0360
  133ccc    C15 3815   4.100   2.931   4.385 -0.4658  0.3719 -0.1725
  133ccc    H18 3816   4.143   3.138   4.379  0.9201 -0.7363 -1.0217
  133ccc    H19 3817   4.099   3.029   4.663  2.2704  0.4597  0.2832
  133ccc    H20 3818   4.106   2.839   4.444  1.1303  0.9445  0.6393
  133ccc     O1 3819   4.162   2.913   4.261 -0.0149 -0.3353 -0.1973
  133ccc     O6 3820   4.102   3.238   4.605 -0.3632  0.2331 -0.0703
  133ccc    C16 3821   3.723   2.982   4.443  0.2596  0.4361  0.7310
  133ccc    H21 3822   4.058   3.270   4.686  0.7168  0.8305  0.3054
  133ccc    H22 3823   4.321   2.984   4.570  1.8778  0.1527  0.5326
  133ccc    H23 3824   3.703   3.014   4.340  0.4563  2.1452  1.1896
  133ccc    H24 3825   3.676   3.057   4.508 -0.9233  1.4152 -1.1576
  133ccc     O7 3826   3.655   2.857   4.461 -0.2861  0.1010 -0.1529
  133ccc    H25 3827   3.567   2.869   4.420  0.3295  2.5083 -0.9726
  133ccc     O8 3828   3.954   2.959   4.356 -0.2444 -0.1848  0.1974
  133ccc    H26 3829   4.125   2.983   4.204 -1.3987 -1.0239 -0.1953
  133ccc    H27 3830   3.889   3.178   4.504  1.5402  1.7107  2.1938
  133ccc     O9 3831   3.856   3.093   4.692 -0.0818 -0.4679 -0.5298
  133ccc    H28 3832   3.902   3.023   4.742 -1.2038 -0.8393  0.0199
  133ccc     N3 3833   4.302   3.052   4.497  0.2704 -0.2273  0.5780
  133ccc    C17 3834   5.472   2.724   4.439  0.4724 -0.2581  0.4554
  133ccc    C18 3835   5.350   2.744   4.541 -0.7164 -0.0972 -0.0316
  133ccc    H29 3836   5.494   2.824   4.399 -0.3419 -0.6043 -0.8973
  133ccc    C19 3837   5.237   2.806   4.458 -0.5767  0.1894  0.3132
  133ccc    C20 3838   5.191   2.728   4.334 -0.3843  0.2576 -0.0952
  133ccc    C21 3839   5.320   2.699   4.251 -0.5945  0.3940  0.4700
  133ccc    H30 3840   5.145   2.632   4.361 -0.1688  0.9173  3.0861
  133ccc    H31 3841   5.284   2.900   4.426 -0.5491 -0.7092 -2.4957
  133ccc    H32 3842   5.367   2.788   4.207  3.3507 -2.3066 -1.3835
  133ccc    O10 3843   5.288   2.609   4.150 -0.2738 -0.1008  0.6675
  133ccc    O11 3844   5.135   2.845   4.545  0.2305  0.0571 -0.5256
  133ccc    C22 3845   5.603   2.658   4.498  0.5471  0.3390 -0.2797
  133ccc    H33 3846   5.183   2.897   4.612 -2.8705  1.5700  0.7426
  133ccc    H34 3847   5.131   2.892   4.235  1.7038 -1.7243 -1.1885
  133ccc    H35 3848   5.590   2.559   4.544  1.4465  0.5217  0.4023
  133ccc    H36 3849   5.639   2.722   4.580  1.3169  1.6887 -1.6316
  133ccc    O12 3850   5.706   2.652   4.404 -0.1865  0.1330  0.0311
  133ccc    H37 3851   5.747   2.739   4.388 -0.3656  0.3165  0.5576
  133ccc    O13 3852   5.420   2.642   4.331  0.5289  0.4814  0.5487
  133ccc    H38 3853   5.268   2.523   4.191  1.1201 -1.1187 -0.6372
  133ccc    H39 3854   5.322   2.652   4.594  0.2952  0.4455  1.5127
  133ccc     O5 3855   5.393   2.839   4.630 -0.0923 -0.4061 -0.0045
  133ccc    H40 3856   5.433   2.787   4.702 -1.5408 -0.0256  1.1307
  133ccc     N4 3857   5.086   2.806   4.265 -0.2670 -0.3967 -0.1070
  133ccc    H41 3858   4.762   3.161   4.554 -0.7767  0.4730  0.2126
  134ccc     N1 3859   5.951   6.788   3.050  0.8532 -0.1377  0.4974
  134ccc     H4 3860   5.869   6.804   3.107  1.0076 -1.5265  1.1481
  134ccc     C3 3861   6.020   6.656   3.044  0.2411  0.2206  0.3311
  134ccc     H5 3862   6.114   6.660   2.987  0.4502 -0.3932  0.6226
  134ccc     C4 3863   5.931   6.550   2.978 -0.1990 -0.3699  0.3292
  134ccc     H6 3864   6.051   6.626   3.145  0.2960 -0.2957  0.1651
  134ccc     H7 3865   5.836   6.564   3.032  0.2197  0.5670  0.8527
  134ccc     H8 3866   5.969   6.448   2.989 -1.2917 -1.0366 -1.6967
  134ccc     N2 3867   5.909   6.569   2.829 -0.0970 -0.5159 -0.5091
  134ccc     C5 3868   5.809   6.466   2.787 -0.2316  0.0042 -0.6444
  134ccc     C6 3869   6.039   6.566   2.746  0.7730  0.7880 -0.2199
  134ccc     H9 3870   6.000   6.598   2.648 -2.2546  1.0706  0.9824
  134ccc     C7 3871   6.120   6.431   2.739  0.1528  0.2535  0.4399
  134ccc    H10 3872   6.100   6.650   2.782  1.8731 -0.2113  0.3138
  134ccc    H11 3873   6.058   6.347   2.707  2.5152 -1.5335  0.3217
  134ccc    H12 3874   6.159   6.406   2.838  0.0234 -0.4747  0.3082
  134ccc     C8 3875   6.239   6.435   2.639 -0.3223  0.3197 -0.7501
  134ccc     O2 3876   6.236   6.492   2.536  0.4729  0.4287  0.4341
  134ccc    H13 3877   5.714   6.479   2.840 -0.2595 -0.5596 -0.5497
  134ccc    H14 3878   5.858   6.373   2.819  2.8958  0.8297 -2.5384
  134ccc     C9 3879   5.769   6.464   2.630 -0.4726 -0.6334  0.4464
  134ccc    H15 3880   5.852   6.481   2.560 -0.2608 -4.8650 -0.6465
  134ccc    H16 3881   5.687   6.534   2.612 -0.1020 -0.0760  0.8928
  134ccc    C10 3882   5.704   6.336   2.584 -0.1657 -0.4383 -0.3569
  134ccc     O4 3883   5.652   6.259   2.668  0.2156 -0.0523  0.2399
  134ccc    C11 3884   6.768   6.396   2.619  1.0425 -0.0388 -0.1300
  134ccc    C12 3885   6.702   6.287   2.529  0.3978  0.2613  0.4630
  134ccc    H17 3886   6.784   6.359   2.721  1.1928  0.7737  0.1469
  134ccc    C13 3887   6.562   6.261   2.584  0.4810 -0.2214  0.4167
  134ccc    C14 3888   6.473   6.390   2.599 -0.5916 -0.3407 -0.1007
  134ccc    C15 3889   6.558   6.498   2.677 -0.2936 -0.1121  0.4983
  134ccc    H18 3890   6.455   6.425   2.496  1.7242 -1.5649 -1.0036
  134ccc    H19 3891   6.582   6.226   2.686 -0.9661  0.4286  0.9574
  134ccc    H20 3892   6.579   6.476   2.783 -1.2904 -0.6026  0.6073
  134ccc     O1 3893   6.489   6.625   2.666 -0.2949 -0.1815 -0.2927
  134ccc     O6 3894   6.497   6.164   2.501  0.7953  0.5619  0.5117
  134ccc    C16 3895   6.908   6.425   2.566  0.0106 -0.8337 -0.1019
  134ccc    H21 3896   6.420   6.135   2.553 -0.1733 -0.5634 -1.4701
  134ccc    H22 3897   6.359   6.311   2.757  1.9604 -0.5519 -0.5165
  134ccc    H23 3898   6.906   6.432   2.456  2.7755 -0.6965 -0.2120
  134ccc    H24 3899   6.980   6.344   2.587 -0.4825 -1.2458  0.0248
  134ccc     O7 3900   6.944   6.551   2.614 -0.2847 -0.1416  0.4986
  134ccc    H25 3901   6.862   6.603   2.607  0.1842  0.5912  0.4075
  134ccc     O8 3902   6.684   6.518   2.614  0.2769  0.3496  0.0042
  134ccc    H26 3903   6.410   6.621   2.723  0.1831 -0.5010  0.3620
  134ccc    H27 3904   6.683   6.332   2.431 -0.3499 -0.9138  0.0474
  134ccc     O9 3905   6.778   6.169   2.528 -0.0390  0.1434 -0.1107
  134ccc    H28 3906   6.721   6.102   2.485  2.5708 -2.4444  0.1426
  134ccc     N3 3907   6.346   6.359   2.668  0.5580  0.2477  0.0962
  134ccc    C17 3908   5.879   6.308   2.072 -0.0218 -0.7384 -0.3139
  134ccc    C18 3909   5.756   6.407   2.090  0.3584 -0.0121  0.5130
  134ccc    H29 3910   5.840   6.206   2.059 -2.0963  0.0966 -1.0967
  134ccc    C19 3911   5.677   6.377   2.219  0.2153  0.4108 -0.3392
  134ccc    C20 3912   5.769   6.361   2.345  0.5551 -0.0987  0.5458
  134ccc    C21 3913   5.892   6.268   2.313 -0.6830 -0.7705 -0.1062
  134ccc    H30 3914   5.810   6.460   2.368  2.8306 -0.9067  0.3068
  134ccc    H31 3915   5.622   6.284   2.201 -0.8651  1.1111 -0.7928
  134ccc    H32 3916   5.865   6.163   2.298  0.6546 -1.0689 -0.5189
  134ccc    O10 3917   5.996   6.279   2.416 -0.3284 -0.4551  0.8435
  134ccc    O11 3918   5.573   6.473   2.252  0.7028  0.2392  0.0047
  134ccc    C22 3919   5.959   6.356   1.946 -0.2059  0.0953 -0.7875
  134ccc    H33 3920   5.492   6.442   2.208  1.8371 -1.9042 -0.6739
  134ccc    H34 3921   5.642   6.220   2.436  1.0431 -0.4208  0.2615
  134ccc    H35 3922   6.040   6.425   1.972 -1.4678  2.0210 -1.7702
  134ccc    H36 3923   5.893   6.413   1.881 -1.0656  2.0419  1.6312
  134ccc    O12 3924   6.003   6.242   1.881  0.0088 -0.5295  0.0718
  134ccc    H37 3925   6.022   6.273   1.792 -2.1482  2.2070  0.4194
  134ccc    O13 3926   5.960   6.303   2.188 -0.3252  0.3441  0.5290
  134ccc    H38 3927   6.074   6.248   2.369 -0.9115 -0.6401 -0.0231
  134ccc    H39 3928   5.798   6.508   2.094  4.9887 -1.7058  0.1755
  134ccc     O5 3929   5.654   6.386   1.987 -1.0404  0.1763 -0.3356
  134ccc    H40 3930   5.664   6.458   1.923 -0.2484  0.2030 -0.2011
  134ccc     N4 3931   5.689   6.308   2.459 -0.3308  0.3485  0.2103
  134ccc    H41 3932   5.859   6.659   2.818 -1.0744 -1.0887 -0.8561
  135ccc     N1 3933   5.622   7.540   3.438  0.2506 -0.3667 -1.0318
  135ccc     H4 3934   5.624   7.561   3.537 -1.1679 -3.1381 -0.2940
  135ccc     C3 3935   5.525   7.605   3.342  0.1579  0.0222  0.4295
  135ccc     H5 3936   5.552   7.599   3.236  0.4838  2.1421  0.3389
  135ccc     C4 3937   5.509   7.756   3.376 -0.3891 -0.0902  0.1919
  135ccc     H6 3938   5.424   7.563   3.346 -1.9554  4.3651 -1.0876
  135ccc     H7 3939   5.487   7.766   3.483  1.3740 -0.4166  0.6074
  135ccc     H8 3940   5.422   7.795   3.322 -0.9405  0.3099  1.3326
  135ccc     N2 3941   5.633   7.840   3.333  0.0206  0.4920  1.1007
  135ccc     C5 3942   5.648   7.959   3.423  0.4132 -0.4619  0.5231
  135ccc     C6 3943   5.630   7.870   3.181  0.2820 -0.3168 -0.8226
  135ccc     H9 3944   5.578   7.783   3.140 -0.2869 -0.7498  0.7627
  135ccc     C7 3945   5.769   7.905   3.122  0.9030  0.2106 -0.6559
  135ccc    H10 3946   5.558   7.951   3.162  1.0808  0.8061  0.7480
  135ccc    H11 3947   5.823   7.990   3.165 -0.4834  2.8791 -3.7165
  135ccc    H12 3948   5.774   7.931   3.016  1.5166  1.2475 -0.3864
  135ccc     C8 3949   5.861   7.779   3.145  0.2734 -0.3693  0.1787
  135ccc     O2 3950   5.831   7.679   3.207  0.1823  0.2684 -0.1716
  135ccc    H13 3951   5.550   8.004   3.439 -0.1369 -1.2217 -0.5806
  135ccc    H14 3952   5.702   8.026   3.355 -0.2794 -0.3804  0.0500
  135ccc     C9 3953   5.718   7.951   3.565  0.2057  0.4985  0.4094
  135ccc    H15 3954   5.658   7.898   3.639  0.1509  1.6745  1.2423
  135ccc    H16 3955   5.716   8.058   3.588 -0.1209  0.2041  1.8269
  135ccc    C10 3956   5.851   7.889   3.550 -0.5560 -0.1302 -0.5351
  135ccc     O4 3957   5.900   7.854   3.446  0.2616 -0.2634 -0.6896
  135ccc    C11 3958   6.196   7.462   3.236 -0.5250 -0.2731 -0.1478
  135ccc    C12 3959   6.157   7.437   3.089  0.3868 -0.0989 -0.7905
  135ccc    H17 3960   6.110   7.452   3.304 -1.5499  3.0780 -0.7771
  135ccc    C13 3961   6.045   7.536   3.053 -0.5697  0.2589  0.9466
  135ccc    C14 3962   6.087   7.684   3.089 -0.4358  0.3720  0.0453
  135ccc    C15 3963   6.154   7.693   3.233  0.0267 -0.2749  0.3162
  135ccc    H18 3964   6.170   7.711   3.024  0.3983 -0.3017  0.8031
  135ccc    H19 3965   5.955   7.506   3.109 -1.5494 -1.7264 -1.5036
  135ccc    H20 3966   6.071   7.693   3.306 -0.7678  5.7096 -0.0589
  135ccc     O1 3967   6.215   7.815   3.253  0.4841 -0.0777 -0.0433
  135ccc     O6 3968   6.013   7.534   2.916  0.2663  0.0447  0.5271
  135ccc    C16 3969   6.292   7.353   3.286  0.3585 -0.2304 -0.2788
  135ccc    H21 3970   5.937   7.592   2.901 -0.5541 -0.9268  0.8332
  135ccc    H22 3971   5.984   7.860   3.009 -1.0195 -1.4142 -1.6884
  135ccc    H23 3972   6.234   7.260   3.288  2.1956 -1.4478 -0.9634
  135ccc    H24 3973   6.324   7.362   3.390 -2.2034  0.5262  0.5001
  135ccc     O7 3974   6.409   7.347   3.211  0.4718 -0.3973 -0.1163
  135ccc    H25 3975   6.431   7.441   3.198  1.1212 -0.5634 -0.2582
  135ccc     O8 3976   6.257   7.594   3.249 -0.3751  0.9169  0.4464
  135ccc    H26 3977   6.258   7.817   3.166 -0.2997 -1.7625 -0.5015
  135ccc    H27 3978   6.241   7.456   3.022  2.2935 -3.2307  0.4966
  135ccc     O9 3979   6.112   7.304   3.065  0.0075  0.2758  0.3355
  135ccc    H28 3980   6.079   7.311   2.974  0.6625 -1.1429 -0.0383
  135ccc     N3 3981   5.974   7.785   3.077 -0.1176 -0.1399 -0.0696
  135ccc    C17 3982   6.279   7.632   3.607 -0.3420  0.4562 -0.2082
  135ccc    C18 3983   6.285   7.781   3.648 -0.1911  0.0048  0.0192
  135ccc    H29 3984   6.285   7.616   3.499  2.2078  0.6927 -0.1712
  135ccc    C19 3985   6.152   7.852   3.619 -0.1381 -0.6144 -0.2166
  135ccc    C20 3986   6.035   7.786   3.691  0.0155  0.5395 -0.0717
  135ccc    C21 3987   6.036   7.638   3.644  0.4598  0.0091 -0.2433
  135ccc    H30 3988   6.053   7.771   3.798  2.5341 -0.1834 -0.5414
  135ccc    H31 3989   6.139   7.834   3.511 -2.4933 -0.0407 -0.0915
  135ccc    H32 3990   6.007   7.634   3.538  1.5648  1.3071 -0.6205
  135ccc    O10 3991   5.939   7.560   3.722  0.0850  0.6678  0.2061
  135ccc    O11 3992   6.155   7.992   3.655 -0.0711  0.0067  0.1012
  135ccc    C22 3993   6.404   7.554   3.658  0.8241 -0.1195  0.0543
  135ccc    H33 3994   6.190   8.034   3.575 -0.1031 -2.5005 -1.3302
  135ccc    H34 3995   5.863   7.885   3.755  1.4767  1.7336 -0.3979
  135ccc    H35 3996   6.423   7.551   3.766 -2.5700  1.8955  0.8464
  135ccc    H36 3997   6.485   7.610   3.609 -0.7017  0.5092 -1.9052
  135ccc    O12 3998   6.400   7.418   3.611  0.1919 -0.1312  0.0371
  135ccc    H37 3999   6.474   7.394   3.553  0.0810 -0.7601  0.1507
  135ccc    O13 4000   6.164   7.567   3.661  0.0052  0.3565 -0.1502
  135ccc    H38 4001   5.851   7.592   3.696 -0.0939  0.4796  0.5732
  135ccc    H39 4002   6.309   7.785   3.755  0.7139 -0.5364 -0.1428
  135ccc     O5 4003   6.395   7.833   3.573  0.1696  0.1949 -0.0580
  135ccc    H40 4004   6.447   7.879   3.640  0.3711 -0.0064 -0.0761
  135ccc     N4 4005   5.909   7.863   3.666  0.3332 -0.2461 -0.5531
  135ccc    H41 4006   5.716   7.780   3.346 -0.2233  0.3980  2.2840
  136ccc     N1 4007   6.030   6.966   2.544  1.1131 -0.0728 -0.0014
  136ccc     H4 4008   6.039   7.063   2.518  0.7814 -0.1528 -0.4148
  136ccc     C3 4009   6.150   6.877   2.566 -0.2768 -0.1190 -0.2278
  136ccc     H5 4010   6.156   6.831   2.665  0.1550 -1.4484 -0.8463
  136ccc     C4 4011   6.280   6.952   2.542  0.1792  0.4829  0.2883
  136ccc     H6 4012   6.148   6.789   2.500 -0.6283 -0.8154  0.7007
  136ccc     H7 4013   6.271   7.002   2.444 -0.1037 -1.7447 -0.8915
  136ccc     H8 4014   6.357   6.875   2.529 -0.1637  0.2835 -0.6026
  136ccc     N2 4015   6.315   7.051   2.648 -0.5403 -0.6825  0.5150
  136ccc     C5 4016   6.411   7.153   2.587 -0.5031 -0.1534  0.2495
  136ccc     C6 4017   6.366   6.995   2.780  0.4030  0.9273 -0.7205
  136ccc     H9 4018   6.313   6.900   2.798  0.3347  0.7062 -1.9746
  136ccc     C7 4019   6.313   7.074   2.908 -0.1176  0.2574 -0.2519
  136ccc    H10 4020   6.473   6.976   2.769  0.0517 -1.1493 -1.0788
  136ccc    H11 4021   6.204   7.082   2.903 -0.1865 -0.7804 -0.6087
  136ccc    H12 4022   6.355   7.175   2.914 -1.8347  0.9167  1.8134
  136ccc     C8 4023   6.358   6.994   3.032 -0.3222  0.8569 -1.4888
  136ccc     O2 4024   6.359   6.869   3.036  0.0677  0.0829 -0.0270
  136ccc    H13 4025   6.362   7.216   2.512  1.4767  1.8194  0.5180
  136ccc    H14 4026   6.487   7.098   2.530  1.1047  2.6840 -0.5195
  136ccc     C9 4027   6.499   7.255   2.674  0.1709  0.2286 -0.6104
  136ccc    H15 4028   6.576   7.304   2.612  0.7510 -1.7925 -1.5537
  136ccc    H16 4029   6.557   7.199   2.748 -1.4254  1.8236  2.0057
  136ccc    C10 4030   6.427   7.372   2.750  0.1110  0.6357  0.4800
  136ccc     O4 4031   6.308   7.392   2.751  0.0652 -0.2559  0.4037
  136ccc    C11 4032   6.537   6.825   3.442  1.4807 -0.5171  0.0460
  136ccc    C12 4033   6.621   6.948   3.416 -0.5565  0.2836  0.5788
  136ccc    H17 4034   6.555   6.756   3.359 -2.3384 -0.7400 -0.7476
  136ccc    C13 4035   6.582   7.008   3.276 -0.1235 -0.5468 -0.0644
  136ccc    C14 4036   6.428   7.030   3.270 -0.1892 -0.1486  0.4751
  136ccc    C15 4037   6.353   6.899   3.323  0.2108  0.0247  0.4075
  136ccc    H18 4038   6.405   7.112   3.339 -0.7782 -0.0405  0.1536
  136ccc    H19 4039   6.606   6.931   3.202 -0.4496  0.7160 -1.5259
  136ccc    H20 4040   6.359   6.816   3.251 -2.0959  0.1115  0.0331
  136ccc     O1 4041   6.216   6.929   3.346 -0.1395  0.1895 -0.4962
  136ccc     O6 4042   6.639   7.132   3.256  0.1179 -0.3281 -0.5745
  136ccc    C16 4043   6.573   6.739   3.570 -0.5633 -0.6381  0.3118
  136ccc    H21 4044   6.722   7.128   3.307  0.7397 -0.0669 -1.5432
  136ccc    H22 4045   6.378   7.170   3.127  0.0231 -0.1999 -0.0695
  136ccc    H23 4046   6.598   6.803   3.655  2.3220 -1.8595  0.5053
  136ccc    H24 4047   6.664   6.681   3.548 -1.3462 -1.5388 -0.6918
  136ccc     O7 4048   6.461   6.660   3.598 -0.3620 -0.6536 -0.2895
  136ccc    H25 4049   6.394   6.692   3.536  1.3160  1.2456 -1.2399
  136ccc     O8 4050   6.397   6.856   3.448 -0.3629 -0.1073  0.3546
  136ccc    H26 4051   6.180   6.849   3.387 -1.1100  0.4522 -0.7963
  136ccc    H27 4052   6.597   7.018   3.497  0.3539  0.6945  0.5079
  136ccc     O9 4053   6.758   6.918   3.424 -1.0849  0.1509 -0.8368
  136ccc    H28 4054   6.808   7.001   3.433 -1.0495  0.1548 -1.0664
  136ccc     N3 4055   6.370   7.069   3.141 -0.2301 -0.1521  0.1399
  136ccc    C17 4056   6.897   7.512   2.991 -0.3920 -0.3054  0.0724
  136ccc    C18 4057   6.823   7.382   3.029  0.4045  0.0352 -0.3363
  136ccc    H29 4058   6.874   7.581   3.074  1.2062 -0.8481  1.0095
  136ccc    C19 4059   6.674   7.378   2.988  0.6283 -0.0182 -0.0862
  136ccc    C20 4060   6.652   7.438   2.844 -0.2163 -0.7392 -0.4069
  136ccc    C21 4061   6.720   7.572   2.843  0.2938  0.1188  0.3557
  136ccc    H30 4062   6.703   7.368   2.776  3.0783  0.3465  0.7248
  136ccc    H31 4063   6.620   7.437   3.063 -2.1197  0.0738 -2.0124
  136ccc    H32 4064   6.672   7.630   2.923  0.4723  0.1838  0.4186
  136ccc    O10 4065   6.707   7.636   2.722 -0.1355  0.1033 -0.5211
  136ccc    O11 4066   6.626   7.246   2.996 -0.2400  0.8587  0.2264
  136ccc    C22 4067   7.053   7.489   3.004  0.2298  0.6786 -0.3280
  136ccc    H33 4068   6.662   7.203   3.075  0.3702  2.3436  0.7944
  136ccc    H34 4069   6.459   7.525   2.888  1.8809  1.3345  0.6932
  136ccc    H35 4070   7.082   7.443   3.099 -2.0310  0.2694  0.2121
  136ccc    H36 4071   7.109   7.583   3.004  0.9695  0.2790  1.6335
  136ccc    O12 4072   7.103   7.406   2.895 -0.2559 -0.2968  0.2944
  136ccc    H37 4073   7.199   7.413   2.913 -0.3797  0.4962  0.6898
  136ccc    O13 4074   6.862   7.563   2.864 -0.3150  0.3046  0.5425
  136ccc    H38 4075   6.617   7.671   2.727 -0.5952 -0.8393 -1.6423
  136ccc    H39 4076   6.871   7.297   2.978 -1.5199 -0.8092 -0.8500
  136ccc     O5 4077   6.826   7.365   3.176 -0.0346 -0.5511  0.2392
  136ccc    H40 4078   6.768   7.430   3.219  0.2921 -2.1258  3.3434
  136ccc     N4 4079   6.500   7.454   2.827  0.3812  0.6345  0.4566
  136ccc    H41 4080   6.228   7.106   2.660  1.2926  2.4851  0.3134
  137ccc     N1 4081   6.013   6.686   2.182 -0.1561 -0.0411 -0.0503
  137ccc     H4 4082   6.013   6.725   2.088  0.3796 -2.3111 -1.0583
  137ccc     C3 4083   6.137   6.609   2.222  0.5818 -0.1776  0.3401
  137ccc     H5 4084   6.182   6.664   2.306  0.2409 -1.7976  1.6368
  137ccc     C4 4085   6.240   6.594   2.109 -0.5720 -0.1424  0.3829
  137ccc     H6 4086   6.115   6.511   2.267 -0.6061  0.7742  1.9285
  137ccc     H7 4087   6.258   6.691   2.061 -2.4226  0.1747  0.2357
  137ccc     H8 4088   6.208   6.529   2.027 -0.0626  0.8789 -0.6512
  137ccc     N2 4089   6.374   6.541   2.154 -0.1310 -0.1414 -0.0708
  137ccc     C5 4090   6.378   6.411   2.233 -0.1614 -0.4049 -0.2338
  137ccc     C6 4091   6.446   6.648   2.232  0.1808  0.4899  0.2498
  137ccc     H9 4092   6.449   6.737   2.167  0.3191  0.2568 -0.0677
  137ccc     C7 4093   6.592   6.634   2.284 -0.1359 -0.8100 -0.9029
  137ccc    H10 4094   6.384   6.681   2.316  1.2353 -0.0184  1.2470
  137ccc    H11 4095   6.659   6.620   2.198 -0.3960 -1.6414 -0.9794
  137ccc    H12 4096   6.604   6.549   2.353 -1.9761 -0.0214  0.4854
  137ccc     C8 4097   6.637   6.761   2.361  0.4707  0.5430 -0.8669
  137ccc     O2 4098   6.563   6.850   2.387  0.1160  0.7926 -0.2423
  137ccc    H13 4099   6.310   6.412   2.319  1.7806  0.3280  1.3692
  137ccc    H14 4100   6.480   6.400   2.271 -0.0533  0.4955 -0.2511
  137ccc     C9 4101   6.346   6.281   2.147  0.2128  0.0331 -0.2549
  137ccc    H15 4102   6.439   6.242   2.104  1.2566 -0.1044  1.9657
  137ccc    H16 4103   6.269   6.302   2.072 -1.1693  2.8098  1.7395
  137ccc    C10 4104   6.287   6.163   2.231  0.9985  0.3069 -0.2295
  137ccc     O4 4105   6.230   6.176   2.336  0.0747  0.3172  0.4172
  137ccc    C11 4106   6.852   7.125   2.591  0.0315  0.5594  0.2563
  137ccc    C12 4107   6.836   7.001   2.682  0.0203 -0.7318 -0.7797
  137ccc    H17 4108   6.750   7.161   2.570  0.3974  1.0034 -0.8443
  137ccc    C13 4109   6.772   6.880   2.606 -0.5830  0.2062  0.3034
  137ccc    C14 4110   6.837   6.869   2.465 -0.4192 -0.4860 -0.1081
  137ccc    C15 4111   6.834   7.004   2.384 -0.8789  0.3351 -0.0417
  137ccc    H18 4112   6.942   6.840   2.473 -1.3224 -4.4843 -0.3495
  137ccc    H19 4113   6.668   6.910   2.589 -0.1463  0.5332 -2.2635
  137ccc    H20 4114   6.732   7.032   2.357 -1.5804 -0.1299  2.0195
  137ccc     O1 4115   6.917   6.984   2.272  0.4766  0.0703  0.4928
  137ccc     O6 4116   6.778   6.765   2.686  0.3457 -0.1300 -0.7240
  137ccc    C16 4117   6.928   7.240   2.665 -0.2458 -0.4230  0.5047
  137ccc    H21 4118   6.685   6.738   2.698 -0.1556  2.2781  2.4888
  137ccc    H22 4119   6.832   6.697   2.353 -1.6174 -0.3903 -1.1086
  137ccc    H23 4120   6.877   7.275   2.756 -1.5611  0.1407 -0.4051
  137ccc    H24 4121   6.922   7.329   2.600  0.7826 -1.7125 -1.4796
  137ccc     O7 4122   7.058   7.207   2.699 -0.1805  0.5512 -0.2507
  137ccc    H25 4123   7.090   7.280   2.755  0.4274 -0.9712  1.4746
  137ccc     O8 4124   6.912   7.095   2.463 -0.3262 -0.9005 -0.4951
  137ccc    H26 4125   6.868   6.924   2.213  0.0454  0.1773  0.7405
  137ccc    H27 4126   6.937   6.977   2.717 -0.2733 -1.3247 -0.3223
  137ccc     O9 4127   6.753   7.050   2.793  0.1381 -0.5810 -0.2557
  137ccc    H28 4128   6.808   7.041   2.873 -0.6742  0.6860  0.4868
  137ccc     N3 4129   6.762   6.755   2.399 -0.1785  0.3833  0.1497
  137ccc    C17 4130   6.115   5.550   2.209 -0.7765 -0.3360  0.3437
  137ccc    C18 4131   6.275   5.588   2.102 -1.1249  0.2620  0.3963
  137ccc    H29 4132   6.042   5.531   2.129  1.3562  1.5037 -2.2049
  137ccc    C19 4133   6.348   5.774   2.097  0.0261  0.6441  0.0374
  137ccc    C20 4134   6.283   5.910   2.230 -0.0259  0.0293 -0.6893
  137ccc    C21 4135   6.117   5.863   2.331 -0.7127  0.7102  0.2680
  137ccc    H30 4136   6.358   5.927   2.308  1.0241  0.5235 -1.7585
  137ccc    H31 4137   6.317   5.810   1.999 -0.2006 -0.6211 -0.3773
  137ccc    H32 4138   6.030   5.912   2.285  0.5761  1.5802 -1.3678
  137ccc    O10 4139   6.097   5.925   2.462  0.2320 -0.2231  0.5237
  137ccc    O11 4140   6.493   5.775   2.083 -0.1423  0.0430  0.3320
  137ccc    C22 4141   6.119   5.410   2.281  0.4682 -0.4185 -0.2554
  137ccc    H33 4142   6.523   5.707   2.022  0.6042  0.2631  0.4480
  137ccc    H34 4143   6.363   6.049   2.089 -0.5352  2.0999 -0.3354
  137ccc    H35 4144   6.048   5.341   2.234  0.6576  0.0532 -1.2416
  137ccc    H36 4145   6.087   5.424   2.385  1.4504 -1.7798  0.2666
  137ccc    O12 4146   6.258   5.364   2.292  0.6941 -0.6423 -0.5594
  137ccc    H37 4147   6.271   5.267   2.292  0.7617 -0.6570  1.2080
  137ccc    O13 4148   6.052   5.685   2.321 -0.0624  0.1954 -0.2060
  137ccc    H38 4149   6.003   5.937   2.486 -0.7160 -1.2554 -2.3600
  137ccc    H39 4150   6.357   5.521   2.130  0.7043  2.3989  0.3777
  137ccc     O5 4151   6.262   5.542   1.969 -0.2045 -0.1143  0.2391
  137ccc    H40 4152   6.222   5.453   1.974 -2.4849  0.8416  0.3696
  137ccc     N4 4153   6.302   6.046   2.170 -0.3231 -0.2605 -0.1894
  137ccc    H41 4154   6.433   6.532   2.070 -0.9091 -1.5333 -0.5109
  138ccc     N1 4155   5.773   6.456   4.227 -0.0397 -0.2176  0.2949
  138ccc     H4 4156   5.873   6.472   4.232  0.7961 -3.6704 -2.1510
  138ccc     C3 4157   5.674   6.555   4.178 -0.6029 -0.5297 -0.5106
  138ccc     H5 4158   5.612   6.513   4.098  1.1217 -1.5850 -1.3530
  138ccc     C4 4159   5.740   6.682   4.120 -0.3887  0.5290 -0.1052
  138ccc     H6 4160   5.606   6.581   4.260 -0.7935  1.5918 -1.2809
  138ccc     H7 4161   5.822   6.701   4.190 -0.0833  0.8104 -0.5299
  138ccc     H8 4162   5.679   6.774   4.125  2.0836  2.2073  1.7176
  138ccc     N2 4163   5.808   6.678   3.986  0.4969 -0.1346  0.6379
  138ccc     C5 4164   5.880   6.805   3.965 -0.2127  0.2160 -0.2382
  138ccc     C6 4165   5.701   6.660   3.877 -0.7778  0.2721 -0.5755
  138ccc     H9 4166   5.749   6.661   3.778 -2.1419 -0.5573 -1.2842
  138ccc     C7 4167   5.581   6.753   3.866 -0.0672  0.3036  0.0031
  138ccc    H10 4168   5.659   6.558   3.880 -0.4800  0.1268  2.7510
  138ccc    H11 4169   5.613   6.854   3.836  1.9913 -0.6173 -1.0471
  138ccc    H12 4170   5.535   6.772   3.964  2.6653  0.5491  1.3308
  138ccc     C8 4171   5.471   6.707   3.768 -0.6317  0.3958 -0.0538
  138ccc     O2 4172   5.487   6.610   3.689  0.1135 -0.4934  0.2209
  138ccc    H13 4173   5.810   6.889   3.968 -0.1496  0.2603  2.1450
  138ccc    H14 4174   5.931   6.809   3.868 -0.9996  2.6757 -0.6026
  138ccc     C9 4175   6.004   6.841   4.059 -0.7418  0.0730  0.6332
  138ccc    H15 4176   5.975   6.862   4.163  0.6418 -1.7824  1.4522
  138ccc    H16 4177   6.056   6.928   4.016 -0.9715 -0.7309 -1.3354
  138ccc    C10 4178   6.116   6.740   4.085 -0.1366 -0.4974 -0.0167
  138ccc     O4 4179   6.091   6.630   4.130  0.1019 -0.9986  0.2176
  138ccc    C11 4180   5.047   6.681   3.472  0.1384  0.4455 -0.4876
  138ccc    C12 4181   5.049   6.611   3.614  0.3144 -0.4239 -0.3736
  138ccc    H17 4182   5.091   6.610   3.400 -1.0631  0.9403 -1.7639
  138ccc    C13 4183   5.192   6.617   3.680  0.7848  0.2818 -0.2698
  138ccc    C14 4184   5.243   6.766   3.674 -0.3686  0.1801  0.1429
  138ccc    C15 4185   5.250   6.805   3.524 -0.2678  0.3559 -0.1638
  138ccc    H18 4186   5.168   6.829   3.724 -0.7438 -1.4226  1.7194
  138ccc    H19 4187   5.264   6.551   3.631  1.3359 -0.2174  1.1377
  138ccc    H20 4188   5.303   6.737   3.456 -0.7419 -1.6670  1.4116
  138ccc     O1 4189   5.290   6.937   3.504  0.0494  0.1134  0.0711
  138ccc     O6 4190   5.185   6.559   3.815 -0.8839 -0.1988  0.3592
  138ccc    C16 4191   4.902   6.706   3.429  0.0272 -0.7377  0.5725
  138ccc    H21 4192   5.117   6.602   3.870 -0.3285  2.2371 -0.7420
  138ccc    H22 4193   5.367   6.881   3.791 -0.7880  0.8304 -2.8556
  138ccc    H23 4194   4.855   6.786   3.487  0.5871  0.7927 -0.9956
  138ccc    H24 4195   4.839   6.622   3.460  0.5874 -0.0834  3.7950
  138ccc     O7 4196   4.898   6.726   3.282 -0.2089  0.0253  0.3975
  138ccc    H25 4197   4.838   6.802   3.273  0.3566  0.6170  1.3837
  138ccc     O8 4198   5.117   6.806   3.475 -0.4672  0.5213  0.1313
  138ccc    H26 4199   5.216   6.988   3.540  0.5374  0.4929  0.5651
  138ccc    H27 4200   4.983   6.666   3.682  1.0728 -1.2402  1.0661
  138ccc     O9 4201   5.012   6.472   3.619 -0.2009  0.3148  0.4588
  138ccc    H28 4202   5.057   6.438   3.699 -0.3565 -3.2419 -0.7968
  138ccc     N3 4203   5.362   6.784   3.760 -0.1522 -0.2339  0.0837
  138ccc    C17 4204   6.512   7.073   3.916  0.0507 -0.4254 -1.2839
  138ccc    C18 4205   6.396   7.034   3.827  0.0556 -0.4802 -0.7727
  138ccc    H29 4206   6.598   7.005   3.905  1.1971  0.6370  0.6115
  138ccc    C19 4207   6.335   6.897   3.868  0.0412  0.2594  0.1683
  138ccc    C20 4208   6.310   6.894   4.023 -0.3578 -0.5558 -0.2858
  138ccc    C21 4209   6.446   6.922   4.102  0.5409 -0.7449  0.3426
  138ccc    H30 4210   6.245   6.981   4.038 -1.0383 -0.9640 -0.8021
  138ccc    H31 4211   6.400   6.813   3.840  0.3408  1.2223 -2.3352
  138ccc    H32 4212   6.521   6.846   4.078  0.7422 -1.8654  3.9139
  138ccc    O10 4213   6.435   6.926   4.244  0.0673  0.2299  0.7858
  138ccc    O11 4214   6.210   6.880   3.798  0.1823 -0.4122  0.1276
  138ccc    C22 4215   6.549   7.221   3.901 -0.8777 -0.1059 -0.3553
  138ccc    H33 4216   6.201   6.787   3.772 -1.5333 -0.5736  1.1409
  138ccc    H34 4217   6.300   6.686   4.087 -0.3430 -0.1156  1.7099
  138ccc    H35 4218   6.467   7.287   3.929 -0.8919  0.3230 -1.3554
  138ccc    H36 4219   6.575   7.247   3.797  0.5898  0.6069  0.1637
  138ccc    O12 4220   6.670   7.252   3.982  0.2734  0.4777 -0.2340
  138ccc    H37 4221   6.653   7.228   4.074  0.3817 -1.7126 -0.7275
  138ccc    O13 4222   6.483   7.054   4.057  0.2835  0.2904  0.0856
  138ccc    H38 4223   6.512   6.887   4.288  2.2548  3.0978 -0.1770
  138ccc    H39 4224   6.320   7.113   3.836 -0.0629 -0.7719  1.2612
  138ccc     O5 4225   6.440   7.035   3.689  0.4465  0.5187 -0.2101
  138ccc    H40 4226   6.359   7.018   3.638  0.0652  1.5568  0.0221
  138ccc     N4 4227   6.243   6.769   4.072  0.2247 -0.0105 -0.0941
  138ccc    H41 4228   5.879   6.604   3.998  1.8898  1.0524 -0.0377
  139ccc     N1 4229   5.691   6.186   4.927 -0.4018  0.3468 -0.9145
  139ccc     H4 4230   5.742   6.120   4.985 -2.2367  0.0554  0.4898
  139ccc     C3 4231   5.591   6.276   4.990 -0.7131  0.3908  0.3149
  139ccc     H5 4232   5.610   6.376   4.951  0.2946  0.7494  1.6587
  139ccc     C4 4233   5.611   6.280   5.140 -0.4960 -0.8258  0.1298
  139ccc     H6 4234   5.490   6.235   4.977 -0.7558  0.1259  1.4304
  139ccc     H7 4235   5.561   6.361   5.195 -1.3236 -1.9928  1.1310
  139ccc     H8 4236   5.719   6.299   5.148 -0.3419 -1.5389 -0.1429
  139ccc     N2 4237   5.578   6.152   5.221  0.2087  0.3720  0.4637
  139ccc     C5 4238   5.433   6.167   5.263  0.3569  0.0223  0.5064
  139ccc     C6 4239   5.659   6.142   5.347  0.1146  0.0306  0.4876
  139ccc     H9 4240   5.629   6.215   5.423 -0.1925  1.5370 -1.0081
  139ccc     C7 4241   5.816   6.139   5.338  0.9144  0.1282  0.2521
  139ccc    H10 4242   5.636   6.040   5.381  2.4425 -0.5254  0.5286
  139ccc    H11 4243   5.849   6.105   5.437 -0.5692 -1.2134  0.3117
  139ccc    H12 4244   5.861   6.235   5.308 -1.0021  0.4093 -2.0437
  139ccc     C8 4245   5.863   6.048   5.226  0.5388 -0.0870 -0.2477
  139ccc     O2 4246   5.900   6.086   5.112 -0.2306 -0.6050 -0.5387
  139ccc    H13 4247   5.366   6.194   5.180 -0.5546  1.1059  1.5661
  139ccc    H14 4248   5.432   6.257   5.325 -0.5422 -0.9173  1.9025
  139ccc     C9 4249   5.367   6.052   5.342  0.0109 -0.7173  0.5074
  139ccc    H15 4250   5.419   6.054   5.439  0.7999  0.0661  0.0952
  139ccc    H16 4251   5.366   5.956   5.290 -1.1908  0.5367 -1.9448
  139ccc    C10 4252   5.221   6.081   5.374 -0.4787 -0.6092  0.2960
  139ccc     O4 4253   5.164   6.177   5.324 -0.0201 -0.1409 -0.5103
  139ccc    C11 4254   5.752   5.542   5.118 -0.0473  1.0687 -0.0767
  139ccc    C12 4255   5.682   5.654   5.051  0.6192  0.2656 -0.4262
  139ccc    H17 4256   5.713   5.513   5.217 -1.0996  0.3365 -0.6896
  139ccc    C13 4257   5.698   5.794   5.125 -0.5354  0.4250  0.0014
  139ccc    C14 4258   5.843   5.816   5.158 -0.7495 -0.5749 -0.4110
  139ccc    C15 4259   5.903   5.690   5.228 -0.4966  0.6409 -0.4207
  139ccc    H18 4260   5.903   5.838   5.069 -2.5191 -1.3614 -1.8743
  139ccc    H19 4261   5.640   5.800   5.218 -0.9933  1.7740 -0.3550
  139ccc    H20 4262   5.865   5.682   5.330  1.0679  2.8682  0.4013
  139ccc     O1 4263   6.044   5.700   5.243  0.2071 -0.2809 -0.0076
  139ccc     O6 4264   5.653   5.893   5.032  0.1756  0.8452 -0.4140
  139ccc    C16 4265   5.747   5.413   5.032 -0.7447  0.1819  1.1718
  139ccc    H21 4266   5.566   5.868   4.996  0.4112  0.1121 -0.4993
  139ccc    H22 4267   5.831   5.896   5.351 -0.2924  0.4531 -0.0795
  139ccc    H23 4268   5.641   5.389   5.015 -0.7100  0.0293  1.1729
  139ccc    H24 4269   5.784   5.331   5.095  2.1985  1.1536  0.8588
  139ccc     O7 4270   5.806   5.432   4.903  0.3111 -0.0677 -0.2029
  139ccc    H25 4271   5.897   5.455   4.927  0.1157  0.4604  0.0571
  139ccc     O8 4272   5.890   5.577   5.138  0.1559 -0.2851  0.2574
  139ccc    H26 4273   6.076   5.619   5.287 -0.1479  0.4264  1.6411
  139ccc    H27 4274   5.726   5.669   4.951 -2.3277  0.4514 -1.8083
  139ccc     O9 4275   5.541   5.619   5.033  0.2147 -0.3769 -0.3989
  139ccc    H28 4276   5.506   5.625   5.123 -1.5376 -0.3420 -1.0571
  139ccc     N3 4277   5.858   5.923   5.257 -0.0637  0.3231 -0.0503
  139ccc    C17 4278   4.777   5.847   5.559  0.0702  0.5505  0.8179
  139ccc    C18 4279   4.857   5.921   5.674  0.3444  0.3016 -0.2160
  139ccc    H29 4280   4.810   5.742   5.553  1.6579  1.0388  0.5416
  139ccc    C19 4281   5.004   5.958   5.629 -0.0007  0.2098  0.6907
  139ccc    C20 4282   5.022   6.001   5.487 -0.3087 -0.0312  0.1510
  139ccc    C21 4283   4.931   5.915   5.392  0.2637 -0.4975  0.7851
  139ccc    H30 4284   4.983   6.103   5.478 -0.2265  0.0689  0.8770
  139ccc    H31 4285   5.072   5.872   5.632  1.2111  1.1235  0.2656
  139ccc    H32 4286   4.972   5.814   5.392  0.8621 -0.2627  0.2568
  139ccc    O10 4287   4.929   5.975   5.257  0.3519  0.2311  0.0461
  139ccc    O11 4288   5.068   6.065   5.702 -0.0415 -1.0201 -0.7456
  139ccc    C22 4289   4.623   5.842   5.586 -0.6296 -0.4600  0.2321
  139ccc    H33 4290   5.085   6.032   5.792  2.5289  3.5019  0.7443
  139ccc    H34 4291   5.205   5.900   5.453 -1.3630 -0.6584 -2.8927
  139ccc    H35 4292   4.609   5.781   5.677 -0.0990 -2.2115 -0.8012
  139ccc    H36 4293   4.573   5.781   5.509  1.5239 -0.6053 -1.1152
  139ccc    O12 4294   4.565   5.969   5.602  0.3907 -0.1966  0.5198
  139ccc    H37 4295   4.468   5.962   5.593  0.2768  1.6967 -0.1509
  139ccc    O13 4296   4.796   5.916   5.436 -0.1382 -0.5357  0.3770
  139ccc    H38 4297   4.876   6.056   5.267 -0.3141 -0.1618 -0.2876
  139ccc    H39 4298   4.804   6.013   5.700 -1.4914 -0.2258 -1.8588
  139ccc     O5 4299   4.867   5.841   5.786  0.1366  0.1098 -0.3984
  139ccc    H40 4300   4.801   5.880   5.845  0.2617 -2.0585  1.3419
  139ccc     N4 4301   5.162   5.992   5.450  0.2604  0.3056  0.1378
  139ccc    H41 4302   5.593   6.072   5.158 -0.9619  0.8311 -0.4470
  140ccc     N1 4303   6.295   6.396   4.262 -0.4353  0.3405 -0.4902
  140ccc     H4 4304   6.395   6.410   4.268 -0.6743  1.7379  0.9810
  140ccc     C3 4305   6.232   6.282   4.189  0.3692 -0.2099 -0.3414
  140ccc     H5 4306   6.306   6.202   4.194  0.8653  0.3352  2.0565
  140ccc     C4 4307   6.182   6.304   4.041 -0.4647 -0.6640  0.2991
  140ccc     H6 4308   6.149   6.245   4.250  0.2006  0.3694 -0.2156
  140ccc     H7 4309   6.270   6.308   3.975  0.6858 -0.1700  1.8116
  140ccc     H8 4310   6.139   6.405   4.035  2.5208  0.6925 -0.6026
  140ccc     N2 4311   6.086   6.192   3.993  0.3996  0.4058 -0.3014
  140ccc     C5 4312   6.161   6.058   3.966  0.0925 -0.5278 -0.4501
  140ccc     C6 4313   6.019   6.237   3.861 -1.1594  0.1678 -0.3187
  140ccc     H9 4314   6.005   6.343   3.881  2.7257  0.7192  0.2809
  140ccc     C7 4315   5.892   6.166   3.817  1.1215 -0.5493  0.1278
  140ccc    H10 4316   6.095   6.225   3.783 -1.0153 -1.5070  0.0301
  140ccc    H11 4317   5.908   6.059   3.795 -1.6296 -1.3999  1.7648
  140ccc    H12 4318   5.865   6.212   3.722 -1.5410 -1.8701  0.1735
  140ccc     C8 4319   5.781   6.175   3.924  0.2581 -0.2765 -1.2400
  140ccc     O2 4320   5.801   6.162   4.044  0.0286 -0.1059 -0.1013
  140ccc    H13 4321   6.253   6.061   4.026 -1.5767  0.5730  2.2502
  140ccc    H14 4322   6.192   6.062   3.861 -4.1373 -0.0370 -1.8804
  140ccc     C9 4323   6.093   5.925   4.006 -0.2225 -1.0245 -0.1992
  140ccc    H15 4324   6.155   5.851   3.954  0.6107 -2.2997  2.4226
  140ccc    H16 4325   5.992   5.909   3.968 -0.0922 -2.7876  0.1289
  140ccc    C10 4326   6.101   5.906   4.151 -0.2143  0.5361 -0.3665
  140ccc     O4 4327   6.087   5.993   4.238 -0.1736  0.5403  0.1789
  140ccc    C11 4328   5.159   6.092   3.881  0.8550  0.5888 -0.2230
  140ccc    C12 4329   5.298   5.964   3.959 -1.0749  0.3200  0.3634
  140ccc    H17 4330   5.130   6.040   3.790  0.5370  0.9367 -0.3213
  140ccc    C13 4331   5.484   6.025   3.986 -0.2748 -0.1769  0.2083
  140ccc    C14 4332   5.533   6.218   3.965  0.3233  0.3474  0.4944
  140ccc    C15 4333   5.390   6.344   3.885  0.0689  0.5450  0.7412
  140ccc    H18 4334   5.563   6.257   4.063  0.9929  0.7393  0.1404
  140ccc    H19 4335   5.540   5.968   3.910  1.6040  0.0724  1.3472
  140ccc    H20 4336   5.428   6.357   3.783  0.2640 -1.3154  0.5308
  140ccc     O1 4337   5.390   6.475   3.948 -0.0773 -0.6135 -0.0116
  140ccc     O6 4338   5.538   5.971   4.104 -0.3046 -0.8607  0.4294
  140ccc    C16 4339   5.017   6.086   3.952  0.7256 -0.4681  0.3092
  140ccc    H21 4340   5.519   5.876   4.095 -1.1836 -0.5918 -0.7580
  140ccc    H22 4341   5.656   6.235   3.788  5.7256  0.3393 -0.9518
  140ccc    H23 4342   5.016   6.140   4.047  1.9879 -1.5352  0.9611
  140ccc    H24 4343   4.979   5.984   3.969 -0.6700  0.1752  1.2132
  140ccc     O7 4344   4.919   6.156   3.873 -0.4741 -0.3919 -0.1675
  140ccc    H25 4345   4.935   6.251   3.887  2.4806 -0.7886 -0.1405
  140ccc     O8 4346   5.219   6.277   3.858  0.4967  0.4490  0.4967
  140ccc    H26 4347   5.311   6.518   3.911  0.5796 -1.1103 -2.1461
  140ccc    H27 4348   5.264   5.922   4.054 -1.9451  1.1067  0.4211
  140ccc     O9 4349   5.292   5.855   3.868  0.2073  0.3760  0.3888
  140ccc    H28 4350   5.246   5.777   3.904 -0.8282 -0.3324 -2.2523
  140ccc     N3 4351   5.667   6.227   3.889 -0.1791  0.2970  0.0118
  140ccc    C17 4352   6.220   5.470   4.458 -0.1021 -0.7580  0.3472
  140ccc    C18 4353   6.330   5.580   4.445  0.3468 -0.8851  0.1538
  140ccc    H29 4354   6.213   5.404   4.371  2.3943 -1.4710  0.5873
  140ccc    C19 4355   6.301   5.675   4.329  0.6314 -0.2715  0.3937
  140ccc    C20 4356   6.152   5.736   4.329 -0.0277  0.1191  0.1397
  140ccc    C21 4357   6.056   5.623   4.358  0.1102  0.3479 -0.4100
  140ccc    H30 4358   6.139   5.818   4.400 -1.2644  1.1483 -1.2029
  140ccc    H31 4359   6.317   5.615   4.239 -1.1524  1.7545 -1.3844
  140ccc    H32 4360   6.044   5.554   4.273 -0.3136 -0.2195  0.1046
  140ccc    O10 4361   5.934   5.684   4.395 -1.0477 -0.4263  0.0975
  140ccc    O11 4362   6.386   5.790   4.324 -0.4578  0.4452  0.6400
  140ccc    C22 4363   6.255   5.396   4.590  0.0979 -1.4068  0.1044
  140ccc    H33 4364   6.430   5.795   4.238  0.0177 -0.1153  0.8429
  140ccc    H34 4365   6.134   5.709   4.119  0.3330 -0.7357  0.6532
  140ccc    H35 4366   6.356   5.354   4.587  0.3509 -0.7788 -0.5982
  140ccc    H36 4367   6.185   5.312   4.599 -2.1913  0.3050 -0.4123
  140ccc    O12 4368   6.243   5.480   4.703 -0.1735  0.2188  0.1250
  140ccc    H37 4369   6.311   5.549   4.695  1.5002 -1.0915  2.0126
  140ccc    O13 4370   6.093   5.539   4.471 -0.8702 -0.1837 -0.4833
  140ccc    H38 4371   5.919   5.757   4.334 -1.2165 -0.2589  0.3396
  140ccc    H39 4372   6.331   5.650   4.529  1.1173 -0.3746 -0.2666
  140ccc     O5 4373   6.454   5.510   4.430 -0.5684  0.0163 -0.4240
  140ccc    H40 4374   6.525   5.575   4.410 -0.3508 -0.6781 -2.0782
  140ccc     N4 4375   6.125   5.783   4.188 -0.1486 -0.1478 -0.0188
  140ccc    H41 4376   6.006   6.173   4.056 -0.4507  1.7954 -0.9145
  141ccc     N1 4377   6.141   7.290   4.400 -0.7995  0.2162 -0.5903
  141ccc     H4 4378   6.059   7.296   4.341  0.6475  2.6324 -2.5014
  141ccc     C3 4379   6.188   7.421   4.451  0.0353  0.0199  0.2148
  141ccc     H5 4380   6.188   7.434   4.560 -0.3233  0.4743  0.1636
  141ccc     C4 4381   6.103   7.532   4.380  0.5071 -0.0705 -0.3396
  141ccc     H6 4382   6.289   7.433   4.409 -1.6887  0.0662 -4.4844
  141ccc     H7 4383   6.127   7.634   4.412 -2.9562  0.0984  2.3139
  141ccc     H8 4384   6.005   7.511   4.424  0.6442  1.0564  0.5432
  141ccc     N2 4385   6.085   7.534   4.221  0.5700 -0.9675 -0.9858
  141ccc     C5 4386   6.220   7.534   4.146 -0.6074 -0.6372 -0.8994
  141ccc     C6 4387   5.992   7.651   4.181 -0.2334  0.0266 -0.1549
  141ccc     H9 4388   6.015   7.741   4.240 -1.3940 -0.3188  0.8669
  141ccc     C7 4389   5.843   7.623   4.179  0.3867  0.6420  0.5402
  141ccc    H10 4390   6.024   7.670   4.078  2.0680  0.4327  0.5823
  141ccc    H11 4391   5.788   7.718   4.180  0.2849  0.6111 -0.9413
  141ccc    H12 4392   5.812   7.585   4.277 -0.6463  2.1020  0.8100
  141ccc     C8 4393   5.798   7.534   4.067  0.3973  0.7068  0.3589
  141ccc     O2 4394   5.867   7.452   4.004  0.4465  0.1204  0.2913
  141ccc    H13 4395   6.289   7.467   4.199 -1.4578  1.0231  2.5194
  141ccc    H14 4396   6.274   7.628   4.158 -1.0284 -0.3168 -1.4876
  141ccc     C9 4397   6.204   7.508   3.989 -0.1419  0.4411 -0.6348
  141ccc    H15 4398   6.304   7.530   3.949 -0.9984  2.7015 -1.7022
  141ccc    H16 4399   6.134   7.569   3.930  1.7452  3.1149 -0.3005
  141ccc    C10 4400   6.171   7.359   3.958 -0.3469 -0.6759  0.8846
  141ccc     O4 4401   6.174   7.277   4.045  0.4289 -0.0923  0.0982
  141ccc    C11 4402   5.567   7.265   3.733  0.7764  0.1276  0.1218
  141ccc    C12 4403   5.493   7.251   3.868  0.0790 -0.5839  0.0241
  141ccc    H17 4404   5.671   7.230   3.740  1.5419  2.3638  0.9686
  141ccc    C13 4405   5.555   7.343   3.979  0.6654  0.2016  0.3081
  141ccc    C14 4406   5.586   7.482   3.924 -0.0044  0.3832 -0.3795
  141ccc    C15 4407   5.650   7.481   3.790 -0.0994  0.6503 -0.1634
  141ccc    H18 4408   5.489   7.532   3.910 -0.2038  0.1161  0.0080
  141ccc    H19 4409   5.646   7.287   4.003 -0.9183 -2.0286  1.4488
  141ccc    H20 4410   5.747   7.431   3.799 -0.2003  0.4304 -0.2616
  141ccc     O1 4411   5.668   7.610   3.737 -0.2047 -0.3921 -0.3856
  141ccc     O6 4412   5.467   7.336   4.088  0.2493 -0.1242 -0.1229
  141ccc    C16 4413   5.493   7.181   3.615  0.2745 -0.2070  0.0170
  141ccc    H21 4414   5.401   7.406   4.072 -0.2265 -0.6770 -0.6056
  141ccc    H22 4415   5.605   7.615   4.086 -1.1366  0.3086 -1.4806
  141ccc    H23 4416   5.393   7.219   3.592 -1.3701 -3.3104  1.4508
  141ccc    H24 4417   5.468   7.081   3.652 -0.9386  1.2184  3.4940
  141ccc     O7 4418   5.568   7.179   3.493 -0.1088  0.4768 -0.6679
  141ccc    H25 4419   5.633   7.107   3.499  0.0240  0.4176 -2.4265
  141ccc     O8 4420   5.571   7.408   3.699  0.2402 -0.4007  0.4431
  141ccc    H26 4421   5.656   7.669   3.814  0.2401  2.4093 -2.3376
  141ccc    H27 4422   5.387   7.277   3.855  0.8861  1.6970 -3.6810
  141ccc     O9 4423   5.500   7.111   3.905  0.4265 -0.2782 -0.0834
  141ccc    H28 4424   5.443   7.092   3.982 -0.8980  2.2690 -0.3410
  141ccc     N3 4425   5.663   7.548   4.034 -0.1266  0.3382 -0.4234
  141ccc    C17 4426   5.871   7.062   3.616  0.1272 -0.4113 -0.9759
  141ccc    C18 4427   6.015   7.080   3.570  0.5294 -0.2703 -0.3725
  141ccc    H29 4428   5.817   7.150   3.580  1.6439  1.4844  1.0629
  141ccc    C19 4429   6.073   7.200   3.622 -0.4149 -0.5012 -0.4353
  141ccc    C20 4430   6.064   7.206   3.780  0.0142 -0.3739 -0.5095
  141ccc    C21 4431   5.921   7.187   3.831  1.3721  0.4574  0.6519
  141ccc    H30 4432   6.122   7.126   3.828  1.3583  1.1597  0.5586
  141ccc    H31 4433   6.026   7.289   3.580 -0.8524 -0.8375 -0.6698
  141ccc    H32 4434   5.858   7.274   3.809 -1.7236 -1.7741 -0.1368
  141ccc    O10 4435   5.922   7.159   3.966  0.5304 -0.2092 -0.4517
  141ccc    O11 4436   6.211   7.203   3.584  0.6595 -0.0195 -0.3675
  141ccc    C22 4437   5.815   6.930   3.567 -0.5664  0.0422 -0.0168
  141ccc    H33 4438   6.261   7.272   3.632 -0.9169  0.4158  0.7207
  141ccc    H34 4439   6.123   7.417   3.772  0.4656  0.5007  0.8949
  141ccc    H35 4440   5.847   6.854   3.640  0.4512  0.0380 -0.4537
  141ccc    H36 4441   5.868   6.898   3.476  0.0915  0.0022  0.3700
  141ccc    O12 4442   5.672   6.934   3.546  0.1813  0.0890 -0.5012
  141ccc    H37 4443   5.653   6.843   3.518  1.9816 -0.6770  0.6024
  141ccc    O13 4444   5.861   7.065   3.760 -0.4878 -0.9035  0.1576
  141ccc    H38 4445   5.995   7.206   4.010  0.0528  0.4552 -0.3485
  141ccc    H39 4446   6.072   6.990   3.597  0.7012 -0.2684 -0.7283
  141ccc     O5 4447   6.007   7.094   3.425 -0.1071 -0.1047  0.1716
  141ccc    H40 4448   6.097   7.116   3.397  0.4894 -1.6444  0.7666
  141ccc     N4 4449   6.131   7.335   3.831  0.7808 -0.1351 -0.0141
  141ccc    H41 4450   6.041   7.444   4.196  1.9143 -2.2258  0.9574
  142ccc     N1 4451   7.149   3.711   2.251  0.0851 -0.8390  0.9041
  142ccc     H4 4452   7.235   3.662   2.229  1.2389  1.0408  1.0717
  142ccc     C3 4453   7.024   3.687   2.183  0.6663  0.2736  0.6382
  142ccc     H5 4454   6.969   3.626   2.256 -0.5515 -2.9064 -2.6706
  142ccc     C4 4455   7.045   3.600   2.051 -0.1013  0.0982  0.4534
  142ccc     H6 4456   6.964   3.777   2.165 -1.3114 -1.4951 -2.4551
  142ccc     H7 4457   6.953   3.555   2.013  0.0697  0.0415  0.1019
  142ccc     H8 4458   7.118   3.520   2.066 -2.4795 -2.4028 -0.5553
  142ccc     N2 4459   7.090   3.672   1.928  0.8582  0.2315  0.4867
  142ccc     C5 4460   6.974   3.749   1.862 -0.4496 -0.5563  0.3881
  142ccc     C6 4461   7.164   3.591   1.826  0.5478  0.2330  0.1075
  142ccc     H9 4462   7.185   3.657   1.741  0.4307  0.1653  0.0268
  142ccc     C7 4463   7.082   3.476   1.771 -0.8024  0.3171 -0.0016
  142ccc    H10 4464   7.253   3.545   1.870 -0.3064 -0.7977  0.8236
  142ccc    H11 4465   6.985   3.513   1.735 -0.1885  1.7649 -0.2554
  142ccc    H12 4466   7.063   3.405   1.852 -2.7544  2.5020  1.5968
  142ccc     C8 4467   7.140   3.411   1.643 -0.4161 -0.1517  0.2848
  142ccc     O2 4468   7.251   3.422   1.597  0.3211  0.2378 -0.0337
  142ccc    H13 4469   6.873   3.709   1.878 -1.2812  0.7203 -1.2787
  142ccc    H14 4470   6.986   3.744   1.753  2.7702  1.5761  0.5215
  142ccc     C9 4471   6.986   3.904   1.892  0.4350 -0.4702 -0.2190
  142ccc    H15 4472   7.083   3.940   1.856 -0.2759 -0.4214 -2.2042
  142ccc    H16 4473   6.956   3.931   1.994  1.6875 -0.5333  0.1795
  142ccc    C10 4474   6.890   3.984   1.795 -0.1816  0.5538  0.3699
  142ccc     O4 4475   6.789   3.942   1.740 -0.3700  0.0814 -0.5647
  142ccc    C11 4476   7.208   3.143   1.244 -0.5352  0.6698 -0.1136
  142ccc    C12 4477   7.185   3.045   1.364 -0.2033 -0.5052  0.0352
  142ccc    H17 4478   7.307   3.188   1.259  0.0481 -0.7035  0.2653
  142ccc    C13 4479   7.159   3.141   1.490  0.0618  0.2377 -0.1895
  142ccc    C14 4480   7.056   3.247   1.468  0.2194 -0.1827 -0.2375
  142ccc    C15 4481   7.092   3.329   1.337  0.1454 -0.6925  0.0030
  142ccc    H18 4482   6.961   3.195   1.455  0.9306 -1.4097 -0.7502
  142ccc    H19 4483   7.249   3.201   1.510 -0.0905 -0.1042  1.7337
  142ccc    H20 4484   7.190   3.378   1.346 -0.0191 -0.0793 -1.3424
  142ccc     O1 4485   6.991   3.425   1.299 -0.3024  0.2597 -0.2396
  142ccc     O6 4486   7.136   3.057   1.605 -0.4180  0.1591 -0.4402
  142ccc    C16 4487   7.211   3.058   1.112  0.2589 -0.1713  0.1014
  142ccc    H21 4488   7.218   3.013   1.635 -1.0243 -2.1473 -1.9612
  142ccc    H22 4489   6.952   3.335   1.632 -1.0408 -0.1425 -2.5194
  142ccc    H23 4490   7.117   3.002   1.104  1.3368 -2.0833  0.2809
  142ccc    H24 4491   7.289   2.981   1.113 -0.4525 -0.8946  0.8652
  142ccc     O7 4492   7.221   3.138   0.994 -0.2492 -0.2164  0.2571
  142ccc    H25 4493   7.288   3.205   1.015  1.8435 -2.4004  1.0358
  142ccc     O8 4494   7.094   3.228   1.233 -0.0522 -0.3995 -0.4144
  142ccc    H26 4495   7.039   3.501   1.337  0.9249 -1.0779  1.0438
  142ccc    H27 4496   7.099   2.979   1.347 -2.1951  1.7354  0.8795
  142ccc     O9 4497   7.303   2.960   1.386  0.6340  0.4036 -0.4039
  142ccc    H28 4498   7.291   2.886   1.325 -0.3587 -0.1476  0.4300
  142ccc     N3 4499   7.046   3.333   1.593 -0.0394 -0.7611 -0.2876
  142ccc    C17 4500   6.777   4.434   1.532  0.4437  0.0930 -0.5868
  142ccc    C18 4501   6.915   4.376   1.475  0.2001  0.0173  0.4742
  142ccc    H29 4502   6.710   4.353   1.499 -0.2987  0.3242  0.3350
  142ccc    C19 4503   6.982   4.267   1.566  0.1489 -0.9631 -0.2365
  142ccc    C20 4504   6.876   4.201   1.658 -0.8539 -0.6498  0.3159
  142ccc    C21 4505   6.803   4.311   1.743  0.4450 -0.2496 -0.2244
  142ccc    H30 4506   6.812   4.153   1.583  0.7986  1.7939 -2.9313
  142ccc    H31 4507   7.061   4.308   1.630  0.5793 -1.2844 -0.5586
  142ccc    H32 4508   6.858   4.333   1.836  0.4686  2.9327 -0.8550
  142ccc    O10 4509   6.669   4.269   1.768  0.1733  0.4777  0.7872
  142ccc    O11 4510   7.046   4.171   1.486 -0.3570  0.3243 -0.4122
  142ccc    C22 4511   6.742   4.576   1.477 -0.2145  0.4539  0.1503
  142ccc    H33 4512   7.088   4.105   1.543 -0.0447 -1.0453 -2.1422
  142ccc    H34 4513   7.036   4.122   1.784  0.6075  0.8894 -2.0272
  142ccc    H35 4514   6.753   4.573   1.368  0.6252 -0.7039  0.2518
  142ccc    H36 4515   6.822   4.640   1.516  1.6230 -0.2056 -2.3246
  142ccc    O12 4516   6.611   4.612   1.518 -0.3327  0.1384  0.0658
  142ccc    H37 4517   6.618   4.643   1.610 -0.2381 -0.1203  0.1471
  142ccc    O13 4518   6.787   4.437   1.675 -0.0883  0.4915 -0.4125
  142ccc    H38 4519   6.621   4.353   1.765 -0.6981  0.0140 -2.1654
  142ccc    H39 4520   6.894   4.329   1.378 -0.3041  0.2005  0.4928
  142ccc     O5 4521   7.010   4.482   1.467 -0.4540 -0.1916 -0.1060
  142ccc    H40 4522   7.013   4.533   1.550 -0.3535  1.0637 -0.8503
  142ccc     N4 4523   6.944   4.096   1.749  0.0600 -0.1019 -0.0108
  142ccc    H41 4524   7.157   3.746   1.955  1.4108 -0.5119  1.1925
  143ccc     N1 4525   7.713   4.277   2.522  0.0566 -0.0466  0.1981
  143ccc     H4 4526   7.631   4.331   2.545  0.5493 -0.1293  2.3343
  143ccc     C3 4527   7.843   4.339   2.488 -0.4961  0.0651  0.7349
  143ccc     H5 4528   7.912   4.259   2.459 -1.3741 -1.1090  1.7870
  143ccc     C4 4529   7.905   4.414   2.611  0.5592 -0.0239  0.6888
  143ccc     H6 4530   7.838   4.409   2.403 -0.1696 -1.5564 -0.6925
  143ccc     H7 4531   7.841   4.500   2.634  1.0898  0.8694 -1.0237
  143ccc     H8 4532   8.002   4.458   2.584  0.4082 -0.0303  0.1254
  143ccc     N2 4533   7.926   4.321   2.739  0.2384 -0.1697 -0.4271
  143ccc     C5 4534   7.956   4.414   2.854  0.3900 -0.3865 -0.0233
  143ccc     C6 4535   8.029   4.205   2.725  0.0023  0.2714  0.0656
  143ccc     H9 4536   7.992   4.143   2.643  1.1988 -2.5131  1.4937
  143ccc     C7 4537   8.036   4.104   2.849  0.0202 -0.0872  0.0126
  143ccc    H10 4538   8.130   4.234   2.694  0.9197  0.2161  2.7667
  143ccc    H11 4539   7.931   4.088   2.875 -0.2590  0.9004 -0.4570
  143ccc    H12 4540   8.072   4.162   2.936 -0.3976  0.7426 -0.3569
  143ccc     C8 4541   8.146   3.976   2.839 -0.2167  0.0163  0.0911
  143ccc     O2 4542   8.226   4.057   2.805  0.2710 -0.3276 -0.0267
  143ccc    H13 4543   7.936   4.517   2.822  0.6581 -0.4139 -0.2822
  143ccc    H14 4544   8.065   4.411   2.866  0.4529 -2.5727 -0.6347
  143ccc     C9 4545   7.899   4.401   2.998  0.1950 -0.5073 -0.3902
  143ccc    H15 4546   7.967   4.338   3.056  0.9898 -0.3732 -1.1375
  143ccc    H16 4547   7.797   4.362   2.998 -0.6961  1.6477  0.3739
  143ccc    C10 4548   7.888   4.534   3.068  0.3835  0.1128 -0.8527
  143ccc     O4 4549   7.966   4.565   3.160  0.4453  0.3426  0.0931
  143ccc    C11 4550   7.939   3.402   2.919  0.6734 -0.2109 -0.5535
  143ccc    C12 4551   8.095   3.398   2.905  0.0550  0.0706 -0.3950
  143ccc    H17 4552   7.897   3.424   2.820 -0.7263 -1.9533 -0.3945
  143ccc    C13 4553   8.154   3.533   2.874  0.1527  0.1442  0.1961
  143ccc    C14 4554   8.094   3.656   2.947 -0.7749  0.2269 -0.0007
  143ccc    C15 4555   7.949   3.630   3.003  0.5504  0.1851  0.6253
  143ccc    H18 4556   8.143   3.654   3.045 -0.9433  1.2229  0.1106
  143ccc    H19 4557   8.146   3.558   2.768 -0.8668  1.4506  0.5560
  143ccc    H20 4558   7.868   3.686   2.954  0.4526 -1.0239 -0.6460
  143ccc     O1 4559   7.941   3.655   3.141 -0.1031 -0.1964  0.5890
  143ccc     O6 4560   8.298   3.525   2.903  0.2961  0.0366  0.6365
  143ccc    C16 4561   7.881   3.271   2.973 -0.6457 -0.3705  0.2731
  143ccc    H21 4562   8.328   3.440   2.866 -1.2655  0.3942 -1.6365
  143ccc    H22 4563   8.239   3.739   2.854 -0.4218 -1.8785  1.1523
  143ccc    H23 4564   7.883   3.285   3.082  1.6468 -1.5540  0.4471
  143ccc    H24 4565   7.943   3.184   2.948 -0.0059  0.6147 -1.7766
  143ccc     O7 4566   7.748   3.253   2.925 -0.4937 -0.0533  0.7852
  143ccc    H25 4567   7.712   3.169   2.960 -1.3564 -0.2643 -0.5316
  143ccc     O8 4568   7.908   3.496   3.019 -0.1920 -0.2185  0.1082
  143ccc    H26 4569   7.994   3.737   3.142  0.5300 -0.4611 -2.3424
  143ccc    H27 4570   8.141   3.364   2.999  0.6593  2.5004  0.2760
  143ccc     O9 4571   8.134   3.309   2.792  0.1071 -0.2561 -0.2741
  143ccc    H28 4572   8.226   3.279   2.802  1.0466  2.2190 -0.7631
  143ccc     N3 4573   8.148   3.783   2.871  0.1143 -0.1825 -0.0946
  143ccc    C17 4574   7.444   4.695   2.788  0.2699 -0.4903  0.1602
  143ccc    C18 4575   7.586   4.693   2.728  0.4195  0.3897 -0.3624
  143ccc    H29 4576   7.418   4.795   2.824  0.4739 -0.3424 -0.0978
  143ccc    C19 4577   7.699   4.710   2.832  0.3515 -0.0506 -0.0700
  143ccc    C20 4578   7.681   4.606   2.942  0.8283  0.3630  0.1758
  143ccc    C21 4579   7.537   4.619   3.004  0.5263 -0.9560  0.0124
  143ccc    H30 4580   7.681   4.505   2.900 -0.9617  0.0834  0.7433
  143ccc    H31 4581   7.695   4.813   2.870 -0.8410  0.1611 -0.7132
  143ccc    H32 4582   7.526   4.715   3.056  0.1535 -0.4143 -1.0237
  143ccc    O10 4583   7.528   4.533   3.112 -0.8550 -0.6951  0.1500
  143ccc    O11 4584   7.820   4.697   2.759  1.0257 -1.0582 -0.7985
  143ccc    C22 4585   7.334   4.647   2.693 -0.9350  0.7557 -0.4022
  143ccc    H33 4586   7.838   4.785   2.722 -1.3101 -0.4497 -0.6583
  143ccc    H34 4587   7.792   4.718   3.072  0.5871 -0.9802  1.7153
  143ccc    H35 4588   7.352   4.544   2.662 -1.1474  0.7602 -0.5448
  143ccc    H36 4589   7.329   4.699   2.596  1.9207 -0.5162 -1.3433
  143ccc    O12 4590   7.202   4.649   2.757 -0.5292 -0.7061  0.0366
  143ccc    H37 4591   7.153   4.728   2.727  0.6522  0.5473  1.2430
  143ccc    O13 4592   7.438   4.603   2.901  0.0425 -0.4330  0.0024
  143ccc    H38 4593   7.574   4.577   3.185  1.2002 -1.0379 -0.8796
  143ccc    H39 4594   7.593   4.588   2.696  1.6165  0.6031 -0.8402
  143ccc     O5 4595   7.605   4.792   2.630  0.5715  0.0050 -0.5040
  143ccc    H40 4596   7.673   4.761   2.567 -0.0035  1.4638 -1.9278
  143ccc     N4 4597   7.793   4.625   3.032 -0.5060 -0.3264  0.0220
  143ccc    H41 4598   7.835   4.280   2.761  0.6942 -1.1282 -0.2954
  144ccc     N1 4599   8.502   3.247   3.656 -0.5112  0.0298  0.3167
  144ccc     H4 4600   8.417   3.205   3.619 -0.4782  0.8167 -0.6800
  144ccc     C3 4601   8.620   3.159   3.657 -0.6156  0.0741 -0.1002
  144ccc     H5 4602   8.587   3.062   3.618 -0.0094  0.3541 -1.3718
  144ccc     C4 4603   8.683   3.142   3.802  0.4090  0.0923 -0.6399
  144ccc     H6 4604   8.701   3.203   3.598 -0.3714 -0.3837 -0.1126
  144ccc     H7 4605   8.732   3.238   3.821  2.0729 -0.6903 -0.7064
  144ccc     H8 4606   8.769   3.073   3.798 -0.3396 -0.8314 -1.4292
  144ccc     N2 4607   8.582   3.121   3.916  0.3333 -0.8031  0.2950
  144ccc     C5 4608   8.650   3.117   4.057  0.4272 -1.2399  0.1312
  144ccc     C6 4609   8.506   2.994   3.909  0.0799  0.0481  0.3080
  144ccc     H9 4610   8.486   2.977   3.802  2.4410 -0.1665 -0.1555
  144ccc     C7 4611   8.372   2.978   3.988 -0.1206  0.3793 -0.3418
  144ccc    H10 4612   8.564   2.903   3.928 -1.2970 -1.2614 -1.4226
  144ccc    H11 4613   8.377   2.988   4.097 -2.3003 -0.4774 -0.1156
  144ccc    H12 4614   8.322   2.881   3.981  1.0110 -0.3357  0.9873
  144ccc     C8 4615   8.275   3.084   3.941  0.2267  0.0605  0.0489
  144ccc     O2 4616   8.303   3.181   3.871 -1.0760  0.4984  0.2984
  144ccc    H13 4617   8.721   3.033   4.054  2.2678  0.2789 -0.9929
  144ccc    H14 4618   8.573   3.098   4.133 -0.2746  2.3420  0.5134
  144ccc     C9 4619   8.724   3.245   4.096 -0.1509 -0.4046 -0.3792
  144ccc    H15 4620   8.648   3.323   4.103 -1.5087 -1.6829 -0.3737
  144ccc    H16 4621   8.803   3.277   4.027 -0.8149 -0.7422 -1.3114
  144ccc    C10 4622   8.786   3.248   4.235  0.4997  0.6391 -0.0068
  144ccc     O4 4623   8.786   3.163   4.314 -0.6737  0.2370  0.2176
  144ccc    C11 4624   7.914   3.399   3.865 -0.2978  0.3297 -0.1618
  144ccc    C12 4625   7.884   3.277   3.778 -0.2181  0.1879 -0.0277
  144ccc    H17 4626   8.007   3.446   3.829  0.6754  0.1718  1.9815
  144ccc    C13 4627   8.003   3.173   3.799  0.0242  0.0608  0.5516
  144ccc    C14 4628   8.030   3.148   3.952 -0.5331  0.2707  0.5557
  144ccc    C15 4629   8.044   3.286   4.021  0.6907  0.5881 -1.2025
  144ccc    H18 4630   7.937   3.105   3.992 -1.4722  2.4326  0.8391
  144ccc    H19 4631   8.090   3.208   3.742 -0.9501 -0.3448 -1.2780
  144ccc    H20 4632   8.120   3.350   3.974  1.8664  1.2051  1.3936
  144ccc     O1 4633   8.062   3.293   4.164  0.0693  0.0483 -0.1554
  144ccc     O6 4634   7.958   3.044   3.749  0.4638 -0.1809 -0.7547
  144ccc    C16 4635   7.790   3.498   3.854 -0.2210 -0.7983 -0.0348
  144ccc    H21 4636   8.014   2.979   3.796  0.4462 -0.1465 -0.6856
  144ccc    H22 4637   8.131   2.975   4.023  0.7552 -0.4973 -1.0609
  144ccc    H23 4638   7.692   3.451   3.839  0.3824 -2.5498  1.1575
  144ccc    H24 4639   7.821   3.565   3.773  3.4579 -1.8684  0.3036
  144ccc     O7 4640   7.778   3.581   3.968 -0.1401 -0.1107  0.4650
  144ccc    H25 4641   7.857   3.638   3.975  1.3369 -1.4789 -2.8103
  144ccc     O8 4642   7.926   3.353   4.005  0.9984 -0.1588  0.0501
  144ccc    H26 4643   7.969   3.310   4.188  0.1128  2.0262 -1.2456
  144ccc    H27 4644   7.804   3.213   3.817  3.0621 -3.1486  1.8687
  144ccc     O9 4645   7.854   3.307   3.645  0.6758 -0.2388  0.3310
  144ccc    H28 4646   7.840   3.221   3.602 -2.8631  0.4352 -0.1774
  144ccc     N3 4647   8.154   3.067   3.984  1.0695  0.0037  0.2549
  144ccc    C17 4648   9.216   3.478   4.475  0.8064 -0.4221 -0.1048
  144ccc    C18 4649   9.082   3.548   4.509  0.7152 -0.7573 -0.6432
  144ccc    H29 4650   9.259   3.527   4.387  0.4579 -2.1619 -1.2836
  144ccc    C19 4651   8.977   3.531   4.394 -0.0214 -0.2118  0.6996
  144ccc    C20 4652   8.962   3.384   4.346 -0.4798 -0.7177 -0.8973
  144ccc    C21 4653   9.105   3.330   4.320  0.6348 -0.4477 -0.3294
  144ccc    H30 4654   8.932   3.328   4.436  2.4992 -1.2287 -0.1204
  144ccc    H31 4655   9.017   3.588   4.309 -2.7885  3.4430  1.6213
  144ccc    H32 4656   9.154   3.380   4.236  1.7886  1.2966  1.2968
  144ccc    O10 4657   9.104   3.188   4.298  0.2745 -0.4466  0.0530
  144ccc    O11 4658   8.850   3.568   4.433 -1.0634 -0.1882  0.4051
  144ccc    C22 4659   9.318   3.478   4.593 -0.2035  0.7326 -0.5315
  144ccc    H33 4660   8.797   3.585   4.353 -0.7332 -1.4349 -0.1065
  144ccc    H34 4661   8.891   3.405   4.156 -0.9339  0.6440 -0.4164
  144ccc    H35 4662   9.367   3.575   4.602  1.5847 -0.0024 -1.8140
  144ccc    H36 4663   9.400   3.407   4.576  1.4947  2.3949  0.4287
  144ccc    O12 4664   9.258   3.448   4.711 -0.2139 -0.0713 -0.6024
  144ccc    H37 4665   9.316   3.483   4.782  0.0213 -1.6200  0.0184
  144ccc    O13 4666   9.182   3.343   4.438 -0.2245  0.2577 -0.1225
  144ccc    H38 4667   9.200   3.174   4.304  0.3929 -0.0301 -0.7672
  144ccc    H39 4668   9.040   3.495   4.596 -0.0370 -0.1408 -0.6207
  144ccc     O5 4669   9.099   3.690   4.540 -0.7104 -0.7435  0.0899
  144ccc    H40 4670   9.130   3.741   4.463 -2.0118 -1.1643 -0.7362
  144ccc     N4 4671   8.861   3.357   4.241 -0.1847 -0.1916 -0.6034
  144ccc    H41 4672   8.509   3.193   3.904  0.5494 -0.8086 -1.0996
  145ccc     N1 4673   8.528   4.052   3.614  0.4311  0.8573 -0.4752
  145ccc     H4 4674   8.564   3.989   3.684 -1.2234 -0.3957 -0.6961
  145ccc     C3 4675   8.618   4.156   3.563 -0.4634 -0.4942 -0.2683
  145ccc     H5 4676   8.569   4.228   3.496  0.4308  1.1620  0.7877
  145ccc     C4 4677   8.733   4.096   3.484  0.7462  0.5718  0.9377
  145ccc     H6 4678   8.666   4.206   3.649  0.1440 -2.6062  0.6834
  145ccc     H7 4679   8.778   4.016   3.544 -1.6306 -0.6934  1.1369
  145ccc     H8 4680   8.804   4.179   3.471  0.0546  1.7759  3.9400
  145ccc     N2 4681   8.692   4.040   3.350 -0.2031  0.2131 -0.5848
  145ccc     C5 4682   8.807   3.956   3.296 -0.1890 -0.1880  0.0113
  145ccc     C6 4683   8.641   4.153   3.258  0.5566 -0.4732  0.6897
  145ccc     H9 4684   8.579   4.225   3.313  0.6578 -1.4693  2.1686
  145ccc     C7 4685   8.594   4.115   3.118 -0.4134 -0.4706  0.2845
  145ccc    H10 4686   8.725   4.222   3.246 -1.0511  1.7175  1.3185
  145ccc    H11 4687   8.666   4.066   3.052 -0.2563 -0.0461  0.1406
  145ccc    H12 4688   8.576   4.206   3.060  1.3461 -0.8591 -0.9424
  145ccc     C8 4689   8.467   4.035   3.114 -0.4587  0.1442  0.2136
  145ccc     O2 4690   8.403   4.005   3.212  0.0020  0.2210 -0.5935
  145ccc    H13 4691   8.864   3.922   3.384  0.5372 -2.1075 -1.1465
  145ccc    H14 4692   8.873   4.018   3.234 -0.2181 -1.9170 -1.8627
  145ccc     C9 4693   8.769   3.828   3.224  0.2118  0.3114  0.0785
  145ccc    H15 4694   8.858   3.772   3.190 -0.7624 -1.7380  0.7434
  145ccc    H16 4695   8.699   3.849   3.143 -1.4334 -1.7698  0.8573
  145ccc    C10 4696   8.698   3.725   3.313 -0.3435  0.4389  0.5652
  145ccc     O4 4697   8.661   3.740   3.424  0.9798  0.1598  0.3922
  145ccc    C11 4698   7.961   3.857   2.754 -0.1086 -0.1076 -0.2933
  145ccc    C12 4699   8.141   3.845   2.645 -0.0323 -0.6488  0.5409
  145ccc    H17 4700   7.925   3.947   2.704  1.4642 -0.3646 -2.0126
  145ccc    C13 4701   8.327   3.846   2.739  0.7213 -0.0679  0.4252
  145ccc    C14 4702   8.333   3.891   2.956  0.2845 -0.6398 -0.5310
  145ccc    C15 4703   8.144   3.917   3.061 -0.0214  0.0027 -0.3518
  145ccc    H18 4704   8.383   3.804   3.001  1.2610  1.1779  2.1024
  145ccc    H19 4705   8.392   3.922   2.693  1.9945 -0.7656  1.0221
  145ccc    H20 4706   8.138   4.019   3.100 -1.7041  0.1856 -1.0048
  145ccc     O1 4707   8.133   3.839   3.175 -0.0628  0.5419 -0.2997
  145ccc     O6 4708   8.396   3.727   2.698 -0.0915 -0.0740 -0.0136
  145ccc    C16 4709   7.868   3.739   2.711 -0.3125 -0.1005 -0.1455
  145ccc    H21 4710   8.416   3.743   2.604  2.2389  1.7106  0.6646
  145ccc    H22 4711   8.500   4.009   2.916  0.7374 -0.6855  0.6682
  145ccc    H23 4712   7.920   3.647   2.740 -2.1903 -1.4569 -0.8140
  145ccc    H24 4713   7.859   3.759   2.604  0.4388  0.0307 -0.1881
  145ccc     O7 4714   7.737   3.743   2.782  0.1232 -0.3831  0.4879
  145ccc    H25 4715   7.681   3.679   2.735 -0.1273  0.6055 -0.5871
  145ccc     O8 4716   7.973   3.888   2.950  0.1636  0.2210 -0.5535
  145ccc    H26 4717   8.065   3.887   3.226 -1.6965 -2.7905  0.9527
  145ccc    H27 4718   8.127   3.754   2.586 -1.1878  0.5737 -1.2032
  145ccc     O9 4719   8.148   3.950   2.545 -0.2291  0.0634  0.1581
  145ccc    H28 4720   8.232   3.926   2.503  0.6347  0.5258  1.5375
  145ccc     N3 4721   8.432   3.998   2.991 -0.4941  0.2849 -0.2709
  145ccc    C17 4722   8.452   3.256   3.198 -0.6997 -0.1362 -0.4563
  145ccc    C18 4723   8.578   3.240   3.280  0.1431 -0.6450  0.4718
  145ccc    H29 4724   8.491   3.238   3.097 -0.8396  2.1280 -0.9573
  145ccc    C19 4725   8.667   3.372   3.270 -0.4897 -0.2919  0.1220
  145ccc    C20 4726   8.584   3.503   3.282 -0.9545  0.1085  0.5065
  145ccc    C21 4727   8.456   3.499   3.204 -0.2729  0.0759  0.0841
  145ccc    H30 4728   8.565   3.507   3.390  1.3926 -1.7686  1.0820
  145ccc    H31 4729   8.718   3.356   3.174  0.7861 -1.9606  1.0428
  145ccc    H32 4730   8.470   3.514   3.096 -1.3112 -0.9330 -0.2147
  145ccc    O10 4731   8.363   3.601   3.246  0.0644  0.0120 -0.1132
  145ccc    O11 4732   8.769   3.372   3.373  0.3130 -0.0645 -0.0546
  145ccc    C22 4733   8.358   3.129   3.225  0.7210  0.3464  0.0105
  145ccc    H33 4734   8.843   3.317   3.342  1.3142  1.2788 -0.1556
  145ccc    H34 4735   8.691   3.605   3.141  1.1725  1.2425  0.0152
  145ccc    H35 4736   8.327   3.114   3.329  1.1006 -4.0016 -0.3120
  145ccc    H36 4737   8.413   3.034   3.219 -0.0546 -0.0974 -0.2557
  145ccc    O12 4738   8.251   3.135   3.132 -0.0494  0.5534 -0.4144
  145ccc    H37 4739   8.182   3.073   3.161 -1.3654  2.1904  0.0778
  145ccc    O13 4740   8.382   3.377   3.227  0.1318 -0.2768 -0.3398
  145ccc    H38 4741   8.289   3.572   3.189  1.2488 -0.6327 -1.3550
  145ccc    H39 4742   8.542   3.228   3.383  0.7801  0.9348  0.9107
  145ccc     O5 4743   8.664   3.134   3.240  0.1314  0.4502  0.6015
  145ccc    H40 4744   8.752   3.154   3.277  1.4650 -1.8583 -1.0426
  145ccc     N4 4745   8.669   3.615   3.240 -0.3631  0.5834 -0.2338
  145ccc    H41 4746   8.620   3.971   3.376  0.5022  0.2367  1.7332
  146ccc     N1 4747   6.000   2.725   3.366 -0.4473 -0.4881 -0.2833
  146ccc     H4 4748   5.961   2.707   3.274  1.3439  1.4866 -1.5335
  146ccc     C3 4749   6.116   2.645   3.404  0.5930  0.4792  0.2105
  146ccc     H5 4750   6.206   2.708   3.403  1.0513 -0.1704  0.2938
  146ccc     C4 4751   6.135   2.522   3.316  0.1151  0.8402 -0.4063
  146ccc     H6 4752   6.099   2.606   3.505 -1.2390 -0.2996 -0.3528
  146ccc     H7 4753   6.172   2.545   3.216 -0.5834 -2.1284 -1.4660
  146ccc     H8 4754   6.037   2.475   3.307  0.6736 -0.6787  0.7719
  146ccc     N2 4755   6.235   2.421   3.353  0.4928 -0.1482 -0.7408
  146ccc     C5 4756   6.191   2.345   3.478  0.2086  0.3722 -0.1060
  146ccc     C6 4757   6.376   2.472   3.354 -0.0121 -0.7254 -0.5933
  146ccc     H9 4758   6.402   2.511   3.255  1.4593 -1.3943 -0.4965
  146ccc     C7 4759   6.486   2.368   3.392  0.6019  0.3873 -0.4345
  146ccc    H10 4760   6.385   2.551   3.430  1.2128 -1.0191 -0.4212
  146ccc    H11 4761   6.477   2.273   3.338  3.0617  0.0007 -0.2556
  146ccc    H12 4762   6.482   2.327   3.494 -2.2268  1.7691  0.1240
  146ccc     C8 4763   6.627   2.423   3.372  1.0698 -1.2210 -0.0458
  146ccc     O2 4764   6.683   2.418   3.267  0.2751 -0.5974  0.2764
  146ccc    H13 4765   6.102   2.389   3.525  1.9247  0.9731  2.7790
  146ccc    H14 4766   6.276   2.337   3.547 -0.0473 -1.8287  0.0316
  146ccc     C9 4767   6.161   2.198   3.437 -0.2544  0.2585 -0.1312
  146ccc    H15 4768   6.250   2.150   3.394 -0.2606  0.1892 -0.0673
  146ccc    H16 4769   6.075   2.186   3.371  0.0680  0.8685 -0.6819
  146ccc    C10 4770   6.127   2.115   3.559 -0.5483 -0.2850  0.4193
  146ccc     O4 4771   6.147   2.166   3.670  0.0666 -0.0367 -0.6594
  146ccc    C11 4772   6.778   2.475   3.902  0.5948 -0.3147  0.3449
  146ccc    C12 4773   6.705   2.603   3.846 -0.5976  0.0304 -0.6233
  146ccc    H17 4774   6.885   2.495   3.893  0.2054  1.3446 -1.1513
  146ccc    C13 4775   6.715   2.612   3.688 -0.0688 -0.7807 -0.0305
  146ccc    C14 4776   6.679   2.477   3.624  0.2132 -0.5633  0.3346
  146ccc    C15 4777   6.761   2.363   3.690  0.6387  0.7257 -0.3266
  146ccc    H18 4778   6.575   2.465   3.656 -0.1883  1.4494 -0.0652
  146ccc    H19 4779   6.815   2.647   3.660 -0.2195  0.2295  0.6606
  146ccc    H20 4780   6.866   2.385   3.665  0.5626  0.3324 -1.0151
  146ccc     O1 4781   6.718   2.240   3.634  0.5104  0.2531 -0.5660
  146ccc     O6 4782   6.624   2.709   3.647  0.2047  0.0371 -0.3601
  146ccc    C16 4783   6.745   2.440   4.054 -0.0803 -0.2405  0.6299
  146ccc    H21 4784   6.613   2.711   3.550  0.2591 -1.0954 -0.3977
  146ccc    H22 4785   6.800   2.494   3.461 -0.0217 -1.5535  0.2777
  146ccc    H23 4786   6.640   2.411   4.073 -0.0941 -0.6488 -0.0295
  146ccc    H24 4787   6.772   2.523   4.120 -0.6159  0.4433 -0.0005
  146ccc     O7 4788   6.831   2.330   4.095 -0.3068 -0.1308  0.3717
  146ccc    H25 4789   6.864   2.300   4.009 -1.4418  1.0150 -0.5085
  146ccc     O8 4790   6.734   2.357   3.834  0.3112  0.2464  0.1205
  146ccc    H26 4791   6.728   2.186   3.714 -0.4030  0.0365 -0.5914
  146ccc    H27 4792   6.601   2.603   3.879 -0.1213  0.5615  0.9448
  146ccc     O9 4793   6.764   2.717   3.910  0.1062 -0.3509  0.2673
  146ccc    H28 4794   6.701   2.788   3.891  1.4095  0.5621 -0.8508
  146ccc     N3 4795   6.701   2.475   3.475 -0.3642 -0.2441 -0.2682
  146ccc    C17 4796   6.070   1.639   3.309 -0.4370  0.2363 -1.0770
  146ccc    C18 4797   5.942   1.714   3.325 -0.5229 -0.3143 -1.3775
  146ccc    H29 4798   6.076   1.567   3.391  0.4557 -0.2998 -1.5978
  146ccc    C19 4799   5.943   1.819   3.440  0.0687  0.2796 -0.4764
  146ccc    C20 4800   6.068   1.908   3.433  0.3631 -0.5791  1.1138
  146ccc    C21 4801   6.193   1.816   3.424  0.0600  0.0769  0.5371
  146ccc    H30 4802   6.057   1.969   3.343  0.1202 -0.0231  1.5133
  146ccc    H31 4803   5.960   1.768   3.536 -1.1461 -1.0728 -0.9545
  146ccc    H32 4804   6.282   1.878   3.406 -0.6503  0.9994  0.1932
  146ccc    O10 4805   6.210   1.726   3.534  0.2739  0.5407 -0.0982
  146ccc    O11 4806   5.821   1.896   3.436  0.2928 -0.2331  0.1670
  146ccc    C22 4807   6.077   1.542   3.183  0.1295 -0.1210 -0.0066
  146ccc    H33 4808   5.831   1.978   3.487  2.6424 -2.0944  3.1091
  146ccc    H34 4809   6.080   1.933   3.634  0.5583 -0.5166  0.2270
  146ccc    H35 4810   5.984   1.484   3.183 -0.4326  0.3616 -5.0649
  146ccc    H36 4811   6.077   1.600   3.090 -2.4138 -1.4365 -0.9237
  146ccc    O12 4812   6.193   1.457   3.193  0.4829 -0.0465  0.1452
  146ccc    H37 4813   6.202   1.408   3.110 -1.3387  0.7447 -0.5642
  146ccc    O13 4814   6.177   1.733   3.304  0.2755 -0.9499 -0.1730
  146ccc    H38 4815   6.221   1.636   3.498  0.5303  0.7051 -0.4424
  146ccc    H39 4816   5.936   1.774   3.233  1.6519 -0.2346 -1.5093
  146ccc     O5 4817   5.826   1.626   3.322  0.5677 -0.5374  0.6068
  146ccc    H40 4818   5.842   1.569   3.399  1.9784 -0.4503  0.3896
  146ccc     N4 4819   6.075   1.992   3.551 -0.3119 -0.0233  0.6172
  146ccc    H41 4820   6.216   2.358   3.273  0.4866 -0.5132 -0.4572
  147ccc     N1 4821   5.596   2.640   3.888  0.0242 -0.0716 -0.9180
  147ccc     H4 4822   5.541   2.571   3.838  0.0141 -0.1220 -0.8389
  147ccc     C3 4823   5.622   2.612   4.031 -0.6428  0.3675 -0.3719
  147ccc     H5 4824   5.725   2.640   4.054 -1.2786  3.0441 -0.3676
  147ccc     C4 4825   5.589   2.461   4.061  0.9865 -1.0533  0.1625
  147ccc     H6 4826   5.561   2.677   4.096  0.4494 -1.3749  2.5696
  147ccc     H7 4827   5.631   2.398   3.982 -0.0986 -1.4118 -0.1443
  147ccc     H8 4828   5.480   2.454   4.049  0.5812  1.4410  1.6476
  147ccc     N2 4829   5.618   2.423   4.206 -0.5192 -0.3611 -0.0637
  147ccc     C5 4830   5.767   2.405   4.233 -0.4504  0.2289 -0.5448
  147ccc     C6 4831   5.541   2.294   4.252 -0.4235 -0.2103 -0.0742
  147ccc     H9 4832   5.440   2.303   4.209  0.8259 -0.5292 -3.3144
  147ccc     C7 4833   5.523   2.283   4.409  0.2647 -0.2238 -0.1880
  147ccc    H10 4834   5.582   2.199   4.216  0.2619  1.1455 -3.1032
  147ccc    H11 4835   5.465   2.373   4.436 -0.4821 -0.4045 -1.1279
  147ccc    H12 4836   5.620   2.283   4.460  1.1440 -1.0924 -1.7987
  147ccc     C8 4837   5.446   2.156   4.448  1.0279 -0.1587 -0.8631
  147ccc     O2 4838   5.404   2.075   4.373  0.1531  0.7279  0.3500
  147ccc    H13 4839   5.771   2.406   4.343  0.4811  0.2053 -0.5654
  147ccc    H14 4840   5.817   2.499   4.206 -0.1729  0.1155 -0.4360
  147ccc     C9 4841   5.847   2.288   4.178 -0.2048  0.4251 -0.3190
  147ccc    H15 4842   5.819   2.265   4.075  0.0030  1.9204 -0.7196
  147ccc    H16 4843   5.824   2.197   4.236 -0.3924  0.1432 -0.8273
  147ccc    C10 4844   5.997   2.317   4.186  0.0766  0.1328 -0.1730
  147ccc     O4 4845   6.062   2.351   4.088  0.4875  0.4762 -0.1089
  147ccc    C11 4846   5.315   1.925   4.923  0.3742 -0.7173  0.0308
  147ccc    C12 4847   5.206   2.021   4.867  0.2438  0.3730 -0.5664
  147ccc    H17 4848   5.378   1.986   4.988 -2.5627  0.9996  1.4963
  147ccc    C13 4849   5.257   2.116   4.766  0.2998 -0.0663  0.2479
  147ccc    C14 4850   5.349   2.049   4.660 -0.7774 -0.5020 -0.7015
  147ccc    C15 4851   5.456   1.964   4.730  0.4940  0.0538  0.2911
  147ccc    H18 4852   5.282   1.989   4.597 -4.4128  1.0286  1.3571
  147ccc    H19 4853   5.318   2.183   4.827 -0.2593 -0.3354  1.1168
  147ccc    H20 4854   5.516   2.035   4.788  1.1873 -0.7956  0.6272
  147ccc     O1 4855   5.530   1.894   4.633 -0.5101  0.0195 -0.5022
  147ccc     O6 4856   5.149   2.187   4.702  0.3186  0.0713  0.1182
  147ccc    C16 4857   5.267   1.810   5.008  0.3856 -0.4459 -0.1564
  147ccc    H21 4858   5.090   2.235   4.763 -0.6887  1.5111 -1.8621
  147ccc    H22 4859   5.444   2.234   4.634  0.4150 -0.0855  0.4991
  147ccc    H23 4860   5.237   1.726   4.945  1.8483  1.0324 -2.9781
  147ccc    H24 4861   5.170   1.836   5.053  0.0075 -0.7745 -0.7662
  147ccc     O7 4862   5.370   1.765   5.104  0.5724  0.2192 -0.0123
  147ccc    H25 4863   5.332   1.697   5.164  0.8650  0.1363  0.0805
  147ccc     O8 4864   5.391   1.869   4.817  0.4596  0.0464  0.0727
  147ccc    H26 4865   5.607   1.865   4.685 -0.1562  1.8284  0.0337
  147ccc    H27 4866   5.136   1.957   4.813 -2.4023  1.3525  1.4999
  147ccc     O9 4867   5.147   2.091   4.979 -0.4463  0.0898 -0.1745
  147ccc    H28 4868   5.099   2.168   4.944  0.1519  0.8421  0.6228
  147ccc     N3 4869   5.414   2.153   4.580  0.3296 -0.2263  0.7559
  147ccc    C17 4870   6.021   2.157   4.714  0.4488  0.3977 -0.0751
  147ccc    C18 4871   5.971   2.302   4.681 -0.5106  0.2009 -0.1326
  147ccc    H29 4872   6.129   2.160   4.735  0.1129  2.2374  1.6677
  147ccc    C19 4873   6.022   2.357   4.545 -0.4563  0.0632  0.4523
  147ccc    C20 4874   6.004   2.249   4.431  0.2254  0.0948  0.5184
  147ccc    C21 4875   6.060   2.117   4.472  0.3518  0.0206  0.3309
  147ccc    H30 4876   5.897   2.229   4.423  0.7429 -2.5812 -0.6885
  147ccc    H31 4877   6.130   2.371   4.558 -1.0525  2.5296  3.9980
  147ccc    H32 4878   6.168   2.116   4.489  0.3833 -0.1325  0.1383
  147ccc    O10 4879   6.020   2.022   4.387  0.2724 -0.0211  0.0059
  147ccc    O11 4880   5.964   2.478   4.503  0.7826  0.1786 -0.0181
  147ccc    C22 4881   5.957   2.101   4.845  0.4719  0.0652 -0.2789
  147ccc    H33 4882   5.983   2.557   4.557  1.2507  1.4677 -1.9555
  147ccc    H34 4883   6.161   2.321   4.302  0.3383 -0.2445 -2.3857
  147ccc    H35 4884   5.850   2.122   4.839  0.0669 -1.8033 -0.2540
  147ccc    H36 4885   5.993   2.165   4.927  0.4434 -0.6874  0.3317
  147ccc    O12 4886   5.981   1.963   4.880 -0.2770  0.0689 -0.1952
  147ccc    H37 4887   5.954   1.949   4.972  1.5174  1.7127  0.6358
  147ccc    O13 4888   5.998   2.075   4.594  0.6309  0.5228 -0.6852
  147ccc    H38 4889   6.058   1.939   4.418 -0.2212 -1.5554 -3.1003
  147ccc    H39 4890   5.862   2.293   4.680 -0.3563 -2.4826 -0.7012
  147ccc     O5 4891   5.993   2.393   4.785 -0.3174  0.7071 -0.0094
  147ccc    H40 4892   6.087   2.418   4.787 -0.0100 -0.3281  2.4606
  147ccc     N4 4893   6.062   2.298   4.302  0.2473 -0.1801  0.5034
  147ccc    H41 4894   5.584   2.496   4.269 -0.6950 -0.2533 -0.2811
  148ccc     N1 4895   6.571   1.845   3.618 -0.0616 -0.6327 -0.3085
  148ccc     H4 4896   6.624   1.798   3.691 -0.8000  0.3428  0.8913
  148ccc     C3 4897   6.594   1.818   3.479 -0.8140  0.0624  0.0448
  148ccc     H5 4898   6.608   1.713   3.450  0.2389  0.1702  0.1067
  148ccc     C4 4899   6.723   1.886   3.433  0.5605 -0.4699 -1.0250
  148ccc     H6 4900   6.510   1.851   3.417 -1.4957  0.2720  1.0690
  148ccc     H7 4901   6.806   1.833   3.481  0.5582  0.2486 -0.2102
  148ccc     H8 4902   6.722   1.987   3.475  1.5807 -0.8205 -0.1119
  148ccc     N2 4903   6.756   1.891   3.288  0.7064 -0.0529  0.5500
  148ccc     C5 4904   6.771   1.746   3.236  0.8045  0.7081  0.6436
  148ccc     C6 4905   6.871   1.979   3.258  0.0382 -0.6931  0.7131
  148ccc     H9 4906   6.959   1.962   3.322  1.5225  3.1821 -0.0041
  148ccc     C7 4907   6.849   2.136   3.262 -0.5962  0.1986 -0.2326
  148ccc    H10 4908   6.911   1.945   3.161 -0.1689 -2.0993  1.1056
  148ccc    H11 4909   6.772   2.163   3.335  0.9215  2.1917  0.7349
  148ccc    H12 4910   6.810   2.169   3.165  1.1280  0.6122 -0.8296
  148ccc     C8 4911   6.978   2.219   3.287 -0.0428 -0.0674 -0.0775
  148ccc     O2 4912   7.087   2.166   3.290  0.3988  0.2219 -0.3484
  148ccc    H13 4913   6.675   1.695   3.253  2.0857 -3.0021 -2.0306
  148ccc    H14 4914   6.849   1.706   3.301  1.3180  2.5503  1.2284
  148ccc     C9 4915   6.795   1.726   3.081  0.0524  0.3989 -0.1235
  148ccc    H15 4916   6.795   1.617   3.073  1.7898  0.1489  2.2483
  148ccc    H16 4917   6.895   1.761   3.053 -0.2792 -0.2828 -2.4096
  148ccc    C10 4918   6.688   1.797   2.997  0.1272  0.3077  0.5803
  148ccc     O4 4919   6.715   1.897   2.936 -0.3589  0.9348 -0.2993
  148ccc    C11 4920   7.175   2.718   3.190 -0.2584  0.0172  0.8591
  148ccc    C12 4921   7.128   2.702   3.336 -0.2823 -0.1285 -0.2868
  148ccc    H17 4922   7.104   2.765   3.121  0.0580 -1.5585 -0.6074
  148ccc    C13 4923   7.023   2.583   3.346 -0.3307 -0.2619 -0.0873
  148ccc    C14 4924   7.075   2.451   3.281 -0.0166  0.0227  0.0551
  148ccc    C15 4925   7.129   2.480   3.135  0.0807 -0.3194  0.3145
  148ccc    H18 4926   7.159   2.423   3.345 -1.3028 -0.7474  1.4582
  148ccc    H19 4927   6.941   2.611   3.280  1.7674  1.3922 -2.1639
  148ccc    H20 4928   7.042   2.502   3.072 -0.1731 -0.4738  0.6049
  148ccc     O1 4929   7.217   2.378   3.082 -0.5933 -0.0287  0.0316
  148ccc     O6 4930   6.985   2.574   3.484 -0.3085  0.0445 -0.5917
  148ccc    C16 4931   7.293   2.816   3.157 -0.7392  0.1102 -0.7459
  148ccc    H21 4932   7.060   2.564   3.545 -0.9968  0.9243  0.4262
  148ccc    H22 4933   6.876   2.392   3.266  0.9124  2.3777  0.5894
  148ccc    H23 4934   7.269   2.920   3.184 -0.1531  0.6363 -2.1387
  148ccc    H24 4935   7.302   2.822   3.047 -0.0327  0.3678 -0.6810
  148ccc     O7 4936   7.406   2.776   3.237 -0.4532  0.1576  0.0009
  148ccc    H25 4937   7.389   2.685   3.265  1.1648  0.1482  1.0820
  148ccc     O8 4938   7.217   2.587   3.143  0.0918 -0.5074  0.0908
  148ccc    H26 4939   7.289   2.380   3.146 -0.2479 -0.5055 -0.3369
  148ccc    H27 4940   7.214   2.676   3.398  0.1532  0.8980 -0.4384
  148ccc     O9 4941   7.077   2.828   3.381  0.0685  0.1714  0.0311
  148ccc    H28 4942   6.991   2.816   3.426  0.6024  0.7653  1.2463
  148ccc     N3 4943   6.966   2.350   3.290 -0.0815  0.0582  0.4666
  148ccc    C17 4944   6.155   1.870   2.997  0.6265  0.3200  0.3302
  148ccc    C18 4945   6.267   1.959   3.064  0.1559 -0.6256 -0.1020
  148ccc    H29 4946   6.136   1.786   3.065  0.6428 -0.8546 -1.0598
  148ccc    C19 4947   6.395   1.877   3.088 -0.3224 -0.2897  0.0502
  148ccc    C20 4948   6.444   1.816   2.955  0.1691  0.1352 -0.4242
  148ccc    C21 4949   6.331   1.733   2.887  0.6796 -0.7170 -0.3423
  148ccc    H30 4950   6.472   1.894   2.883  0.2465  1.7193  1.2641
  148ccc    H31 4951   6.368   1.796   3.158  0.2220 -0.4834  0.0386
  148ccc    H32 4952   6.315   1.645   2.950  0.3081  0.3114  1.0757
  148ccc    O10 4953   6.360   1.698   2.757  0.0826 -0.0310  0.4788
  148ccc    O11 4954   6.497   1.958   3.154 -0.0187 -0.0918 -0.4245
  148ccc    C22 4955   6.022   1.951   2.966  0.1020 -0.2140 -0.4416
  148ccc    H33 4956   6.507   2.043   3.108  0.5434 -0.1403 -0.4012
  148ccc    H34 4957   6.549   1.659   3.055 -2.1058  0.4095  0.8688
  148ccc    H35 4958   6.041   2.035   2.897  0.8585 -0.9208 -1.1200
  148ccc    H36 4959   5.989   1.991   3.062  1.0566 -0.2932 -0.0666
  148ccc    O12 4960   5.928   1.857   2.909 -0.4013  0.0819  0.5924
  148ccc    H37 4961   5.979   1.779   2.881  0.3288  1.7912 -3.5911
  148ccc    O13 4962   6.210   1.810   2.872  0.3320 -0.4918  0.3785
  148ccc    H38 4963   6.339   1.604   2.752  2.3039 -0.4924 -2.6239
  148ccc    H39 4964   6.295   2.039   2.995 -2.7287  1.5052  1.0109
  148ccc     O5 4965   6.218   2.025   3.182  0.0027 -0.3005 -0.2491
  148ccc    H40 4966   6.190   2.114   3.156 -0.1965 -0.2559  0.1033
  148ccc     N4 4967   6.572   1.735   2.991  0.3676 -0.4466  0.6386
  148ccc    H41 4968   6.676   1.936   3.240 -0.4453 -1.7410  0.8044
  149ccc     N1 4969   6.168   1.791   4.165 -0.5110  0.0523 -0.0417
  149ccc     H4 4970   6.071   1.819   4.175 -0.5086  0.7439 -1.7235
  149ccc     C3 4971   6.204   1.649   4.121 -0.7256  0.0740  0.0504
  149ccc     H5 4972   6.124   1.607   4.058  0.7328 -0.3236 -1.5990
  149ccc     C4 4973   6.238   1.558   4.249 -0.1351  0.3697 -0.4986
  149ccc     H6 4974   6.299   1.656   4.067 -1.1795  1.2355 -0.6337
  149ccc     H7 4975   6.150   1.549   4.313  0.3179  3.3756  0.7165
  149ccc     H8 4976   6.305   1.621   4.309 -1.1438  1.5635 -0.5803
  149ccc     N2 4977   6.288   1.420   4.221  0.2162 -0.6581 -0.3267
  149ccc     C5 4978   6.423   1.430   4.146  0.0714  0.5414  0.4316
  149ccc     C6 4979   6.186   1.333   4.147 -0.5276 -0.4343  0.7127
  149ccc     H9 4980   6.155   1.401   4.066 -0.4549  0.9879  1.8356
  149ccc     C7 4981   6.052   1.294   4.202  0.0958 -0.2558 -0.4129
  149ccc    H10 4982   6.241   1.246   4.110  1.5451  1.3302 -0.6034
  149ccc    H11 4983   5.977   1.241   4.141 -1.0137  0.9658 -0.1502
  149ccc    H12 4984   6.003   1.390   4.221  0.2587 -0.5544  1.6756
  149ccc     C8 4985   6.064   1.225   4.341 -0.1010 -0.3956  1.0169
  149ccc     O2 4986   6.174   1.191   4.382 -0.4180 -0.4043  0.8642
  149ccc    H13 4987   6.397   1.457   4.043  0.2135 -0.0103  0.2491
  149ccc    H14 4988   6.461   1.328   4.139  0.9337  0.8399  0.6510
  149ccc     C9 4989   6.533   1.520   4.205  0.1117  0.1559 -0.2350
  149ccc    H15 4990   6.502   1.624   4.193 -0.1957 -0.1844 -2.8749
  149ccc    H16 4991   6.626   1.515   4.147 -1.1897  3.3722 -2.8657
  149ccc    C10 4992   6.565   1.477   4.345 -0.0207  0.5035 -0.8670
  149ccc     O4 4993   6.511   1.388   4.402 -0.3895  0.0157 -1.5153
  149ccc    C11 4994   5.867   0.904   4.827 -0.6663 -0.2706 -0.7074
  149ccc    C12 4995   5.725   0.858   4.728  0.2313 -0.0785 -0.6033
  149ccc    H17 4996   5.828   0.953   4.918  0.6204 -1.2572  0.4278
  149ccc    C13 4997   5.707   0.925   4.554 -0.0596 -0.2191  0.2322
  149ccc    C14 4998   5.932   1.068   4.482  0.2500 -0.0547  0.5394
  149ccc    C15 4999   6.050   1.073   4.628  0.2999  0.0016  0.2012
  149ccc    H18 5000   6.008   1.013   4.426  1.4127 -1.2242  3.0755
  149ccc    H19 5001   5.613   0.980   4.559 -0.4597 -0.6274 -1.8768
  149ccc    H20 5002   6.072   1.177   4.654  0.8696 -0.4694  1.7227
  149ccc     O1 5003   6.177   1.013   4.601 -0.5263  0.0667  0.1407
  149ccc     O6 5004   5.634   0.811   4.487  0.3900 -0.0596  0.0404
  149ccc    C16 5005   5.923   0.766   4.885  0.6403 -0.1531  0.6814
  149ccc    H21 5006   5.570   0.771   4.549  1.1430  0.5182  1.2389
  149ccc    H22 5007   5.863   1.212   4.355  0.9045  1.0883 -1.6558
  149ccc    H23 5008   5.959   0.695   4.810 -0.9190 -0.2957  0.0267
  149ccc    H24 5009   5.827   0.730   4.925  1.5634 -1.9468  1.3906
  149ccc     O7 5010   6.006   0.792   4.995  0.1391 -0.2952  0.4574
  149ccc    H25 5011   5.953   0.761   5.070  2.8693  0.5857  2.9310
  149ccc     O8 5012   6.003   0.999   4.783  0.3324 -0.4416  0.0601
  149ccc    H26 5013   6.222   1.056   4.526 -1.4968  0.7798 -0.0488
  149ccc    H27 5014   5.709   0.750   4.721 -1.0996 -0.0727  1.5167
  149ccc     O9 5015   5.610   0.891   4.800  0.0487  0.0378 -0.6907
  149ccc    H28 5016   5.537   0.846   4.754 -0.8655  1.1201 -0.3393
  149ccc     N3 5017   5.953   1.190   4.398 -0.1102  0.9134  0.5035
  149ccc    C17 5018   6.880   1.889   4.479  0.0393 -0.2866 -1.0186
  149ccc    C18 5019   6.952   1.755   4.453  0.0252 -0.2587 -0.4168
  149ccc    H29 5020   6.862   1.900   4.587  3.1583  0.8039 -0.5103
  149ccc    C19 5021   6.862   1.634   4.465 -0.4798  0.4280  0.4973
  149ccc    C20 5022   6.729   1.659   4.387 -0.4458 -0.6004  0.2728
  149ccc    C21 5023   6.669   1.790   4.442  0.1921  0.6305 -0.0934
  149ccc    H30 5024   6.752   1.663   4.280  1.6003  1.1942  0.7262
  149ccc    H31 5025   6.833   1.630   4.570  1.0720  0.7178  0.9725
  149ccc    H32 5026   6.658   1.792   4.551  1.1482 -1.4607  0.0985
  149ccc    O10 5027   6.546   1.827   4.379 -0.5585 -0.5559 -0.5856
  149ccc    O11 5028   6.926   1.521   4.420 -0.2538 -0.5311  0.0425
  149ccc    C22 5029   6.969   2.010   4.446  0.5983 -0.1811  0.1057
  149ccc    H33 5030   6.915   1.518   4.323  2.2496 -2.1426 -0.2773
  149ccc    H34 5031   6.653   1.514   4.521 -0.7322  0.6675  0.5566
  149ccc    H35 5032   6.978   2.005   4.336 -1.8096 -0.4622 -0.1305
  149ccc    H36 5033   7.072   2.002   4.484  1.0134 -2.5120 -1.2839
  149ccc    O12 5034   6.910   2.131   4.482  0.1911 -0.1868  0.4741
  149ccc    H37 5035   6.962   2.202   4.441  0.0951 -1.1202 -1.3806
  149ccc    O13 5036   6.760   1.891   4.400  0.1457 -0.1294  0.1195
  149ccc    H38 5037   6.529   1.914   4.419 -2.8643 -0.2836 -1.9292
  149ccc    H39 5038   6.987   1.761   4.350 -0.8596  0.2310 -0.7039
  149ccc     O5 5039   7.069   1.743   4.545  0.1677  0.3557 -0.6037
  149ccc    H40 5040   7.127   1.679   4.500  4.5179  1.8104  2.3068
  149ccc     N4 5041   6.655   1.541   4.422 -0.4671 -0.3082  0.2920
  149ccc    H41 5042   6.301   1.362   4.306 -0.9715 -0.5107 -0.0324
  150ccc     N1 5043   7.900   5.026   3.810  0.6464 -0.6012  0.4298
  150ccc     H4 5044   7.802   5.048   3.795  0.6120 -0.1310  1.3220
  150ccc     C3 5045   7.977   4.983   3.693 -0.8637 -0.1184 -0.1003
  150ccc     H5 5046   8.076   5.030   3.697 -0.9345 -0.0020  0.3299
  150ccc     C4 5047   7.912   5.020   3.553  0.0744 -0.7731 -0.0226
  150ccc     H6 5048   8.015   4.880   3.692 -2.9213 -0.9314  0.1789
  150ccc     H7 5049   7.861   5.116   3.568  0.5669 -0.6535  0.9605
  150ccc     H8 5050   7.834   4.944   3.539 -1.1701 -0.0441  2.3805
  150ccc     N2 5051   7.997   5.013   3.426 -0.3780 -0.2055 -0.3119
  150ccc     C5 5052   8.081   5.147   3.402 -0.2558  0.8141  0.4532
  150ccc     C6 5053   7.912   4.972   3.306  0.4082 -0.4652 -0.3815
  150ccc     H9 5054   7.974   4.943   3.220  0.5701 -0.1795 -0.3612
  150ccc     C7 5055   7.799   5.067   3.252 -0.1513  0.1994 -0.1334
  150ccc    H10 5056   7.866   4.874   3.325  2.0201 -1.0160  0.9216
  150ccc    H11 5057   7.833   5.168   3.226 -0.7745  0.7702  1.2035
  150ccc    H12 5058   7.721   5.098   3.322 -1.5692  0.1397 -1.6333
  150ccc     C8 5059   7.707   5.002   3.147  0.7638  0.5208  0.0986
  150ccc     O2 5060   7.686   4.882   3.135 -0.0524  0.2407 -0.5572
  150ccc    H13 5061   8.140   5.173   3.490  1.5585 -0.6635 -0.2493
  150ccc    H14 5062   8.011   5.223   3.367 -0.5470 -0.5567 -2.2990
  150ccc     C9 5063   8.184   5.136   3.294 -0.3945  0.2392  0.0438
  150ccc    H15 5064   8.244   5.046   3.311 -0.5927 -0.2653 -1.6741
  150ccc    H16 5065   8.250   5.223   3.292  1.7271 -1.2751  0.7499
  150ccc    C10 5066   8.135   5.137   3.151  0.5524 -1.0630 -0.1647
  150ccc     O4 5067   8.080   5.235   3.104  0.5956 -0.5255  0.4577
  150ccc    C11 5068   7.306   5.264   2.867 -0.1697  0.5380 -0.7300
  150ccc    C12 5069   7.476   5.284   2.849 -0.2084 -0.3561  0.4811
  150ccc    H17 5070   7.323   5.281   2.974 -1.9898 -1.6374 -0.0112
  150ccc    C13 5071   7.564   5.153   2.842  0.4361 -0.2674 -0.7260
  150ccc    C14 5072   7.535   5.057   2.961  0.3152  0.1259 -0.1141
  150ccc    C15 5073   7.385   5.059   3.001  0.2005 -0.3371  0.5997
  150ccc    H18 5074   7.565   4.958   2.926  2.2619  0.5495  0.2492
  150ccc    H19 5075   7.665   5.193   2.859  0.4009 -0.5251  0.1883
  150ccc    H20 5076   7.369   5.107   3.099  3.4209 -0.2778  1.2009
  150ccc     O1 5077   7.335   4.927   3.013 -0.1374  0.0771 -0.2316
  150ccc     O6 5078   7.569   5.083   2.716  0.3706 -0.6876  0.2394
  150ccc    C16 5079   7.097   5.399   2.779 -0.0141 -0.2652 -1.2936
  150ccc    H21 5080   7.605   5.153   2.660  1.3227 -1.6012 -0.3416
  150ccc    H22 5081   7.647   5.191   3.092 -0.6060 -0.1428  1.1842
  150ccc    H23 5082   7.087   5.406   2.670  1.5524  3.0835 -1.3335
  150ccc    H24 5083   7.091   5.506   2.799 -0.1781 -0.5283  0.1781
  150ccc     O7 5084   6.949   5.374   2.807 -0.5720  0.2449 -0.0980
  150ccc    H25 5085   6.948   5.277   2.813  0.7704  0.1979 -0.3170
  150ccc     O8 5086   7.311   5.113   2.894  1.0892  0.1368  0.5176
  150ccc    H26 5087   7.243   4.938   2.983  0.3140  0.7767 -1.4643
  150ccc    H27 5088   7.509   5.320   2.751  2.1815 -0.9565  0.9774
  150ccc     O9 5089   7.541   5.372   2.948  0.6379 -0.1269 -0.2438
  150ccc    H28 5090   7.490   5.454   2.934 -0.9120 -1.1374 -0.6761
  150ccc     N3 5091   7.641   5.091   3.069 -0.4248  0.1268 -0.1002
  150ccc    C17 5092   7.971   5.051   2.680 -0.1838 -0.7450  0.3790
  150ccc    C18 5093   8.117   5.104   2.686 -0.3261 -0.6276  0.1534
  150ccc    H29 5094   7.902   5.132   2.706  0.1877 -0.8874  1.9179
  150ccc    C19 5095   8.158   5.137   2.835 -0.2434 -0.2043 -0.8910
  150ccc    C20 5096   8.129   5.014   2.929 -0.5205 -1.4409 -0.0661
  150ccc    C21 5097   7.981   4.989   2.917 -0.1350 -0.1259 -0.0012
  150ccc    H30 5098   8.189   4.937   2.879  0.6769 -1.3933  1.2217
  150ccc    H31 5099   8.100   5.224   2.867 -0.0425 -0.6401  0.7229
  150ccc    H32 5100   7.920   5.078   2.937  0.3004  0.4520 -1.1538
  150ccc    O10 5101   7.935   4.882   2.988 -0.1530 -0.7621  0.2941
  150ccc    O11 5102   8.297   5.171   2.837  0.1512 -0.5171  0.0250
  150ccc    C22 5103   7.919   5.014   2.537  0.0864  0.0497 -0.5259
  150ccc    H33 5104   8.328   5.133   2.921 -0.7969  0.0533  0.6470
  150ccc    H34 5105   8.199   4.953   3.117 -1.1675  0.7672  0.6746
  150ccc    H35 5106   7.899   5.104   2.478 -0.7909  0.4078  0.2868
  150ccc    H36 5107   7.822   4.962   2.543  0.6566 -1.2028 -1.6625
  150ccc    O12 5108   8.007   4.916   2.472  0.4506  0.1591  0.2526
  150ccc    H37 5109   8.035   4.852   2.539 -0.5057 -1.2564 -0.6493
  150ccc    O13 5110   7.952   4.946   2.780 -0.1445 -0.2829  0.2223
  150ccc    H38 5111   7.980   4.813   2.936 -2.6189 -2.4047  0.1882
  150ccc    H39 5112   8.185   5.023   2.656 -0.7957 -1.0201  0.1578
  150ccc     O5 5113   8.146   5.218   2.600  0.3390  0.7710  0.3325
  150ccc    H40 5114   8.232   5.207   2.556 -1.2929  0.7595 -3.1895
  150ccc     N4 5115   8.173   5.039   3.068 -0.4009  0.4951 -0.2434
  150ccc    H41 5116   8.065   4.937   3.440 -2.5339 -2.5451 -1.6287
  151ccc     N1 5117   8.207   5.623   4.241 -0.3129 -0.1025 -0.5197
  151ccc     H4 5118   8.173   5.648   4.149  2.4467  0.3939 -1.5012
  151ccc     C3 5119   8.288   5.726   4.299  0.8705  0.1402 -0.5571
  151ccc     H5 5120   8.378   5.684   4.344  1.2822  1.6533  0.0727
  151ccc     C4 5121   8.228   5.794   4.428  0.2529 -0.2422 -0.1668
  151ccc     H6 5122   8.321   5.791   4.217  1.8137  0.2840 -0.0692
  151ccc     H7 5123   8.302   5.847   4.489  2.0770 -1.4465 -1.2219
  151ccc     H8 5124   8.187   5.719   4.496 -1.3525  0.4384 -0.3396
  151ccc     N2 5125   8.103   5.883   4.395 -1.0960 -0.2395 -0.4872
  151ccc     C5 5126   8.158   6.003   4.317 -0.0905  0.7614  0.4109
  151ccc     C6 5127   8.017   5.929   4.519  0.3219  0.0698  0.5294
  151ccc     H9 5128   8.067   5.874   4.600  0.7207  0.1450  0.3394
  151ccc     C7 5129   7.868   5.907   4.495  0.4909 -0.3395 -0.2360
  151ccc    H10 5130   8.031   6.036   4.536  0.0391  0.0933  0.6177
  151ccc    H11 5131   7.829   5.965   4.410 -1.4826 -1.5783 -0.2461
  151ccc    H12 5132   7.804   5.945   4.576  0.4482 -0.7577 -0.0725
  151ccc     C8 5133   7.843   5.761   4.467 -0.2421 -0.1865 -0.0983
  151ccc     O2 5134   7.918   5.682   4.421 -0.7682 -0.2587 -0.3704
  151ccc    H13 5135   8.209   5.964   4.228 -1.7872  0.7488 -0.6007
  151ccc    H14 5136   8.237   6.054   4.374 -0.1446 -1.0043  2.1508
  151ccc     C9 5137   8.058   6.104   4.264  0.1655  0.7172 -0.5622
  151ccc    H15 5138   8.107   6.190   4.215  2.4693  0.7864  1.6086
  151ccc    H16 5139   8.009   6.154   4.348  1.6211  1.3333 -0.0320
  151ccc    C10 5140   7.952   6.045   4.173  0.1509 -0.2541 -0.2740
  151ccc     O4 5141   7.937   5.927   4.151  0.7000 -0.6714  0.2211
  151ccc    C11 5142   7.476   5.357   4.428  0.2576 -0.4459 -0.0076
  151ccc    C12 5143   7.428   5.485   4.359 -0.5733 -0.0864 -0.0164
  151ccc    H17 5144   7.435   5.347   4.530 -1.3287 -0.5830 -0.6386
  151ccc    C13 5145   7.509   5.612   4.404 -0.3635  0.0945  0.3438
  151ccc    C14 5146   7.659   5.595   4.427 -0.5766  0.0970  0.0153
  151ccc    C15 5147   7.668   5.466   4.512 -0.3259  0.3336  0.1229
  151ccc    H18 5148   7.706   5.568   4.332 -0.7649  1.5591 -0.5155
  151ccc    H19 5149   7.457   5.639   4.497  0.5564 -0.2969  0.9893
  151ccc    H20 5150   7.619   5.472   4.610 -2.2810  1.3044 -0.8549
  151ccc     O1 5151   7.799   5.418   4.531  0.1633 -0.4596  0.6697
  151ccc     O6 5152   7.492   5.718   4.311 -0.4407 -0.2582 -0.0931
  151ccc    C16 5153   7.432   5.227   4.349 -0.1103  0.4940  0.2559
  151ccc    H21 5154   7.462   5.796   4.360 -1.3203  2.2069 -4.1713
  151ccc    H22 5155   7.659   5.769   4.549  1.1273 -0.5708  1.1052
  151ccc    H23 5156   7.324   5.224   4.331  0.0479  0.7487 -0.8107
  151ccc    H24 5157   7.472   5.151   4.417 -0.7114  1.1663  1.3886
  151ccc     O7 5158   7.479   5.211   4.210  0.6674 -0.4271 -0.3842
  151ccc    H25 5159   7.438   5.131   4.173  2.1726 -0.9030 -1.1224
  151ccc     O8 5160   7.622   5.361   4.430  0.8832  0.4176 -0.2059
  151ccc    H26 5161   7.793   5.340   4.473 -2.3141 -1.4209  2.0681
  151ccc    H27 5162   7.460   5.474   4.254  0.1027 -0.8758  0.2587
  151ccc     O9 5163   7.295   5.513   4.372  0.0659 -0.3418 -0.0220
  151ccc    H28 5164   7.244   5.430   4.367  0.0199 -0.3201  0.0787
  151ccc     N3 5165   7.722   5.717   4.488 -0.1252 -0.3504 -0.4543
  151ccc    C17 5166   7.581   5.924   3.897  0.4267  1.0279 -0.0935
  151ccc    C18 5167   7.529   5.986   4.024  0.4276 -0.4395 -0.5337
  151ccc    H29 5168   7.627   5.827   3.918 -0.3102  0.6418 -0.2289
  151ccc    C19 5169   7.633   6.030   4.123 -0.6210 -0.2632 -0.8458
  151ccc    C20 5170   7.745   6.106   4.046  0.6887  0.1830 -0.8889
  151ccc    C21 5171   7.789   6.041   3.909 -0.0523 -0.1990  0.0917
  151ccc    H30 5172   7.707   6.205   4.016 -0.1379  0.4664  0.8933
  151ccc    H31 5173   7.676   5.935   4.159 -1.1909 -0.1338  0.2161
  151ccc    H32 5174   7.842   5.949   3.937 -0.1687  0.0266  1.0712
  151ccc    O10 5175   7.880   6.124   3.835  0.3681 -0.1208  0.2375
  151ccc    O11 5176   7.574   6.107   4.233  0.2256  0.4535  0.3999
  151ccc    C22 5177   7.472   5.896   3.797  0.2675 -0.3774 -0.6377
  151ccc    H33 5178   7.623   6.115   4.316  0.3153 -1.2604  0.5394
  151ccc    H34 5179   7.875   6.232   4.164  2.5679 -0.9869  1.5483
  151ccc    H35 5180   7.469   5.975   3.721  0.0174 -0.8920 -1.1672
  151ccc    H36 5181   7.376   5.909   3.848  1.0662  2.1434  0.3692
  151ccc    O12 5182   7.491   5.778   3.725 -0.0500  0.1810  0.3430
  151ccc    H37 5183   7.431   5.785   3.649  0.4254 -1.3287 -0.2143
  151ccc    O13 5184   7.670   6.015   3.831  0.3903  0.1127  0.2076
  151ccc    H38 5185   7.969   6.101   3.868  1.6628  2.3676 -1.2127
  151ccc    H39 5186   7.468   6.073   3.997  0.5259  0.1821  1.1456
  151ccc     O5 5187   7.456   5.878   4.094 -0.0012  0.2373 -0.2112
  151ccc    H40 5188   7.418   5.925   4.170 -0.5109  0.7086 -0.7489
  151ccc     N4 5189   7.867   6.135   4.131 -0.3859 -0.4167  0.2434
  151ccc    H41 5190   8.041   5.833   4.329 -1.5827 -2.1945  1.3516
  152ccc     N1 5191   7.486   6.465   3.844 -0.2113 -0.4880  0.1268
  152ccc     H4 5192   7.465   6.551   3.894  0.7299 -1.7056  2.7749
  152ccc     C3 5193   7.616   6.432   3.801 -0.7600 -0.2740  0.1553
  152ccc     H5 5194   7.677   6.523   3.799  0.0456 -0.7785  1.0123
  152ccc     C4 5195   7.625   6.368   3.660  0.2126 -0.4689  0.1021
  152ccc     H6 5196   7.657   6.363   3.876 -2.4395 -1.7807 -0.2335
  152ccc     H7 5197   7.604   6.450   3.590 -1.0268  1.2767  2.3466
  152ccc     H8 5198   7.555   6.283   3.659 -0.9286  0.4476 -1.1994
  152ccc     N2 5199   7.759   6.304   3.626  0.8328  0.3889 -0.1516
  152ccc     C5 5200   7.878   6.404   3.629  0.0088  0.7663 -0.5911
  152ccc     C6 5201   7.754   6.232   3.490  0.1083 -0.2136  0.3920
  152ccc     H9 5202   7.689   6.280   3.416 -0.2537  0.3155  1.0545
  152ccc     C7 5203   7.696   6.083   3.500 -0.7975  0.5784  0.3995
  152ccc    H10 5204   7.853   6.234   3.442  0.0294  2.6474  0.1744
  152ccc    H11 5205   7.642   6.047   3.411  0.3143  0.3081 -0.1859
  152ccc    H12 5206   7.619   6.059   3.574  0.6437 -0.3027  1.6635
  152ccc     C8 5207   7.814   5.979   3.524  0.1667  0.2646  0.6830
  152ccc     O2 5208   7.932   6.001   3.539 -0.2356 -0.0715 -0.1125
  152ccc    H13 5209   7.963   6.346   3.593  0.6295  1.2017  0.1489
  152ccc    H14 5210   7.898   6.424   3.735  0.1314  1.6013 -0.7621
  152ccc     C9 5211   7.869   6.531   3.541 -0.0579  0.2762  0.1528
  152ccc    H15 5212   7.939   6.607   3.578 -0.8579  1.0241  0.1760
  152ccc    H16 5213   7.778   6.587   3.567  0.5833  1.4021  0.0210
  152ccc    C10 5214   7.863   6.516   3.385 -0.2735 -0.0961 -0.1247
  152ccc     O4 5215   7.768   6.493   3.312 -0.2709  0.5051 -0.4852
  152ccc    C11 5216   7.912   5.463   3.682 -0.3101 -0.3979  0.3158
  152ccc    C12 5217   7.892   5.480   3.524  0.0199  0.0379  0.2614
  152ccc    H17 5218   7.818   5.415   3.710  0.2674 -1.4782  0.4663
  152ccc    C13 5219   7.801   5.596   3.495  0.5809 -0.3979  0.8033
  152ccc    C14 5220   7.859   5.732   3.561  0.0038  0.2445  0.3734
  152ccc    C15 5221   7.864   5.704   3.717 -0.1958  0.2805  0.1651
  152ccc    H18 5222   7.960   5.745   3.523 -0.5717  1.6078 -0.7755
  152ccc    H19 5223   7.709   5.571   3.549 -2.4848  1.1823 -3.1632
  152ccc    H20 5224   7.763   5.690   3.759  0.1335 -1.9815  0.3233
  152ccc     O1 5225   7.925   5.815   3.779  0.5298 -0.3393 -0.0658
  152ccc     O6 5226   7.770   5.601   3.353 -0.2936  0.0267  0.3805
  152ccc    C16 5227   8.037   5.382   3.711 -0.3266 -0.1963 -0.0097
  152ccc    H21 5228   7.710   5.676   3.339  1.2595  0.7965 -3.4485
  152ccc    H22 5229   7.671   5.843   3.527 -0.3766  0.3113  0.6064
  152ccc    H23 5230   8.124   5.444   3.685 -0.7181  1.0352  1.5161
  152ccc    H24 5231   8.040   5.287   3.656  1.3621 -0.4413  0.4348
  152ccc     O7 5232   8.044   5.339   3.853 -0.2481 -0.5650  0.0006
  152ccc    H25 5233   8.124   5.285   3.865  0.8224  0.9548  0.0829
  152ccc     O8 5234   7.941   5.591   3.748 -0.1429  0.2304  0.2487
  152ccc    H26 5235   7.894   5.886   3.719 -2.1998  0.3754  1.9817
  152ccc    H27 5236   7.988   5.485   3.471 -0.1459  1.6332  0.0681
  152ccc     O9 5237   7.819   5.362   3.481  0.0725  0.3125 -0.9923
  152ccc    H28 5238   7.779   5.376   3.393  3.6438  2.0294 -2.5462
  152ccc     N3 5239   7.772   5.856   3.533 -0.3596  0.1597  0.6733
  152ccc    C17 5240   7.951   6.426   2.911  0.3009  0.0044 -0.2673
  152ccc    C18 5241   8.000   6.570   2.953  0.0084 -0.1007 -0.0964
  152ccc    H29 5242   7.842   6.422   2.910  0.1761 -0.3846 -4.4190
  152ccc    C19 5243   7.966   6.606   3.100 -0.0743 -0.4139 -0.3301
  152ccc    C20 5244   8.018   6.490   3.189  0.8665 -0.4464 -0.3412
  152ccc    C21 5245   7.963   6.347   3.137  0.3013  0.2681  0.2125
  152ccc    H30 5246   8.127   6.494   3.177  1.2754 -1.0299  2.3782
  152ccc    H31 5247   7.857   6.617   3.103 -0.1327 -0.9468 -0.3932
  152ccc    H32 5248   7.854   6.346   3.138  0.3031 -0.3213  1.1575
  152ccc    O10 5249   8.030   6.246   3.217  0.3668  0.2250 -0.8489
  152ccc    O11 5250   8.025   6.728   3.137 -0.3249 -0.0872 -0.1541
  152ccc    C22 5251   8.005   6.392   2.769 -0.4261 -0.0407 -1.0694
  152ccc    H33 5252   7.992   6.748   3.227  0.2792  3.0738 -0.5357
  152ccc    H34 5253   8.074   6.529   3.395  0.3313  0.8832 -0.2452
  152ccc    H35 5254   8.109   6.357   2.769 -0.9864 -1.8043 -0.5132
  152ccc    H36 5255   8.001   6.480   2.704 -0.0664  0.7919  0.0014
  152ccc    O12 5256   7.925   6.289   2.708  0.2063  0.2943 -0.0823
  152ccc    H37 5257   7.978   6.265   2.629 -0.1787  0.2249 -0.3220
  152ccc    O13 5258   8.006   6.325   3.000  0.3936 -0.3851  0.2195
  152ccc    H38 5259   8.125   6.258   3.199  0.5351  0.1104 -0.0673
  152ccc    H39 5260   8.108   6.579   2.939  0.6140 -0.1847  3.5591
  152ccc     O5 5261   7.930   6.663   2.877 -0.4960  0.2527 -0.1899
  152ccc    H40 5262   7.957   6.750   2.912  1.9947 -1.3678  2.2989
  152ccc     N4 5263   7.989   6.518   3.340 -0.0292 -0.4204  0.5292
  152ccc    H41 5264   7.788   6.237   3.699 -0.3356 -1.4860 -1.3131
  153ccc     N1 5265   6.984   6.072   3.473 -0.3053 -0.0112  0.7368
  153ccc     H4 5266   6.889   6.038   3.483 -0.3437  0.0384  0.5402
  153ccc     C3 5267   7.078   6.002   3.389 -0.1696  0.4276 -0.0381
  153ccc     H5 5268   7.177   5.998   3.436 -0.2984  0.0031  0.2131
  153ccc     C4 5269   7.093   6.076   3.259 -0.3902 -0.0941 -0.3450
  153ccc     H6 5270   7.046   5.899   3.369  1.5560 -0.3633  0.9899
  153ccc     H7 5271   7.110   6.176   3.302 -3.2328 -0.3898  1.7592
  153ccc     H8 5272   6.995   6.079   3.212 -0.2532 -1.6408 -0.7935
  153ccc     N2 5273   7.196   6.038   3.157 -0.3240  0.2409 -0.7911
  153ccc     C5 5274   7.172   6.108   3.025 -0.5598 -0.9691 -0.2769
  153ccc     C6 5275   7.212   5.890   3.134  0.4892  0.0108  0.0351
  153ccc     H9 5276   7.296   5.884   3.063 -0.9907 -0.3498 -1.7509
  153ccc     C7 5277   7.095   5.800   3.086 -0.5817  0.7080  0.3241
  153ccc    H10 5278   7.252   5.857   3.231 -0.9794  2.9999  1.7889
  153ccc    H11 5279   7.065   5.828   2.984 -1.7039 -2.0155 -0.1773
  153ccc    H12 5280   7.002   5.822   3.141 -1.0850  1.7272 -0.8691
  153ccc     C8 5281   7.132   5.655   3.089  0.1131 -0.3613 -0.4655
  153ccc     O2 5282   7.110   5.578   3.184  0.2723 -0.6143  0.1496
  153ccc    H13 5283   7.078   6.063   2.989 -1.0933 -1.1348  1.2591
  153ccc    H14 5284   7.255   6.090   2.955 -1.8749 -0.4608 -2.0208
  153ccc     C9 5285   7.148   6.261   3.022 -0.8768  0.5785  0.6369
  153ccc    H15 5286   7.238   6.315   3.056 -0.4760 -0.1347  0.7317
  153ccc    H16 5287   7.070   6.280   3.097 -0.5038  0.3963  1.0779
  153ccc    C10 5288   7.109   6.308   2.885 -0.0240  1.0070 -0.2705
  153ccc     O4 5289   7.152   6.255   2.786 -0.6710 -0.3375 -0.1462
  153ccc    C11 5290   7.147   5.179   2.710  0.0925 -0.0225  0.3111
  153ccc    C12 5291   7.278   5.321   2.641 -0.0286  0.5296  0.6012
  153ccc    H17 5292   7.058   5.195   2.647  0.4564  0.1469 -0.1640
  153ccc    C13 5293   7.317   5.480   2.754 -0.4767  0.5512  0.3903
  153ccc    C14 5294   7.247   5.485   2.945  0.5205  0.0648  0.9300
  153ccc    C15 5295   7.123   5.336   3.005  0.3023 -0.1972 -0.0411
  153ccc    H18 5296   7.335   5.469   3.008  1.5070 -1.4205 -0.7261
  153ccc    H19 5297   7.256   5.554   2.701  0.4124  0.0687 -1.3738
  153ccc    H20 5298   7.024   5.375   3.031  0.9523  0.8786  0.9333
  153ccc     O1 5299   7.159   5.287   3.133  0.3278 -0.1892  0.2126
  153ccc     O6 5300   7.440   5.536   2.726 -0.3591 -0.0286 -0.1001
  153ccc    C16 5301   7.179   5.031   2.675 -0.1025  0.5703  0.0736
  153ccc    H21 5302   7.444   5.527   2.629 -0.7242  0.8407 -0.2037
  153ccc    H22 5303   7.212   5.688   2.905 -2.4503 -0.4063 -1.3119
  153ccc    H23 5304   7.279   4.988   2.688  0.7556  1.9099 -1.7122
  153ccc    H24 5305   7.159   5.042   2.568  1.9305  0.7468 -0.3274
  153ccc     O7 5306   7.083   4.951   2.735  0.8385  0.2165 -0.1006
  153ccc    H25 5307   7.071   4.975   2.828  0.5085  0.8654 -0.3046
  153ccc     O8 5308   7.089   5.195   2.890  0.4655  0.8183  0.5522
  153ccc    H26 5309   7.086   5.224   3.147  1.0107 -0.6718  1.8419
  153ccc    H27 5310   7.364   5.255   2.622 -1.0244 -0.5269 -0.4398
  153ccc     O9 5311   7.238   5.358   2.512  0.0613 -0.3665  0.5507
  153ccc    H28 5312   7.309   5.408   2.470  0.4863  0.6651  2.3975
  153ccc     N3 5313   7.192   5.619   2.978 -0.3356  0.4529  0.1995
  153ccc    C17 5314   6.934   6.795   3.007  0.0544  0.7363 -0.1137
  153ccc    C18 5315   6.826   6.681   3.054 -0.7185  0.2056 -0.0128
  153ccc    H29 5316   6.898   6.829   2.909 -0.2681 -0.3437 -0.3745
  153ccc    C19 5317   6.852   6.557   2.963 -0.5458 -0.1686 -0.5008
  153ccc    C20 5318   7.003   6.519   2.964  0.0126  0.5502 -0.5813
  153ccc    C21 5319   7.096   6.638   2.927  0.7581 -0.0623  0.0414
  153ccc    H30 5320   7.022   6.484   3.067 -1.5768 -0.9956 -0.7555
  153ccc    H31 5321   6.827   6.582   2.859  1.4387  2.5077 -0.4513
  153ccc    H32 5322   7.080   6.670   2.823  0.3052 -3.1901 -0.9333
  153ccc    O10 5323   7.232   6.608   2.946 -0.1453  0.2796 -0.0058
  153ccc    O11 5324   6.785   6.441   3.008 -0.7195  0.0477  0.1086
  153ccc    C22 5325   6.927   6.923   3.095  0.2145  0.6353 -0.1006
  153ccc    H33 5326   6.693   6.468   3.023 -0.4098  1.7169 -0.6586
  153ccc    H34 5327   7.009   6.439   2.769  3.1171 -0.2243 -0.4816
  153ccc    H35 5328   6.998   6.920   3.179  0.5469 -1.1605 -0.3908
  153ccc    H36 5329   6.827   6.948   3.131 -0.2813  1.5815 -2.0062
  153ccc    O12 5330   6.966   7.031   3.004  0.3875 -0.0619 -0.8114
  153ccc    H37 5331   7.058   7.024   2.973  0.1837 -0.6386 -1.3085
  153ccc    O13 5332   7.067   6.752   3.011 -0.2533  0.1192  0.6055
  153ccc    H38 5333   7.282   6.685   2.979  2.3783 -1.3760  0.2339
  153ccc    H39 5334   6.850   6.660   3.159 -1.4580 -2.6040 -0.3276
  153ccc     O5 5335   6.697   6.739   3.027  0.0790  0.3234  0.4139
  153ccc    H40 5336   6.624   6.692   3.069  1.7891 -1.7964  1.2014
  153ccc     N4 5337   7.028   6.413   2.865 -0.2797 -0.4114  0.2692
  153ccc    H41 5338   7.288   6.071   3.187 -0.2224 -1.6192  1.1684
  154ccc     N1 5339   6.944   3.151   4.704  0.2233 -0.1391  0.0107
  154ccc     H4 5340   7.029   3.099   4.723  0.1834 -0.3841 -0.4753
  154ccc     C3 5341   6.825   3.138   4.794  0.4631  0.2969 -0.4571
  154ccc     H5 5342   6.768   3.231   4.809  0.9634  0.7434 -1.2051
  154ccc     C4 5343   6.873   3.081   4.930  0.1557 -0.1630 -0.2825
  154ccc     H6 5344   6.757   3.069   4.743  1.1782  1.1582 -2.6995
  154ccc     H7 5345   6.911   2.978   4.923  2.2002  0.6235 -1.5722
  154ccc     H8 5346   6.786   3.076   4.997 -0.3265 -1.2235 -0.9434
  154ccc     N2 5347   6.981   3.162   5.002  0.4848 -0.1992 -0.4065
  154ccc     C5 5348   7.036   3.083   5.121  0.4141 -0.4289 -0.1848
  154ccc     C6 5349   6.926   3.303   5.036 -0.1729  0.1348  0.1159
  154ccc     H9 5350   7.012   3.362   5.069 -0.2636 -0.6696  1.9335
  154ccc     C7 5351   6.824   3.319   5.147  0.2810  0.2310 -0.5238
  154ccc    H10 5352   6.882   3.348   4.946 -0.2491 -0.6817 -0.2638
  154ccc    H11 5353   6.870   3.317   5.246  0.5514 -1.0798 -0.6556
  154ccc    H12 5354   6.754   3.235   5.146  0.3313  0.1563  0.9456
  154ccc     C8 5355   6.747   3.455   5.153 -0.1170  0.6530 -0.7116
  154ccc     O2 5356   6.749   3.539   5.066 -0.2823 -0.0156 -0.6384
  154ccc    H13 5357   7.089   3.005   5.066  1.2837  0.2267 -0.3025
  154ccc    H14 5358   6.952   3.039   5.176  1.1333 -0.9200  0.5220
  154ccc     C9 5359   7.148   3.156   5.197  0.2792  0.1789 -0.1136
  154ccc    H15 5360   7.106   3.228   5.268 -1.5470 -0.6104 -0.3254
  154ccc    H16 5361   7.219   3.204   5.129  0.4161  1.1539  0.6915
  154ccc    C10 5362   7.230   3.061   5.286  0.3245  0.1790 -0.0976
  154ccc     O4 5363   7.208   2.941   5.300  0.0254 -0.4253 -0.5667
  154ccc    C11 5364   6.316   3.654   5.407 -0.1744 -0.0525 -0.1017
  154ccc    C12 5365   6.451   3.730   5.450  0.2575 -0.0022 -0.4328
  154ccc    H17 5366   6.286   3.579   5.481  1.8181 -0.0778  0.7622
  154ccc    C13 5367   6.581   3.647   5.429  0.0614  0.5322 -0.0569
  154ccc    C14 5368   6.573   3.577   5.291  0.6155  0.7026  0.1631
  154ccc    C15 5369   6.443   3.496   5.269  0.4057 -1.0881  0.1385
  154ccc    H18 5370   6.567   3.660   5.220  0.6383  1.9060  1.5115
  154ccc    H19 5371   6.591   3.560   5.495 -0.8831 -0.3973 -1.0957
  154ccc    H20 5372   6.424   3.409   5.332 -3.2411  0.0603  0.8024
  154ccc     O1 5373   6.425   3.452   5.135 -0.4631 -0.3527 -0.3698
  154ccc     O6 5374   6.702   3.723   5.448 -0.4437 -0.1737 -0.3083
  154ccc    C16 5375   6.205   3.763   5.403  0.0862  0.1904 -0.3666
  154ccc    H21 5376   6.775   3.662   5.428 -0.7718 -0.0160 -2.1022
  154ccc    H22 5377   6.675   3.408   5.338  0.7435 -0.2220  0.1311
  154ccc    H23 5378   6.224   3.840   5.327  0.5516  1.6041  1.1172
  154ccc    H24 5379   6.190   3.810   5.501 -0.8168  0.3114 -0.5562
  154ccc     O7 5380   6.081   3.695   5.376  0.0431 -0.3944 -0.2236
  154ccc    H25 5381   6.063   3.678   5.470 -0.9517 -0.6118 -0.4467
  154ccc     O8 5382   6.337   3.588   5.280  0.1330 -0.3980 -0.2578
  154ccc    H26 5383   6.334   3.418   5.134 -1.4827  1.9266  2.1487
  154ccc    H27 5384   6.471   3.815   5.384  2.8080  0.2960  0.6195
  154ccc     O9 5385   6.439   3.771   5.583  0.0577  0.5066 -0.1042
  154ccc    H28 5386   6.526   3.808   5.606  0.9612 -1.5573  0.0124
  154ccc     N3 5387   6.690   3.484   5.272  0.0135  0.0716  0.2828
  154ccc    C17 5388   7.658   3.054   5.617 -0.2806  0.0003 -0.8314
  154ccc    C18 5389   7.515   3.076   5.684 -0.7185  0.2645  0.1678
  154ccc    H29 5390   7.696   3.150   5.579  2.0282 -1.2932 -2.0610
  154ccc    C19 5391   7.409   3.120   5.586  0.3692 -0.5719 -0.0637
  154ccc    C20 5392   7.420   3.044   5.448  0.0817 -0.3028  0.0897
  154ccc    C21 5393   7.566   3.023   5.398  0.7642 -0.0484  0.5138
  154ccc    H30 5394   7.379   2.942   5.457 -1.2890  0.0912 -1.2494
  154ccc    H31 5395   7.431   3.225   5.564 -0.1984 -0.7285 -1.5153
  154ccc    H32 5396   7.594   3.126   5.370  1.3864 -0.1688  0.6787
  154ccc    O10 5397   7.574   2.945   5.284 -0.4661  0.6229  0.2212
  154ccc    O11 5398   7.283   3.099   5.658  0.1788 -0.4725  0.4792
  154ccc    C22 5399   7.764   2.993   5.709 -0.0852  0.4554  0.1451
  154ccc    H33 5400   7.270   3.003   5.664  0.9521 -0.5313  1.2972
  154ccc    H34 5401   7.352   3.212   5.344 -2.3126 -0.4977 -2.1938
  154ccc    H35 5402   7.784   3.069   5.786  2.4986  1.2239 -1.1624
  154ccc    H36 5403   7.850   2.984   5.642  0.4837 -0.6003  0.9959
  154ccc    O12 5404   7.727   2.859   5.751  0.1609  0.0796  0.1903
  154ccc    H37 5405   7.663   2.879   5.822  1.0194 -0.2985  1.0859
  154ccc    O13 5406   7.651   2.975   5.501 -0.1367 -0.2714  0.7442
  154ccc    H38 5407   7.670   2.945   5.268 -0.5513 -0.5475 -0.3772
  154ccc    H39 5408   7.484   2.980   5.728 -0.0260 -0.6488 -1.2693
  154ccc     O5 5409   7.523   3.171   5.788  0.0722 -0.0614  0.2378
  154ccc    H40 5410   7.456   3.158   5.857 -0.5633 -1.3688 -0.5975
  154ccc     N4 5411   7.336   3.112   5.350 -0.0246 -0.8413 -0.7033
  154ccc    H41 5412   7.060   3.173   4.936  1.6790 -0.8317  0.8503
  155ccc     N1 5413   6.668   3.530   4.125  0.2386  1.1131  0.1881
  155ccc     H4 5414   6.664   3.467   4.045 -0.4241  2.4404 -0.8549
  155ccc     C3 5415   6.540   3.570   4.177 -0.4038 -0.2083  0.4244
  155ccc     H5 5416   6.546   3.664   4.232 -1.5947 -0.0551  0.3317
  155ccc     C4 5417   6.485   3.459   4.267 -0.0584  0.0788  0.4925
  155ccc     H6 5418   6.468   3.590   4.097 -0.0812  0.2280  0.2439
  155ccc     H7 5419   6.494   3.363   4.213  0.1767  0.4853 -0.1996
  155ccc     H8 5420   6.378   3.473   4.287 -0.3524  2.3689 -2.0928
  155ccc     N2 5421   6.568   3.441   4.390  0.8203  0.2240  0.7230
  155ccc     C5 5422   6.538   3.303   4.467  0.2864 -0.2482 -0.0976
  155ccc     C6 5423   6.542   3.554   4.491 -0.5389  0.8993  0.4030
  155ccc     H9 5424   6.554   3.650   4.439  1.2475 -1.0626 -3.1309
  155ccc     C7 5425   6.640   3.561   4.607  0.1802 -0.2653  0.8147
  155ccc    H10 5426   6.441   3.539   4.532  0.2840 -4.2680  1.2293
  155ccc    H11 5427   6.745   3.553   4.575  1.2966  4.0524  2.7417
  155ccc    H12 5428   6.627   3.477   4.676  1.9335  0.5416  2.2078
  155ccc     C8 5429   6.641   3.694   4.670  0.0580 -0.0173  0.3140
  155ccc     O2 5430   6.709   3.790   4.627  0.0539  0.3626 -0.4542
  155ccc    H13 5431   6.433   3.300   4.501 -0.5253 -3.9990 -2.3356
  155ccc    H14 5432   6.594   3.293   4.561  0.1942  2.2793  0.2965
  155ccc     C9 5433   6.546   3.176   4.387  0.8079  0.6700  0.6020
  155ccc    H15 5434   6.454   3.169   4.327  0.2199  3.1125  1.1075
  155ccc    H16 5435   6.540   3.089   4.454  1.5803 -0.7020 -1.0244
  155ccc    C10 5436   6.672   3.154   4.305  0.2845 -0.0847  0.5117
  155ccc     O4 5437   6.763   3.231   4.300  0.3478 -0.3790 -0.0363
  155ccc    C11 5438   6.407   4.013   5.046  0.7388 -1.1062 -0.8849
  155ccc    C12 5439   6.558   3.969   5.059 -0.0444 -0.1649  0.3225
  155ccc    H17 5440   6.354   3.936   5.102  0.3848 -0.4478 -0.3118
  155ccc    C13 5441   6.578   3.827   4.997  0.2246 -0.3275  1.0003
  155ccc    C14 5442   6.542   3.838   4.848 -0.1470  0.1375  0.2562
  155ccc    C15 5443   6.399   3.893   4.830  0.6779  0.6029  0.9722
  155ccc    H18 5444   6.610   3.909   4.800  0.8233  0.2821  1.7912
  155ccc    H19 5445   6.503   3.761   5.043  0.1963 -0.7191  0.3975
  155ccc    H20 5446   6.343   3.812   4.877  1.1232 -1.5161 -1.8716
  155ccc     O1 5447   6.368   3.915   4.690 -0.3306 -0.4866  0.1405
  155ccc     O6 5448   6.715   3.796   5.017  0.4511  0.6699  0.0355
  155ccc    C16 5449   6.383   4.152   5.110 -0.3156 -0.2091  0.1162
  155ccc    H21 5450   6.716   3.699   5.021 -2.9829  0.5261  3.5918
  155ccc    H22 5451   6.498   3.647   4.820 -0.5007  1.8338  1.1932
  155ccc    H23 5452   6.417   4.145   5.214  0.0728 -1.1807 -0.0619
  155ccc    H24 5453   6.280   4.189   5.104  0.7398  2.8888 -1.4041
  155ccc     O7 5454   6.470   4.251   5.037  0.1290  1.0838 -0.4066
  155ccc    H25 5455   6.461   4.241   4.941 -0.0074  0.7988 -0.3652
  155ccc     O8 5456   6.368   4.011   4.904 -0.1200 -0.1573  0.1096
  155ccc    H26 5457   6.286   3.967   4.698 -0.2799 -0.4068  0.1423
  155ccc    H27 5458   6.626   4.039   5.009  1.3514 -1.6275  0.1064
  155ccc     O9 5459   6.589   3.966   5.195 -0.1793 -0.0234 -0.6001
  155ccc    H28 5460   6.676   3.921   5.203 -0.9242 -1.7110 -1.5033
  155ccc     N3 5461   6.567   3.709   4.778  0.8017 -0.1057  0.2692
  155ccc    C17 5462   6.634   2.619   4.345  0.3366  0.6558  0.1962
  155ccc    C18 5463   6.687   2.712   4.459 -0.4966  0.1677  0.3075
  155ccc    H29 5464   6.728   2.588   4.297 -0.8603 -1.6504 -0.8091
  155ccc    C19 5465   6.740   2.845   4.408  0.4369  0.3199  0.0740
  155ccc    C20 5466   6.648   2.902   4.295  0.0816 -0.2603  0.1947
  155ccc    C21 5467   6.617   2.800   4.188  0.4110  0.0729 -0.2917
  155ccc    H30 5468   6.551   2.923   4.344 -0.7272  1.1160 -1.8551
  155ccc    H31 5469   6.841   2.819   4.374  0.9531 -0.4378  2.0437
  155ccc    H32 5470   6.706   2.761   4.137  0.0837 -0.7740 -0.2416
  155ccc    O10 5471   6.532   2.849   4.089  0.7743 -0.0332  0.5678
  155ccc    O11 5472   6.759   2.944   4.518  0.2143 -0.0239  0.0390
  155ccc    C22 5473   6.563   2.502   4.409 -0.4971 -0.0204 -0.0079
  155ccc    H33 5474   6.838   2.903   4.558 -0.6686 -0.4132  1.4746
  155ccc    H34 5475   6.767   3.030   4.179 -1.6042  1.7027 -2.6048
  155ccc    H35 5476   6.631   2.466   4.487  0.5436  0.8293 -0.4999
  155ccc    H36 5477   6.560   2.418   4.338  0.7297 -1.4025  1.5058
  155ccc    O12 5478   6.431   2.528   4.465 -0.3293  0.5718 -0.6443
  155ccc    H37 5479   6.415   2.472   4.543 -2.6712  0.2237 -1.2825
  155ccc    O13 5480   6.548   2.690   4.254 -0.5743  0.7121  0.3500
  155ccc    H38 5481   6.440   2.826   4.113  0.5507 -0.0440 -0.2495
  155ccc    H39 5482   6.607   2.724   4.532  0.2239  0.1856  1.1176
  155ccc     O5 5483   6.794   2.647   4.526 -0.1473 -0.3902 -0.6908
  155ccc    H40 5484   6.775   2.596   4.607  2.0903  0.3598  0.4102
  155ccc     N4 5485   6.688   3.036   4.243  0.4606  0.0399  0.3051
  155ccc    H41 5486   6.666   3.441   4.357 -0.3101 -2.0521 -3.1846
  156ccc     N1 5487   7.338   4.129   4.903 -0.2533 -0.0417  0.1497
  156ccc     H4 5488   7.302   4.166   4.990 -2.0556  3.1709 -1.7642
  156ccc     C3 5489   7.256   4.033   4.829 -0.0978  0.6308 -0.4258
  156ccc     H5 5490   7.190   4.076   4.752  0.2784  0.0910 -1.0617
  156ccc     C4 5491   7.165   3.979   4.941 -0.5524  0.4444 -0.3978
  156ccc     H6 5492   7.317   3.958   4.777 -0.9320 -0.2039 -0.2193
  156ccc     H7 5493   7.122   4.052   5.011  0.3891  2.3534 -1.7142
  156ccc     H8 5494   7.229   3.908   4.995 -0.5539 -1.5727 -2.8355
  156ccc     N2 5495   7.036   3.910   4.907  0.2595  0.8771  0.3966
  156ccc     C5 5496   7.060   3.782   4.820 -0.7188  0.9108  0.2731
  156ccc     C6 5497   6.928   4.006   4.852 -0.0181  0.1736  0.3898
  156ccc     H9 5498   6.956   4.034   4.750 -2.9623  0.6394 -0.4085
  156ccc     C7 5499   6.872   4.129   4.932 -0.1452 -0.9909 -0.4557
  156ccc    H10 5500   6.843   3.937   4.842  0.5995 -0.5903  0.3398
  156ccc    H11 5501   6.844   4.099   5.034  1.6372 -1.4551 -0.0591
  156ccc    H12 5502   6.787   4.177   4.884 -0.7584  0.2672  1.7556
  156ccc     C8 5503   6.967   4.246   4.944  0.8902 -0.0132  0.4021
  156ccc     O2 5504   7.011   4.306   4.843  0.2655  0.5139 -0.1133
  156ccc    H13 5505   7.144   3.788   4.749  0.1114 -2.7471  0.7371
  156ccc    H14 5506   6.972   3.768   4.755 -0.2523  1.8021 -0.5780
  156ccc     C9 5507   7.065   3.644   4.902 -0.3643  0.0993  0.6985
  156ccc    H15 5508   6.963   3.610   4.921 -0.7177  0.6518 -0.1349
  156ccc    H16 5509   7.111   3.651   5.002  2.9302  3.0226 -0.7845
  156ccc    C10 5510   7.137   3.533   4.822 -0.0058 -0.5275  0.6824
  156ccc     O4 5511   7.085   3.440   4.770  0.1507  0.0916  0.1985
  156ccc    C11 5512   7.160   4.588   5.294 -0.4267  0.2030 -0.4460
  156ccc    C12 5513   7.262   4.475   5.260  0.6849  0.5392 -0.2498
  156ccc    H17 5514   7.108   4.542   5.378  1.0129 -5.7571 -2.3236
  156ccc    C13 5515   7.175   4.350   5.211  0.1760 -0.0523 -0.0019
  156ccc    C14 5516   7.077   4.397   5.105 -1.2588  0.2669  0.3770
  156ccc    C15 5517   6.984   4.506   5.152 -0.5987 -0.1742  0.3925
  156ccc    H18 5518   7.134   4.425   5.015 -0.5183  2.4945  1.4842
  156ccc    H19 5519   7.124   4.314   5.301 -0.3797  0.0893 -0.2563
  156ccc    H20 5520   6.928   4.461   5.235 -2.9748  0.4189 -0.8239
  156ccc     O1 5521   6.896   4.542   5.053 -0.5656 -0.3704  0.0776
  156ccc     O6 5522   7.261   4.252   5.158 -0.6610  0.1528  0.5926
  156ccc    C16 5523   7.225   4.726   5.336 -0.0341  0.5999 -0.1174
  156ccc    H21 5524   7.315   4.237   5.238 -0.2278  0.3294  0.3359
  156ccc    H22 5525   6.969   4.222   5.144 -1.6231  0.4861  0.1843
  156ccc    H23 5526   7.299   4.710   5.416  0.5938 -0.4334 -0.8718
  156ccc    H24 5527   7.146   4.792   5.373 -1.1789  0.2393 -1.7910
  156ccc     O7 5528   7.295   4.775   5.221 -0.2923 -0.7382 -0.1524
  156ccc    H25 5529   7.225   4.791   5.155 -1.4384 -0.6168  1.0486
  156ccc     O8 5530   7.067   4.616   5.192 -0.1342 -0.3487  0.3423
  156ccc    H26 5531   6.818   4.485   5.068 -0.9505  0.0062 -0.4795
  156ccc    H27 5532   7.324   4.511   5.177 -0.8528 -0.2644 -1.8320
  156ccc     O9 5533   7.346   4.441   5.378 -0.3948 -0.1845 -0.1551
  156ccc    H28 5534   7.288   4.443   5.456  0.0024 -0.0692  0.1436
  156ccc     N3 5535   7.010   4.275   5.066 -0.7802  0.5906  0.6827
  156ccc    C17 5536   7.617   3.734   4.969  0.2117  0.2035  0.2322
  156ccc    C18 5537   7.569   3.792   4.831  0.3076 -0.1048 -0.0604
  156ccc    H29 5538   7.672   3.641   4.950  0.3780  0.1629  0.8987
  156ccc    C19 5539   7.474   3.696   4.762 -0.2126 -0.2041 -0.3946
  156ccc    C20 5540   7.362   3.646   4.863 -0.0638  0.3615  0.0171
  156ccc    C21 5541   7.418   3.594   5.002 -0.3753 -0.3800  0.2885
  156ccc    H30 5542   7.305   3.734   4.894  0.8322  0.8374  0.3462
  156ccc    H31 5543   7.524   3.600   4.740 -0.9143 -0.9104  1.0027
  156ccc    H32 5544   7.464   3.499   4.975  3.4382  1.3301 -0.0213
  156ccc    O10 5545   7.329   3.578   5.109 -0.2164  0.3121 -0.3206
  156ccc    O11 5546   7.409   3.758   4.649 -0.1282 -0.0694 -0.0002
  156ccc    C22 5547   7.709   3.827   5.049 -0.7103  0.5060  0.4861
  156ccc    H33 5548   7.474   3.812   4.600  0.2894 -1.3277 -0.9038
  156ccc    H34 5549   7.315   3.486   4.732 -0.0420 -0.6239  1.0944
  156ccc    H35 5550   7.808   3.842   5.004 -0.0053 -0.8198  1.5124
  156ccc    H36 5551   7.740   3.774   5.140  2.6792 -1.2816 -1.4978
  156ccc    O12 5552   7.647   3.955   5.085  0.0803  0.7808 -0.6897
  156ccc    H37 5553   7.701   3.997   5.154  0.8990 -0.6231 -0.4221
  156ccc    O13 5554   7.513   3.687   5.055 -0.0842  0.6120  0.3597
  156ccc    H38 5555   7.380   3.548   5.186 -0.2240 -0.9102 -0.7635
  156ccc    H39 5556   7.514   3.885   4.848  0.0225  0.1021 -1.8988
  156ccc     O5 5557   7.679   3.818   4.745 -0.1645 -0.2892 -0.2719
  156ccc    H40 5558   7.649   3.810   4.653  1.0502 -0.2336 -0.6954
  156ccc     N4 5559   7.269   3.554   4.792 -0.2628  0.2432 -0.0227
  156ccc    H41 5560   6.998   3.879   4.998 -1.2297 -0.0644 -0.5004
  157ccc     N1 5561   7.997   3.979   4.744 -0.4922  0.1740 -0.1456
  157ccc     H4 5562   8.012   3.933   4.833 -3.0137  0.7197  0.6603
  157ccc     C3 5563   8.057   3.925   4.626 -0.5037 -0.2721  0.8497
  157ccc     H5 5564   8.063   3.993   4.539  1.4593 -2.3064 -0.7203
  157ccc     C4 5565   7.978   3.804   4.577  0.1948  0.1215 -0.0723
  157ccc     H6 5566   8.155   3.887   4.656 -1.3452 -1.5370  2.0833
  157ccc     H7 5567   7.880   3.845   4.549 -0.3546  0.6487  2.3799
  157ccc     H8 5568   7.950   3.746   4.666  0.8777  0.5985  0.4622
  157ccc     N2 5569   8.036   3.718   4.459  0.3316  0.2285 -0.3041
  157ccc     C5 5570   7.911   3.649   4.388 -0.1523  0.5151  0.0521
  157ccc     C6 5571   8.142   3.623   4.514  0.0829 -0.7714 -0.0096
  157ccc     H9 5572   8.220   3.687   4.556 -0.4091 -0.3126  0.2276
  157ccc     C7 5573   8.191   3.518   4.405  0.4748 -0.1075  0.2669
  157ccc    H10 5574   8.102   3.550   4.586 -1.3160 -1.8276 -1.7550
  157ccc    H11 5575   8.119   3.444   4.367  0.9061 -1.0433  1.2129
  157ccc    H12 5576   8.264   3.453   4.456  1.0799 -1.2278 -1.8634
  157ccc     C8 5577   8.266   3.578   4.287 -0.1096  0.0271 -0.2949
  157ccc     O2 5578   8.223   3.656   4.207 -0.6590  0.0993  0.0990
  157ccc    H13 5579   7.957   3.594   4.305  0.2180  1.5157 -0.4294
  157ccc    H14 5580   7.851   3.726   4.337 -0.1172 -0.7276 -1.9735
  157ccc     C9 5581   7.822   3.555   4.484 -0.3133  0.0992  0.2788
  157ccc    H15 5582   7.731   3.616   4.490 -0.8694 -0.7845  1.1315
  157ccc    H16 5583   7.868   3.546   4.583  1.6500 -1.2351 -0.7007
  157ccc    C10 5584   7.779   3.422   4.420  0.3671 -0.1607 -0.8351
  157ccc     O4 5585   7.826   3.380   4.320  0.2282  0.1424 -0.0204
  157ccc    C11 5586   8.601   3.726   3.945  0.4201  0.0134  0.8643
  157ccc    C12 5587   8.656   3.759   4.086  0.2276  0.7098  0.2137
  157ccc    H17 5588   8.539   3.810   3.911  2.9567  1.6820  0.0863
  157ccc    C13 5589   8.551   3.728   4.197  0.8533 -0.2318  0.3622
  157ccc    C14 5590   8.489   3.583   4.179 -0.1092 -0.0136 -0.0253
  157ccc    C15 5591   8.429   3.564   4.039  0.3380  0.3573  0.1946
  157ccc    H18 5592   8.570   3.510   4.196 -1.7573 -1.7441  0.8145
  157ccc    H19 5593   8.462   3.791   4.193 -0.7390 -2.4207 -0.8000
  157ccc    H20 5594   8.344   3.630   4.020 -1.7240 -2.2169  0.0463
  157ccc     O1 5595   8.387   3.428   4.009 -0.1375 -0.4023 -0.7001
  157ccc     O6 5596   8.609   3.743   4.327  0.2847  0.1256 -0.1673
  157ccc    C16 5597   8.713   3.730   3.829  1.1553 -0.4034 -0.2490
  157ccc    H21 5598   8.564   3.823   4.360  0.2412 -0.8131  2.2416
  157ccc    H22 5599   8.425   3.457   4.332  1.3223  1.1834  1.1491
  157ccc    H23 5600   8.759   3.632   3.811 -0.1482 -0.6582 -2.7213
  157ccc    H24 5601   8.799   3.794   3.852  2.4382 -1.7627 -1.1044
  157ccc     O7 5602   8.653   3.774   3.707 -0.1888  0.4132  0.5129
  157ccc    H25 5603   8.697   3.737   3.628  0.6555  1.4313  0.4769
  157ccc     O8 5604   8.536   3.593   3.946  0.5254  0.4802  0.5422
  157ccc    H26 5605   8.377   3.391   4.098  0.3564  2.1085  0.4886
  157ccc    H27 5606   8.735   3.684   4.099 -0.8195 -0.5029 -0.1999
  157ccc     O9 5607   8.698   3.895   4.104 -0.1230 -0.1315 -0.1942
  157ccc    H28 5608   8.793   3.891   4.082 -0.3765  0.2931 -1.4594
  157ccc     N3 5609   8.395   3.542   4.284 -0.3020  0.1086  0.1502
  157ccc    C17 5610   7.644   3.166   4.858 -0.1497 -0.2206  0.3017
  157ccc    C18 5611   7.777   3.231   4.833  0.3905 -0.5769 -0.0047
  157ccc    H29 5612   7.649   3.064   4.819  0.7435  0.1853 -0.7076
  157ccc    C19 5613   7.789   3.251   4.685 -0.5465  0.7222  0.5609
  157ccc    C20 5614   7.670   3.328   4.626 -0.4604 -0.1578  0.5993
  157ccc    C21 5615   7.536   3.257   4.656  0.7452 -0.3482 -0.0162
  157ccc    H30 5616   7.660   3.423   4.679  1.4860  0.6334 -0.3267
  157ccc    H31 5617   7.786   3.148   4.646  1.5468  0.3165  1.3459
  157ccc    H32 5618   7.518   3.168   4.595 -1.9019 -1.1890  1.7725
  157ccc    O10 5619   7.427   3.345   4.633 -0.2062  0.2635 -0.0206
  157ccc    O11 5620   7.922   3.304   4.649 -0.4238  0.2653  0.2703
  157ccc    C22 5621   7.621   3.155   5.009  0.5504 -0.6630 -0.4606
  157ccc    H33 5622   7.940   3.364   4.724  1.2024 -0.3449  0.3839
  157ccc    H34 5623   7.691   3.247   4.441 -0.3226 -1.8714  2.1376
  157ccc    H35 5624   7.705   3.098   5.050  1.0174 -0.1365 -0.6708
  157ccc    H36 5625   7.534   3.091   5.022  1.5046 -1.8842  0.0562
  157ccc    O12 5626   7.622   3.292   5.063 -0.3373 -0.3770  0.7007
  157ccc    H37 5627   7.677   3.288   5.143 -0.7366  0.3718  1.0212
  157ccc    O13 5628   7.533   3.240   4.797 -0.0807 -0.8988  0.3202
  157ccc    H38 5629   7.419   3.344   4.536 -1.2891  0.5942  0.0581
  157ccc    H39 5630   7.770   3.330   4.879 -0.2245 -0.8723  0.5573
  157ccc     O5 5631   7.885   3.156   4.880 -0.0319  0.6040 -0.2812
  157ccc    H40 5632   7.967   3.207   4.882  0.4980 -0.2222 -0.5163
  157ccc     N4 5633   7.695   3.341   4.482 -0.7909 -0.5117 -0.7146
  157ccc    H41 5634   8.088   3.781   4.396 -0.7913  1.5690  0.0597
  158ccc     N1 5635   4.427   6.168   0.817  0.0906  0.1429  0.4951
  158ccc     H4 5636   4.327   6.187   0.818  0.2127  0.8046  0.7833
  158ccc     C3 5637   4.492   6.154   0.946 -0.7051 -0.0180 -0.1344
  158ccc     H5 5638   4.560   6.069   0.942  0.3162  0.8033 -2.8669
  158ccc     C4 5639   4.399   6.132   1.067 -0.1662 -0.0466 -0.0908
  158ccc     H6 5640   4.557   6.241   0.965 -2.0155  1.5261 -2.1973
  158ccc     H7 5641   4.456   6.130   1.161 -1.2491 -0.1732  0.5791
  158ccc     H8 5642   4.358   6.031   1.059  1.1662 -0.5675 -0.7035
  158ccc     N2 5643   4.280   6.225   1.104 -0.0239  0.0022  0.1081
  158ccc     C5 5644   4.334   6.367   1.131 -0.1935  1.0337  0.1609
  158ccc     C6 5645   4.215   6.172   1.231 -0.1498  0.2754 -0.4707
  158ccc     H9 5646   4.285   6.162   1.315 -1.4382 -1.0900  0.4782
  158ccc     C7 5647   4.142   6.038   1.229  0.3045 -0.0487 -0.2792
  158ccc    H10 5648   4.146   6.249   1.268  2.9851  2.0685  2.2213
  158ccc    H11 5649   4.200   5.950   1.200 -0.4922 -1.0240  0.9827
  158ccc    H12 5650   4.058   6.054   1.161 -0.5083 -0.6192  0.5689
  158ccc     C8 5651   4.081   6.007   1.367  0.4049 -0.1056 -0.4679
  158ccc     O2 5652   4.118   6.055   1.475  0.3623 -0.1007  0.2109
  158ccc    H13 5653   4.392   6.405   1.046 -0.2062  1.4437  0.3298
  158ccc    H14 5654   4.407   6.360   1.213  1.0843 -1.7753 -1.1021
  158ccc     C9 5655   4.223   6.476   1.165 -0.2334  0.6645 -0.0277
  158ccc    H15 5656   4.201   6.460   1.271 -1.8476 -0.6144 -0.4955
  158ccc    H16 5657   4.128   6.448   1.117 -1.6796 -0.8052  3.3741
  158ccc    C10 5658   4.269   6.621   1.133 -0.1643  0.4817  0.0369
  158ccc     O4 5659   4.385   6.655   1.105  0.6005 -0.0618 -0.0688
  158ccc    C11 5660   3.811   5.897   1.756 -0.0322 -0.2841 -0.3170
  158ccc    C12 5661   3.725   5.964   1.647 -0.1434 -0.6831  0.0545
  158ccc    H17 5662   3.879   5.973   1.797 -0.4612 -0.3374  0.5034
  158ccc    C13 5663   3.809   5.996   1.518  0.5870  0.2460 -0.3839
  158ccc    C14 5664   3.903   5.878   1.476  0.6491 -0.2351 -0.4340
  158ccc    C15 5665   3.975   5.824   1.602  0.5503  0.2062 -0.4853
  158ccc    H18 5666   3.841   5.796   1.437  1.4127 -0.2714 -1.6087
  158ccc    H19 5667   3.873   6.083   1.541  2.0704 -0.7420 -0.6550
  158ccc    H20 5668   4.041   5.898   1.648 -0.7340 -0.4793  2.7203
  158ccc     O1 5669   4.043   5.703   1.573 -0.5120 -0.5116  0.1882
  158ccc     O6 5670   3.727   6.031   1.404  0.3536 -0.1760 -0.1691
  158ccc    C16 5671   3.736   5.841   1.881  0.2806 -0.1117 -0.2563
  158ccc    H21 5672   3.677   5.950   1.385  0.8109 -0.9513  1.7474
  158ccc    H22 5673   3.943   5.890   1.270  0.8441  1.6876 -0.5554
  158ccc    H23 5674   3.715   5.734   1.864 -0.9800 -0.1742  1.4307
  158ccc    H24 5675   3.645   5.898   1.903  0.0468 -0.5439 -0.0823
  158ccc     O7 5676   3.817   5.853   1.996  0.7204 -0.6506 -0.5124
  158ccc    H25 5677   3.772   5.808   2.070 -0.0891 -1.5413 -1.5187
  158ccc     O8 5678   3.890   5.790   1.707  0.0214  0.3195  0.0647
  158ccc    H26 5679   4.105   5.723   1.501  0.4803  1.6032  1.5323
  158ccc    H27 5680   3.648   5.893   1.616  0.0403 -0.3803 -1.1266
  158ccc     O9 5681   3.670   6.085   1.702 -0.1908 -0.8528  0.4976
  158ccc    H28 5682   3.619   6.134   1.634  1.7551 -0.8877 -1.0863
  158ccc     N3 5683   3.987   5.916   1.358  0.4648  0.2643  0.0858
  158ccc    C17 5684   3.891   6.867   1.406  0.3516  0.8527  0.7544
  158ccc    C18 5685   3.842   6.826   1.268  0.3464  0.0689 -0.3535
  158ccc    H29 5686   3.940   6.964   1.390  0.8220  0.2235 -2.3528
  158ccc    C19 5687   3.945   6.800   1.165 -0.4608  0.3923  0.1866
  158ccc    C20 5688   4.057   6.718   1.235 -0.5148 -0.3348  0.1115
  158ccc    C21 5689   4.102   6.772   1.364 -0.2085 -0.4990  0.4734
  158ccc    H30 5690   4.011   6.620   1.252  1.0326 -1.6697 -2.6284
  158ccc    H31 5691   3.997   6.895   1.146 -1.3329  1.0479  0.9636
  158ccc    H32 5692   4.148   6.871   1.355 -1.6593  0.4258  2.4482
  158ccc    O10 5693   4.194   6.679   1.425  0.0550 -0.3388  0.1380
  158ccc    O11 5694   3.893   6.743   1.045  0.1280 -0.0156 -0.5047
  158ccc    C22 5695   3.786   6.875   1.519 -0.2185 -0.0076  0.5494
  158ccc    H33 5696   3.836   6.671   1.079 -0.7638  0.4432 -0.9813
  158ccc    H34 5697   4.196   6.806   1.111  0.7294 -0.8429 -2.2158
  158ccc    H35 5698   3.702   6.939   1.490  0.2823 -0.1959 -1.4259
  158ccc    H36 5699   3.833   6.917   1.609  0.9892 -0.2264  0.0372
  158ccc    O12 5700   3.736   6.743   1.550 -0.5059 -0.2806 -0.0912
  158ccc    H37 5701   3.810   6.694   1.590 -0.7917 -1.9011 -1.4197
  158ccc    O13 5702   3.986   6.769   1.446 -0.4618 -0.0490 -0.5967
  158ccc    H38 5703   4.189   6.706   1.519  0.9741 -0.1831  0.1477
  158ccc    H39 5704   3.787   6.732   1.287  2.5309 -0.9721  1.2407
  158ccc     O5 5705   3.755   6.928   1.218  0.2578 -0.4242  0.6614
  158ccc    H40 5706   3.692   6.896   1.151 -3.5068  1.8815  2.7456
  158ccc     N4 5707   4.172   6.711   1.137  0.2340  0.1549  1.4975
  158ccc    H41 5708   4.211   6.227   1.028 -0.8715 -0.3116  0.8419
  159ccc     N1 5709   4.535   5.886  -0.060 -0.2772  0.1177  0.3650
  159ccc     H4 5710   4.501   5.818   0.007  2.5303  0.3437  2.1895
  159ccc     C3 5711   4.605   5.845  -0.183  0.4852  0.4670 -0.0015
  159ccc     H5 5712   4.694   5.909  -0.178  1.1819 -0.5455  1.4975
  159ccc     C4 5713   4.514   5.875  -0.304  0.6476 -0.3676  0.5505
  159ccc     H6 5714   4.626   5.738  -0.179 -3.3561 -0.4960 -1.2033
  159ccc     H7 5715   4.562   5.850  -0.399  0.4807  0.5893  0.2136
  159ccc     H8 5716   4.489   5.981  -0.306 -3.0445 -1.1097 -1.8016
  159ccc     N2 5717   4.375   5.811  -0.301  0.2544 -0.1079 -0.4184
  159ccc     C5 5718   4.375   5.652  -0.291 -0.1685 -0.4158 -0.0954
  159ccc     C6 5719   4.280   5.857  -0.414 -0.9623 -0.4671 -0.3374
  159ccc     H9 5720   4.316   5.825  -0.513 -0.6795  2.4951 -1.2765
  159ccc     C7 5721   4.249   6.005  -0.428 -0.3250  0.1869  0.3126
  159ccc    H10 5722   4.186   5.804  -0.392  0.0818 -1.7551  1.2802
  159ccc    H11 5723   4.169   6.020  -0.501  0.6594  1.9328 -0.4546
  159ccc    H12 5724   4.339   6.055  -0.466 -0.0834 -0.0559  0.5551
  159ccc     C8 5725   4.215   6.067  -0.292 -0.1735  0.0293  0.2548
  159ccc     O2 5726   4.257   6.032  -0.183 -0.8417 -0.5807 -0.2718
  159ccc    H13 5727   4.270   5.619  -0.288 -0.3935 -0.3805 -3.7617
  159ccc    H14 5728   4.427   5.619  -0.200 -1.2678  1.0699  1.1156
  159ccc     C9 5729   4.436   5.577  -0.414 -0.2243  0.4581  0.1877
  159ccc    H15 5730   4.538   5.611  -0.438  0.5388 -2.6059 -1.3486
  159ccc    H16 5731   4.379   5.597  -0.505  1.5658  2.8446 -0.5353
  159ccc    C10 5732   4.445   5.425  -0.387 -0.2412  0.3115 -0.6864
  159ccc     O4 5733   4.541   5.363  -0.342 -0.7750  0.0060  0.3206
  159ccc    C11 5734   4.117   6.573  -0.150  0.1566 -0.6005  0.7448
  159ccc    C12 5735   3.983   6.507  -0.182  0.1283  0.0104  0.1980
  159ccc    H17 5736   4.166   6.614  -0.239 -0.8716 -1.1079 -0.0632
  159ccc    C13 5737   3.994   6.378  -0.262  0.1187  0.2979 -0.0546
  159ccc    C14 5738   4.105   6.283  -0.215  0.4008 -0.0669 -0.4536
  159ccc    C15 5739   4.232   6.359  -0.171 -0.4027 -0.2022  0.4483
  159ccc    H18 5740   4.064   6.249  -0.119 -0.9579  2.0656 -0.2040
  159ccc    H19 5741   4.027   6.413  -0.360 -0.1955 -0.3810 -0.4089
  159ccc    H20 5742   4.287   6.381  -0.263  0.3856 -2.9215  0.1805
  159ccc     O1 5743   4.320   6.279  -0.090  0.4631  0.6434 -0.1988
  159ccc     O6 5744   3.869   6.305  -0.271 -0.0428  0.3233  0.1561
  159ccc    C16 5745   4.105   6.692  -0.053 -0.0635 -0.6110 -0.0335
  159ccc    H21 5746   3.829   6.319  -0.359 -0.0951 -1.5979 -0.1642
  159ccc    H22 5747   4.130   6.216  -0.405  1.8594  2.6780  0.7436
  159ccc    H23 5748   4.065   6.661   0.045  2.0113  0.8337  1.3535
  159ccc    H24 5749   4.031   6.762  -0.094  0.1221  0.1997  0.9773
  159ccc     O7 5750   4.239   6.749  -0.037 -0.2975  0.0099 -0.0963
  159ccc    H25 5751   4.296   6.689   0.013 -0.0688  0.6998  0.4910
  159ccc     O8 5752   4.209   6.480  -0.094 -0.2594  0.0279  0.3805
  159ccc    H26 5753   4.304   6.191  -0.129 -0.2928  0.7075 -0.0475
  159ccc    H27 5754   3.933   6.487  -0.086  1.6591  0.1516  1.0665
  159ccc     O9 5755   3.906   6.593  -0.261  0.0128  0.0576  0.3711
  159ccc    H28 5756   3.816   6.558  -0.274 -0.9462  0.9422  3.6424
  159ccc     N3 5757   4.137   6.172  -0.313  0.5984  0.0059 -0.3028
  159ccc    C17 5758   4.182   4.880  -0.494 -0.0092  0.1175  0.4648
  159ccc    C18 5759   4.376   4.917  -0.495  0.6753  1.0531 -0.6958
  159ccc    H29 5760   4.169   4.885  -0.603  0.1571  1.3929  0.4893
  159ccc    C19 5761   4.444   5.086  -0.433  0.4691  0.0052 -0.0960
  159ccc    C20 5762   4.315   5.217  -0.345  0.0794 -0.0293  0.3151
  159ccc    C21 5763   4.117   5.177  -0.354  0.7120  0.5064  0.7379
  159ccc    H30 5764   4.327   5.213  -0.237 -0.0684 -4.1098  0.3339
  159ccc    H31 5765   4.459   5.142  -0.525 -1.9191 -1.5185 -1.5263
  159ccc    H32 5766   4.086   5.249  -0.431  0.1827 -1.0643 -0.5863
  159ccc    O10 5767   4.028   5.215  -0.248  0.2694  0.1698 -0.4543
  159ccc    O11 5768   4.573   5.095  -0.375 -0.3247  0.2229 -0.0504
  159ccc    C22 5769   4.135   4.736  -0.462 -0.5451  0.1588 -0.7420
  159ccc    H33 5770   4.592   5.191  -0.368  3.1315 -0.3502  0.2160
  159ccc    H34 5771   4.242   5.405  -0.410 -1.0844 -1.0389  1.4244
  159ccc    H35 5772   4.145   4.687  -0.559  0.9577  1.3226 -1.2176
  159ccc    H36 5773   4.031   4.743  -0.427 -0.1354  1.0452  0.3609
  159ccc    O12 5774   4.221   4.676  -0.365 -0.2281 -0.3671 -0.2007
  159ccc    H37 5775   4.182   4.587  -0.354 -1.0190  0.2076  2.0165
  159ccc    O13 5776   4.072   5.005  -0.422  0.2996  0.3165  0.4670
  159ccc    H38 5777   3.945   5.253  -0.283 -0.9109 -0.5113  1.4258
  159ccc    H39 5778   4.425   4.832  -0.446 -1.6761  0.3076  0.5055
  159ccc     O5 5779   4.428   4.896  -0.620  0.0441 -0.4899 -0.1449
  159ccc    H40 5780   4.524   4.908  -0.617  0.0535 -0.7140  1.4222
  159ccc     N4 5781   4.332   5.357  -0.407 -0.2641  0.1814 -0.8620
  159ccc    H41 5782   4.339   5.841  -0.210  0.6978  0.1339 -0.3193
  160ccc     N1 5783   2.673   6.368  -0.042 -0.0252  0.3169  0.4174
  160ccc     H4 5784   2.766   6.404  -0.063 -0.2693  2.3757  2.4892
  160ccc     C3 5785   2.594   6.278  -0.127  0.2640 -0.4595  0.8177
  160ccc     H5 5786   2.546   6.203  -0.062  0.1888  0.0553  1.3714
  160ccc     C4 5787   2.686   6.201  -0.228  0.4342 -0.3669 -0.0255
  160ccc     H6 5788   2.525   6.342  -0.183  1.5216  0.5481  0.3663
  160ccc     H7 5789   2.762   6.149  -0.167 -0.5573 -0.4328  1.2077
  160ccc     H8 5790   2.739   6.276  -0.287  0.9387  1.0354  2.0687
  160ccc     N2 5791   2.626   6.092  -0.314 -0.5950  0.2040 -0.2385
  160ccc     C5 5792   2.538   6.142  -0.426  0.3566 -1.0056  0.0237
  160ccc     C6 5793   2.532   5.997  -0.239  0.1072  0.1471  0.3191
  160ccc     H9 5794   2.581   5.999  -0.141 -1.9836  1.8990  1.4219
  160ccc     C7 5795   2.505   5.854  -0.289  0.6065  0.5365 -1.0256
  160ccc    H10 5796   2.438   6.053  -0.241 -0.4434 -0.7588 -2.2074
  160ccc    H11 5797   2.598   5.796  -0.282 -0.5481 -1.2305  0.7161
  160ccc    H12 5798   2.470   5.845  -0.392 -2.1379 -0.3058 -0.1197
  160ccc     C8 5799   2.423   5.775  -0.182 -0.5641  0.3330  0.8929
  160ccc     O2 5800   2.422   5.803  -0.062  0.2458  0.2805 -0.1952
  160ccc    H13 5801   2.460   6.210  -0.390  0.0890 -1.4877  0.3613
  160ccc    H14 5802   2.486   6.058  -0.473  2.3918 -0.2918 -3.9122
  160ccc     C9 5803   2.615   6.199  -0.550  0.3968 -0.1292  0.1682
  160ccc    H15 5804   2.668   6.290  -0.518 -1.5299  0.9713  0.4031
  160ccc    H16 5805   2.542   6.230  -0.626  1.0389 -1.5756 -1.0882
  160ccc    C10 5806   2.713   6.102  -0.611  0.4813  0.0199  0.1339
  160ccc     O4 5807   2.745   5.997  -0.562 -1.0824  1.0302 -0.4580
  160ccc    C11 5808   2.159   5.296  -0.136 -0.4233  0.5636  0.0392
  160ccc    C12 5809   2.317   5.288  -0.134  0.7369  0.0840  0.2096
  160ccc    H17 5810   2.137   5.273  -0.241  1.1691 -1.9788  0.1814
  160ccc    C13 5811   2.387   5.411  -0.205  0.1128  0.1054 -0.6905
  160ccc    C14 5812   2.321   5.547  -0.160 -0.3438  0.9066 -0.0569
  160ccc    C15 5813   2.172   5.534  -0.177  0.6648 -0.2423 -0.0370
  160ccc    H18 5814   2.350   5.562  -0.055  1.6366 -2.4853  0.0227
  160ccc    H19 5815   2.378   5.396  -0.313  1.0811 -1.1283 -0.6240
  160ccc    H20 5816   2.142   5.513  -0.281  0.8144  0.8750 -0.3177
  160ccc     O1 5817   2.110   5.652  -0.129  0.0465 -0.0827  0.3825
  160ccc     O6 5818   2.523   5.418  -0.170 -0.3813  0.1060  0.0307
  160ccc    C16 5819   2.091   5.191  -0.048 -0.1265  0.0459  0.4533
  160ccc    H21 5820   2.552   5.329  -0.196 -3.0800 -0.3585 -1.8268
  160ccc    H22 5821   2.385   5.651  -0.334  2.1209 -1.4819  0.2132
  160ccc    H23 5822   2.070   5.100  -0.106  0.8169 -0.6619  1.1824
  160ccc    H24 5823   1.993   5.235  -0.027  0.4784  1.9400 -0.4835
  160ccc     O7 5824   2.152   5.166   0.074 -0.5625 -0.6840  0.0331
  160ccc    H25 5825   2.132   5.230   0.145 -0.0768 -0.4036 -0.0725
  160ccc     O8 5826   2.123   5.427  -0.094 -0.3524 -0.2364 -0.4547
  160ccc    H26 5827   2.016   5.628  -0.116  0.5767 -1.2812  2.6405
  160ccc    H27 5828   2.347   5.289  -0.028  0.9789 -0.1941  0.1438
  160ccc     O9 5829   2.348   5.171  -0.203  0.0338 -0.3608  0.3171
  160ccc    H28 5830   2.414   5.122  -0.151  3.1387  1.9591 -1.1490
  160ccc     N3 5831   2.382   5.661  -0.233  0.0812  0.2869  0.0525
  160ccc    C17 5832   3.088   6.089  -1.004  0.2548  0.0430 -0.6667
  160ccc    C18 5833   3.130   6.128  -0.859 -0.3445  0.2852 -0.1320
  160ccc    H29 5834   3.062   6.184  -1.051  1.5453  1.6723  1.7096
  160ccc    C19 5835   3.015   6.177  -0.770  0.7622  0.6005  0.4992
  160ccc    C20 5836   2.887   6.083  -0.782 -0.7512 -0.4125  0.8262
  160ccc    C21 5837   2.860   6.054  -0.932 -0.6380 -0.7797 -0.9103
  160ccc    H30 5838   2.915   5.986  -0.740 -1.0868 -0.7727  0.2207
  160ccc    H31 5839   2.985   6.274  -0.812 -0.4421  0.1155  0.1901
  160ccc    H32 5840   2.837   6.147  -0.985  1.4358 -0.6101 -1.6175
  160ccc    O10 5841   2.753   5.967  -0.942  0.4361 -0.0366 -0.1489
  160ccc    O11 5842   3.066   6.195  -0.633  0.1302  0.3756  0.2101
  160ccc    C22 5843   3.204   6.026  -1.082  0.5072 -0.5959  0.0257
  160ccc    H33 5844   3.071   6.287  -0.602 -0.0324 -0.7811  4.3027
  160ccc    H34 5845   2.762   6.246  -0.751  0.1139  0.4478  0.3667
  160ccc    H35 5846   3.283   6.099  -1.099 -0.2349  0.2195 -0.0303
  160ccc    H36 5847   3.178   6.019  -1.188 -0.0003 -0.3759  0.1271
  160ccc    O12 5848   3.249   5.895  -1.042  0.1395 -0.5184  0.7724
  160ccc    H37 5849   3.289   5.865  -1.126  2.4176  0.9489  1.2448
  160ccc    O13 5850   2.976   6.000  -0.996 -0.0613 -0.5147 -0.4226
  160ccc    H38 5851   2.675   6.016  -0.910 -0.9048 -1.9777 -0.2743
  160ccc    H39 5852   3.175   6.040  -0.813 -0.6181 -0.8153 -1.8682
  160ccc     O5 5853   3.238   6.221  -0.855 -0.0715 -0.3918 -0.7334
  160ccc    H40 5854   3.266   6.231  -0.763  2.8496 -5.3071 -0.7187
  160ccc     N4 5855   2.779   6.151  -0.719 -0.0625  0.1243 -0.4478
  160ccc    H41 5856   2.703   6.029  -0.342  0.7352  1.0401  1.3327
  161ccc     N1 5857   3.255   6.832  -0.004 -0.4505 -0.0454  0.1519
  161ccc     H4 5858   3.270   6.754  -0.067 -2.3224 -1.0059  0.8332
  161ccc     C3 5859   3.328   6.958  -0.026  0.7879  0.2541 -0.1263
  161ccc     H5 5860   3.309   7.012   0.067 -3.6467  0.9246 -1.1776
  161ccc     C4 5861   3.247   7.041  -0.129 -0.2715  0.1233  0.2982
  161ccc     H6 5862   3.436   6.951  -0.042  0.6651 -1.5584 -0.3211
  161ccc     H7 5863   3.139   7.050  -0.114 -0.4687  1.9688 -1.6994
  161ccc     H8 5864   3.261   7.009  -0.233  0.0320  0.8413  0.1147
  161ccc     N2 5865   3.308   7.177  -0.138  0.8221 -0.4518  0.1056
  161ccc     C5 5866   3.193   7.270  -0.193  0.2840  0.6436 -0.5946
  161ccc     C6 5867   3.422   7.188  -0.235 -0.1725 -0.6952 -0.1708
  161ccc     H9 5868   3.468   7.088  -0.230 -2.3961 -1.9114 -2.2320
  161ccc     C7 5869   3.536   7.290  -0.199 -0.4145  0.1944  0.4332
  161ccc    H10 5870   3.383   7.210  -0.335  0.1833  0.5845 -0.0423
  161ccc    H11 5871   3.506   7.392  -0.228 -1.3777 -0.4436 -0.9276
  161ccc    H12 5872   3.623   7.275  -0.264 -2.3002  0.7820 -2.4167
  161ccc     C8 5873   3.574   7.288  -0.055 -0.1754 -0.0473  0.0275
  161ccc     O2 5874   3.539   7.214   0.036 -0.1748 -0.0799  0.3564
  161ccc    H13 5875   3.114   7.265  -0.117 -0.9488  0.7137 -1.8388
  161ccc    H14 5876   3.165   7.213  -0.282  1.9962 -0.8839 -0.2213
  161ccc     C9 5877   3.217   7.419  -0.230 -0.4431  0.2556  0.1253
  161ccc    H15 5878   3.120   7.450  -0.270  0.3603  0.8894 -1.4420
  161ccc    H16 5879   3.299   7.429  -0.303  0.6576 -0.9268  1.1445
  161ccc    C10 5880   3.253   7.498  -0.105 -0.8636 -0.1636 -0.8263
  161ccc     O4 5881   3.316   7.458  -0.014  0.2991  0.8645 -0.0284
  161ccc    C11 5882   3.825   7.618   0.297 -0.0087  0.3305  0.2114
  161ccc    C12 5883   3.681   7.655   0.261  0.9072  0.1147 -0.6225
  161ccc    H17 5884   3.901   7.675   0.242 -0.0842 -0.7925 -1.1106
  161ccc    C13 5885   3.655   7.599   0.118 -0.1522 -0.8488 -0.6464
  161ccc    C14 5886   3.687   7.451   0.106  0.2453  0.7124  0.5244
  161ccc    C15 5887   3.835   7.427   0.135 -0.0514 -0.8703 -0.2107
  161ccc    H18 5888   3.633   7.395   0.183  0.8568 -0.1079  0.3625
  161ccc    H19 5889   3.714   7.649   0.040 -0.8867 -0.8280 -1.2036
  161ccc    H20 5890   3.892   7.485   0.062 -0.5706 -1.6459 -1.2550
  161ccc     O1 5891   3.878   7.295   0.125  0.2987 -0.3604  0.3027
  161ccc     O6 5892   3.513   7.622   0.101  0.2031 -0.2736  0.0179
  161ccc    C16 5893   3.849   7.650   0.443  0.6813  0.4461 -0.2637
  161ccc    H21 5894   3.483   7.581   0.018  0.8151  0.2284 -0.4627
  161ccc    H22 5895   3.686   7.455  -0.105 -0.0797  1.8255  0.4076
  161ccc    H23 5896   3.831   7.758   0.445  0.4935  0.4359 -0.9523
  161ccc    H24 5897   3.954   7.633   0.469  0.7661  1.8981  0.4446
  161ccc     O7 5898   3.761   7.583   0.528  0.4417 -0.2698  0.0087
  161ccc    H25 5899   3.683   7.641   0.530  0.0361 -0.8128 -0.0231
  161ccc     O8 5900   3.853   7.472   0.273 -0.3914 -0.3699 -0.6146
  161ccc    H26 5901   3.954   7.292   0.064  0.1334  0.7808  0.0074
  161ccc    H27 5902   3.615   7.595   0.324 -1.8693  3.3278 -0.1798
  161ccc     O9 5903   3.645   7.797   0.267  0.5333  0.0831 -0.9785
  161ccc    H28 5904   3.557   7.819   0.302  0.3141 -2.1571 -0.0200
  161ccc     N3 5905   3.637   7.407  -0.030  0.0568  0.0943 -0.5533
  161ccc    C17 5906   3.151   7.994  -0.275 -0.1935 -0.1728 -0.0199
  161ccc    C18 5907   3.261   7.906  -0.344  0.5577  0.3695 -0.2379
  161ccc    H29 5908   3.198   8.045  -0.191 -0.7953  2.7103 -1.3125
  161ccc    C19 5909   3.294   7.791  -0.251 -0.1265 -0.4165  0.5027
  161ccc    C20 5910   3.170   7.714  -0.192 -0.0386 -0.3638 -0.0227
  161ccc    C21 5911   3.064   7.816  -0.130  0.1110 -0.1033  0.6573
  161ccc    H30 5912   3.124   7.665  -0.279 -0.3816  0.9034 -0.5795
  161ccc    H31 5913   3.359   7.840  -0.177  0.8921 -0.2680 -0.4561
  161ccc    H32 5914   3.081   7.862  -0.032  0.7605  0.5510  0.2558
  161ccc    O10 5915   2.947   7.746  -0.103 -0.0892  0.3164 -0.4396
  161ccc    O11 5916   3.369   7.692  -0.325  0.0951  0.0007  0.1362
  161ccc    C22 5917   3.084   8.101  -0.369 -0.9376 -0.8118  0.6294
  161ccc    H33 5918   3.406   7.744  -0.398 -0.1498 -2.7670 -2.1101
  161ccc    H34 5919   3.256   7.673  -0.008  2.2739  0.5289 -1.7330
  161ccc    H35 5920   3.149   8.190  -0.364  0.0145 -1.4237 -0.3733
  161ccc    H36 5921   2.981   8.119  -0.336 -1.6389 -2.4303 -0.5431
  161ccc    O12 5922   3.074   8.043  -0.501  0.7905 -0.2794 -0.0740
  161ccc    H37 5923   3.002   7.978  -0.490 -0.0266  0.7082  0.7498
  161ccc    O13 5924   3.040   7.911  -0.228 -0.6982 -0.4087 -0.1057
  161ccc    H38 5925   2.885   7.815  -0.074 -0.9963 -0.7764  0.3202
  161ccc    H39 5926   3.213   7.863  -0.433 -3.5118  0.0213  1.8505
  161ccc     O5 5927   3.368   7.986  -0.374 -0.6375 -0.3929  0.8287
  161ccc    H40 5928   3.384   7.974  -0.469 -0.9515  1.5317  0.4919
  161ccc     N4 5929   3.215   7.621  -0.085  0.3600  0.0661 -0.4942
  161ccc    H41 5930   3.336   7.216  -0.047 -0.7765 -0.0146  0.4405
  162ccc     N1 5931   2.871   4.956   0.630 -0.1053 -0.6128 -0.0902
  162ccc     H4 5932   2.941   4.909   0.685  0.6937  0.6734  0.0537
  162ccc     C3 5933   2.758   5.024   0.691  0.8601  0.2802 -0.3029
  162ccc     H5 5934   2.703   5.080   0.614  1.9689  2.5891  0.4986
  162ccc     C4 5935   2.796   5.125   0.797 -0.2038  0.1151 -0.5289
  162ccc     H6 5936   2.701   4.947   0.745 -0.0284  1.5724  0.6620
  162ccc     H7 5937   2.885   5.086   0.847 -1.3320 -1.1935  0.5153
  162ccc     H8 5938   2.714   5.129   0.870  0.7256  3.6328  0.5268
  162ccc     N2 5939   2.825   5.276   0.756 -0.4592  0.2174  0.6142
  162ccc     C5 5940   2.938   5.300   0.648 -0.0360  0.0383  0.8958
  162ccc     C6 5941   2.865   5.354   0.881 -0.6315  0.3691 -0.5355
  162ccc     H9 5942   2.788   5.327   0.954  1.1256 -0.9686  0.8973
  162ccc     C7 5943   2.874   5.509   0.861 -0.0361  0.0411  0.6019
  162ccc    H10 5944   2.956   5.309   0.922 -2.3615 -1.1574  1.9024
  162ccc    H11 5945   2.970   5.515   0.808 -0.2585 -3.2075 -0.4208
  162ccc    H12 5946   2.882   5.559   0.958  0.7145  1.5647 -0.2011
  162ccc     C8 5947   2.762   5.566   0.775 -0.0644 -0.7850  0.7718
  162ccc     O2 5948   2.781   5.582   0.657 -0.3326  0.4123  0.2723
  162ccc    H13 5949   2.936   5.406   0.620  0.8399 -0.7091 -2.4464
  162ccc    H14 5950   2.900   5.253   0.556  1.7079 -0.8612  0.5885
  162ccc     C9 5951   3.087   5.264   0.672 -0.1669  0.0625 -0.3544
  162ccc    H15 5952   3.092   5.160   0.707 -2.7359 -0.3027 -0.8629
  162ccc    H16 5953   3.127   5.332   0.747  1.0716 -1.0360  0.0194
  162ccc    C10 5954   3.172   5.264   0.546 -0.5988 -0.8283 -1.0734
  162ccc     O4 5955   3.124   5.244   0.437 -0.1081 -0.3296  0.0177
  162ccc    C11 5956   2.216   5.529   0.768  0.0523  0.1912  0.4087
  162ccc    C12 5957   2.269   5.681   0.770  0.2312  0.2630  0.2921
  162ccc    H17 5958   2.210   5.501   0.874 -1.1165  0.1869  0.3552
  162ccc    C13 5959   2.416   5.690   0.820  0.3027  0.5713 -0.3421
  162ccc    C14 5960   2.516   5.578   0.770  0.6728  0.3458 -0.0983
  162ccc    C15 5961   2.440   5.435   0.788 -0.0074 -0.6839  0.1025
  162ccc    H18 5962   2.517   5.601   0.663 -5.3425  3.2691  0.0666
  162ccc    H19 5963   2.403   5.683   0.929 -0.1012 -0.2875 -0.4365
  162ccc    H20 5964   2.416   5.410   0.891 -3.2229  1.1566 -0.0462
  162ccc     O1 5965   2.516   5.324   0.738  0.2692 -0.1334 -0.0809
  162ccc     O6 5966   2.464   5.825   0.783  0.3622 -0.2819 -0.3514
  162ccc    C16 5967   2.081   5.526   0.694 -0.4874  0.8258  0.4508
  162ccc    H21 5968   2.385   5.881   0.771  0.8034  0.5065  0.3314
  162ccc    H22 5969   2.635   5.594   0.938 -1.0163 -0.0320 -0.1416
  162ccc    H23 5970   2.109   5.555   0.592  0.8426 -0.2709  0.4769
  162ccc    H24 5971   2.014   5.608   0.723  0.9683  1.9054  0.8974
  162ccc     O7 5972   2.011   5.397   0.686  0.8112  0.2459  0.2120
  162ccc    H25 5973   1.946   5.410   0.614  0.7738 -0.1863  0.1689
  162ccc     O8 5974   2.320   5.437   0.710 -0.2115  0.0771  0.3775
  162ccc    H26 5975   2.444   5.258   0.733 -0.1357  0.1688  1.4165
  162ccc    H27 5976   2.270   5.709   0.664 -0.9714 -1.0535 -0.0974
  162ccc     O9 5977   2.190   5.767   0.849  0.6581  0.2297  0.0661
  162ccc    H28 5978   2.130   5.815   0.789  0.5040  1.0751  0.8760
  162ccc     N3 5979   2.645   5.588   0.837  0.2061 -0.6962  0.0036
  162ccc    C17 5980   3.664   5.293   0.348  0.9505  0.6290 -0.0433
  162ccc    C18 5981   3.565   5.176   0.326 -0.1809  0.3983 -0.2129
  162ccc    H29 5982   3.745   5.263   0.416  0.4254 -0.9774 -0.0691
  162ccc    C19 5983   3.476   5.156   0.449 -0.2983  0.2619  0.3558
  162ccc    C20 5984   3.401   5.290   0.469  0.4493  0.5308 -0.5091
  162ccc    C21 5985   3.513   5.383   0.509 -0.5919  0.3337 -0.3405
  162ccc    H30 5986   3.363   5.319   0.370 -2.0946  0.8059  0.4863
  162ccc    H31 5987   3.538   5.138   0.538 -0.0418 -0.1952  0.0885
  162ccc    H32 5988   3.567   5.342   0.595 -1.3057  1.2117  0.5582
  162ccc    O10 5989   3.467   5.505   0.562 -0.1089 -0.4946  0.0956
  162ccc    O11 5990   3.392   5.041   0.431 -0.3092 -0.3110  0.8005
  162ccc    C22 5991   3.730   5.349   0.224 -0.0688 -0.2169  0.4537
  162ccc    H33 5992   3.374   5.005   0.520  0.7587 -2.5825  0.1785
  162ccc    H34 5993   3.336   5.280   0.667  2.0357 -1.2592 -0.6331
  162ccc    H35 5994   3.796   5.272   0.181  0.2268  0.9909 -1.3548
  162ccc    H36 5995   3.791   5.436   0.251  0.3234  0.1708 -1.5426
  162ccc    O12 5996   3.638   5.364   0.113 -0.1994  0.5833  0.0369
  162ccc    H37 5997   3.612   5.458   0.108  0.2075  0.7408  0.6952
  162ccc    O13 5998   3.594   5.408   0.397 -0.1128  0.8736  0.1144
  162ccc    H38 5999   3.453   5.550   0.477  1.0842  4.1431  2.0590
  162ccc    H39 6000   3.502   5.194   0.238  0.0981 -1.3415 -0.7996
  162ccc     O5 6001   3.636   5.054   0.306 -0.4549  0.0160 -0.3160
  162ccc    H40 6002   3.572   4.983   0.287  0.0331 -0.5678  0.1733
  162ccc     N4 6003   3.297   5.287   0.573  0.2556 -0.6643  0.1179
  162ccc    H41 6004   2.733   5.303   0.719 -0.6680 -0.9362  0.2431
  163ccc     N1 6005   3.056   5.218   0.151  0.2131  0.0558 -0.3927
  163ccc     H4 6006   3.091   5.244   0.243 -2.0630  1.5960  0.1255
  163ccc     C3 6007   2.940   5.297   0.110  0.2605  0.1071  0.6070
  163ccc     H5 6008   2.975   5.379   0.047  0.0161  0.4975  0.9765
  163ccc     C4 6009   2.874   5.362   0.234 -0.3515 -0.0021  0.3323
  163ccc     H6 6010   2.870   5.234   0.055 -3.5902  2.9347  1.8821
  163ccc     H7 6011   2.946   5.433   0.278  0.9310  0.2193 -1.9579
  163ccc     H8 6012   2.837   5.293   0.310 -2.5104  0.1608 -0.4856
  163ccc     N2 6013   2.749   5.446   0.204  0.7060 -0.8303 -0.1035
  163ccc     C5 6014   2.633   5.364   0.163 -0.4385  0.1004  0.1987
  163ccc     C6 6015   2.789   5.559   0.104 -0.0988  0.2109 -0.1373
  163ccc     H9 6016   2.889   5.594   0.133  0.2636  0.1593 -1.2758
  163ccc     C7 6017   2.682   5.668   0.080 -0.1229 -0.6051 -0.7998
  163ccc    H10 6018   2.800   5.506   0.009  2.3054  2.3359 -1.1438
  163ccc    H11 6019   2.586   5.617   0.061  0.0528 -1.4804  0.5090
  163ccc    H12 6020   2.717   5.735   0.001  2.6693  1.3977  1.8832
  163ccc     C8 6021   2.658   5.757   0.199 -0.4815 -0.1061 -0.0326
  163ccc     O2 6022   2.708   5.740   0.308  0.4046  0.7157  0.0542
  163ccc    H13 6023   2.654   5.333   0.060 -0.7978 -0.8700  0.4088
  163ccc    H14 6024   2.546   5.430   0.159 -1.3593 -0.8983  2.1587
  163ccc     C9 6025   2.591   5.246   0.251 -0.6844  0.2416 -0.2832
  163ccc    H15 6026   2.675   5.176   0.258  2.3815  3.3873 -2.0475
  163ccc    H16 6027   2.500   5.197   0.215 -1.3038  0.2093  1.2287
  163ccc    C10 6028   2.569   5.297   0.396  0.8169 -0.1817 -0.1641
  163ccc     O4 6029   2.655   5.305   0.484 -0.4826 -0.5703  0.4881
  163ccc    C11 6030   2.599   6.135   0.508  0.4857  0.2369  0.2407
  163ccc    C12 6031   2.651   6.184   0.374  0.2346 -0.5196  0.4115
  163ccc    H17 6032   2.675   6.077   0.561  0.1671 -0.6495 -0.2703
  163ccc    C13 6033   2.672   6.067   0.277  0.2016 -0.2103  0.4748
  163ccc    C14 6034   2.554   5.974   0.271 -0.1453  0.3906 -0.4693
  163ccc    C15 6035   2.504   5.928   0.410 -0.0772  0.1732  0.3717
  163ccc    H18 6036   2.474   6.033   0.226  1.2876  0.0505 -3.8124
  163ccc    H19 6037   2.758   6.007   0.311 -0.2466 -0.9366  0.3361
  163ccc    H20 6038   2.576   5.860   0.458  1.1053  0.5493 -0.7884
  163ccc     O1 6039   2.374   5.864   0.391 -0.4449  0.6511 -0.3759
  163ccc     O6 6040   2.699   6.125   0.145 -0.3499  0.2429 -0.0272
  163ccc    C16 6041   2.553   6.253   0.589 -0.0825 -0.5930 -0.9527
  163ccc    H21 6042   2.785   6.091   0.118 -0.6978 -1.3857  0.8229
  163ccc    H22 6043   2.499   5.854   0.102 -0.5073  0.2697  0.4019
  163ccc    H23 6044   2.464   6.292   0.540 -0.5098  0.6155  0.7242
  163ccc    H24 6045   2.630   6.331   0.590  0.6471 -1.2938  0.6397
  163ccc     O7 6046   2.521   6.211   0.717  0.2827 -0.0652 -0.6298
  163ccc    H25 6047   2.463   6.133   0.715  0.3069 -0.0978 -0.2032
  163ccc     O8 6048   2.483   6.047   0.480  0.0123 -0.5327 -0.2970
  163ccc    H26 6049   2.333   5.900   0.310 -2.0972 -2.3114 -1.0256
  163ccc    H27 6050   2.585   6.257   0.327  2.0089 -0.4316 -2.2215
  163ccc     O9 6051   2.786   6.246   0.381 -0.5316  0.5289  0.3708
  163ccc    H28 6052   2.839   6.200   0.449 -1.3433  1.8273  1.9347
  163ccc     N3 6053   2.569   5.856   0.175  0.5981  0.7461 -0.6382
  163ccc    C17 6054   2.045   5.437   0.310 -0.2102  0.2569  0.0898
  163ccc    C18 6055   2.158   5.530   0.259 -0.1957  0.2350 -0.0505
  163ccc    H29 6056   2.014   5.477   0.407 -1.5483 -0.6769  0.0717
  163ccc    C19 6057   2.290   5.509   0.334  0.1504 -0.4165 -0.3917
  163ccc    C20 6058   2.327   5.362   0.353 -0.3588  0.4538  0.0962
  163ccc    C21 6059   2.202   5.274   0.395  0.0418 -0.0801 -0.7925
  163ccc    H30 6060   2.358   5.333   0.252 -0.7710  2.7333 -0.7537
  163ccc    H31 6061   2.269   5.540   0.437  0.6174  0.3798 -0.5274
  163ccc    H32 6062   2.168   5.296   0.497 -1.5484 -1.3621 -1.0026
  163ccc    O10 6063   2.229   5.145   0.366  0.4136  0.2232 -0.4669
  163ccc    O11 6064   2.393   5.582   0.269 -0.1575  0.8900 -0.0825
  163ccc    C22 6065   1.924   5.440   0.211 -0.3412  0.1730  0.0585
  163ccc    H33 6066   2.403   5.657   0.329 -1.2870  1.0846 -0.1246
  163ccc    H34 6067   2.430   5.360   0.539  0.0469 -1.1233  1.1733
  163ccc    H35 6068   1.944   5.392   0.114 -0.9648 -0.3238  0.1656
  163ccc    H36 6069   1.916   5.544   0.178  0.2653 -0.1225 -1.0486
  163ccc    O12 6070   1.802   5.405   0.264  0.3193  0.5899  0.7345
  163ccc    H37 6071   1.815   5.410   0.361 -0.8983  0.1215  0.9421
  163ccc    O13 6072   2.092   5.301   0.311 -0.5350  0.1779 -0.2382
  163ccc    H38 6073   2.139   5.111   0.378  1.3252 -1.6007  2.3220
  163ccc    H39 6074   2.173   5.498   0.155  2.1094 -2.2344  0.9257
  163ccc     O5 6075   2.115   5.670   0.257 -0.2231  0.4382 -0.4728
  163ccc    H40 6076   2.178   5.710   0.196 -0.3117  0.9900 -0.2092
  163ccc     N4 6077   2.444   5.327   0.443  0.5013  0.1235  0.7792
  163ccc    H41 6078   2.720   5.492   0.292  0.8001 -0.2687 -0.3604
  164ccc     N1 6079   4.600   4.715  -0.048 -0.2007 -0.5945 -0.3741
  164ccc     H4 6080   4.557   4.645  -0.107 -1.5114 -0.0893 -0.0512
  164ccc     C3 6081   4.709   4.674   0.044 -0.3851 -0.3251  0.3905
  164ccc     H5 6082   4.767   4.601  -0.013 -2.3821 -0.1721 -1.9515
  164ccc     C4 6083   4.662   4.620   0.181 -0.0691 -0.3688 -0.2551
  164ccc     H6 6084   4.780   4.756   0.061  1.2685 -1.1426 -2.1015
  164ccc     H7 6085   4.749   4.607   0.246 -1.3993 -1.4489  1.3819
  164ccc     H8 6086   4.618   4.522   0.161 -0.8152 -0.1287  0.2028
  164ccc     N2 6087   4.552   4.694   0.251  0.4493 -0.4700  0.8000
  164ccc     C5 6088   4.610   4.830   0.288  0.1957  0.3754  0.6486
  164ccc     C6 6089   4.506   4.619   0.379  0.5078 -0.1291  0.4241
  164ccc     H9 6090   4.591   4.558   0.411 -1.2954 -3.0925 -0.0661
  164ccc     C7 6091   4.387   4.524   0.350  0.3324  0.5242 -0.6824
  164ccc    H10 6092   4.484   4.685   0.463 -0.5036  0.1146 -0.0050
  164ccc    H11 6093   4.314   4.568   0.281 -0.5423  0.1530  0.0022
  164ccc    H12 6094   4.332   4.499   0.441 -1.4849  0.1700 -1.8326
  164ccc     C8 6095   4.426   4.394   0.282  0.0310 -0.0353  0.5448
  164ccc     O2 6096   4.523   4.330   0.306  0.0811 -0.2068  0.2407
  164ccc    H13 6097   4.667   4.883   0.210  0.3230 -0.1464  0.3836
  164ccc    H14 6098   4.687   4.821   0.365 -0.0732  1.9819  1.1489
  164ccc     C9 6099   4.506   4.931   0.343 -0.0232  0.9320 -0.1083
  164ccc    H15 6100   4.562   5.016   0.383  1.1992  0.5212 -0.8759
  164ccc    H16 6101   4.439   4.895   0.422  0.4892  1.8480  0.7567
  164ccc    C10 6102   4.403   4.975   0.235 -0.6260 -0.5022 -0.1253
  164ccc     O4 6103   4.368   4.926   0.133  0.2034  0.1671  0.0111
  164ccc    C11 6104   4.098   4.376  -0.131  0.1578  0.4222  0.6400
  164ccc    C12 6105   4.052   4.276  -0.024 -0.5967  0.0616 -0.0875
  164ccc    H17 6106   4.177   4.319  -0.181  0.3719 -0.4430  1.9213
  164ccc    C13 6107   4.159   4.256   0.083 -0.0318 -0.1998 -0.4707
  164ccc    C14 6108   4.232   4.381   0.129  0.0973 -0.0392  0.0636
  164ccc    C15 6109   4.270   4.464   0.004  0.0646 -0.1256 -0.2895
  164ccc    H18 6110   4.166   4.437   0.197  0.0003 -0.4679  0.3301
  164ccc    H19 6111   4.226   4.174   0.054  0.3120 -0.3063  0.5886
  164ccc    H20 6112   4.341   4.409  -0.059 -0.4671 -0.5495 -0.5334
  164ccc     O1 6113   4.326   4.592   0.046  0.0935  0.4255 -0.5836
  164ccc     O6 6114   4.087   4.202   0.204  0.3153 -0.2789 -0.3639
  164ccc    C16 6115   3.990   4.425  -0.234  0.0712 -0.1177  0.2767
  164ccc    H21 6116   4.146   4.197   0.281 -1.1974  1.5907  0.9962
  164ccc    H22 6117   4.396   4.258   0.143 -0.4715 -2.2769  1.6147
  164ccc    H23 6118   3.925   4.503  -0.191 -0.8328  0.3227 -1.7575
  164ccc    H24 6119   3.918   4.345  -0.255 -0.0818 -0.3565  1.6169
  164ccc     O7 6120   4.051   4.457  -0.357 -0.6070 -0.1970 -0.5574
  164ccc    H25 6121   3.979   4.498  -0.408  0.9373 -0.3854 -3.0412
  164ccc     O8 6122   4.157   4.495  -0.081 -0.2587  0.2181  0.1220
  164ccc    H26 6123   4.258   4.639   0.097  1.6159  0.2080  1.8090
  164ccc    H27 6124   3.959   4.314   0.019 -1.2459  1.5046 -2.5453
  164ccc     O9 6125   4.024   4.142  -0.080  0.7485 -0.5684 -0.0077
  164ccc    H28 6126   3.943   4.158  -0.132  1.0530  2.2137  0.2402
  164ccc     N3 6127   4.348   4.330   0.197  0.3599 -0.3316 -0.0653
  164ccc    C17 6128   4.128   5.430   0.121  0.0584  0.0192 -0.2624
  164ccc    C18 6129   4.237   5.382   0.020 -0.4454 -0.2208 -0.2453
  164ccc    H29 6130   4.180   5.476   0.205 -1.2522  0.7857  0.1677
  164ccc    C19 6131   4.321   5.277   0.099 -0.0737  0.0211  0.1186
  164ccc    C20 6132   4.244   5.165   0.175 -0.0507  0.1043 -0.3887
  164ccc    C21 6133   4.118   5.223   0.244  0.2072 -0.3144  0.4676
  164ccc    H30 6134   4.214   5.093   0.098  1.9284  1.2143 -2.3272
  164ccc    H31 6135   4.369   5.336   0.179  0.4374 -0.2067 -0.0146
  164ccc    H32 6136   4.139   5.278   0.336  0.0146  0.9765 -0.2338
  164ccc    O10 6137   4.027   5.113   0.279  0.3882  0.2249 -0.1458
  164ccc    O11 6138   4.424   5.220   0.010  0.2819 -0.4313  0.0573
  164ccc    C22 6139   4.025   5.533   0.060 -0.7080 -0.7068  0.3456
  164ccc    H33 6140   4.486   5.168   0.064 -1.3357 -0.4134  2.0231
  164ccc    H34 6141   4.365   5.136   0.357  0.2164 -0.4300  0.5854
  164ccc    H35 6142   3.922   5.499   0.069 -1.9289  2.6419  0.3555
  164ccc    H36 6143   4.043   5.546  -0.047  0.0044  1.9321  0.6966
  164ccc    O12 6144   4.019   5.652   0.135 -0.1310 -0.3739  0.0377
  164ccc    H37 6145   3.965   5.715   0.084 -0.6435 -0.7225  0.1444
  164ccc    O13 6146   4.052   5.309   0.154 -0.3102  0.5874  0.5613
  164ccc    H38 6147   4.081   5.077   0.352 -1.4474 -0.0976  1.1289
  164ccc    H39 6148   4.198   5.326  -0.067  0.5814 -1.8216  0.2674
  164ccc     O5 6149   4.318   5.491  -0.018  0.8308  0.1359 -0.8317
  164ccc    H40 6150   4.400   5.441  -0.029  0.7311 -0.1436 -0.3031
  164ccc     N4 6151   4.337   5.093   0.269 -0.1530 -0.2642  0.6172
  164ccc    H41 6152   4.475   4.709   0.185  2.3629  0.0566 -1.4705
  165ccc     N1 6153   4.140   5.163  -0.898  0.2411 -0.7096  0.0067
  165ccc     H4 6154   4.082   5.080  -0.902 -1.3789  0.3238  0.7935
  165ccc     C3 6155   4.217   5.186  -1.024  0.1985  0.8246  0.4861
  165ccc     H5 6156   4.218   5.289  -1.063  1.4464 -0.5515 -3.5936
  165ccc     C4 6157   4.157   5.107  -1.141 -1.0854 -0.0713  0.5229
  165ccc     H6 6158   4.321   5.162  -0.998 -0.5868 -0.9380  2.3324
  165ccc     H7 6159   4.064   5.159  -1.167 -1.8906 -0.6114  2.2243
  165ccc     H8 6160   4.126   5.011  -1.099  0.1299 -0.2828  0.9623
  165ccc     N2 6161   4.254   5.084  -1.256 -0.4252 -0.0129 -0.3527
  165ccc     C5 6162   4.263   5.206  -1.348 -0.4737 -0.8576  0.3856
  165ccc     C6 6163   4.217   4.965  -1.346  0.2409  0.4726 -0.3549
  165ccc     H9 6164   4.110   4.974  -1.367 -0.1441 -3.2688 -0.5314
  165ccc     C7 6165   4.245   4.822  -1.293 -0.3725 -0.3692 -0.6169
  165ccc    H10 6166   4.270   4.966  -1.441 -0.7479 -2.0355 -1.0024
  165ccc    H11 6167   4.221   4.745  -1.367  0.9296 -1.3154 -0.0860
  165ccc    H12 6168   4.183   4.798  -1.205  0.9026  0.5098  0.5776
  165ccc     C8 6169   4.395   4.815  -1.251 -0.9658 -0.2841  0.0271
  165ccc     O2 6170   4.446   4.900  -1.181 -0.1139  0.3208 -0.0880
  165ccc    H13 6171   4.246   5.298  -1.290  2.5974 -0.8324  1.4237
  165ccc    H14 6172   4.180   5.195  -1.418 -2.5327  1.2000  2.3056
  165ccc     C9 6173   4.398   5.229  -1.415 -0.4794  0.6040  0.1798
  165ccc    H15 6174   4.401   5.309  -1.490  2.2607 -0.0911 -0.5778
  165ccc    H16 6175   4.430   5.134  -1.461  0.4912  1.5309 -1.1547
  165ccc    C10 6176   4.509   5.263  -1.310 -0.0177 -0.1140 -0.2336
  165ccc     O4 6177   4.496   5.255  -1.190  1.0194 -0.2396 -0.1522
  165ccc    C11 6178   4.803   4.646  -1.560 -0.3714 -0.1208 -0.1475
  165ccc    C12 6179   4.755   4.796  -1.560 -0.2009  0.0953 -0.7249
  165ccc    H17 6180   4.754   4.577  -1.630  1.0371  0.2283 -1.5484
  165ccc    C13 6181   4.617   4.813  -1.494 -0.5300 -0.3576 -0.5699
  165ccc    C14 6182   4.602   4.729  -1.361  0.5446  0.4840  0.3563
  165ccc    C15 6183   4.648   4.585  -1.389  0.2440  0.6039  0.6905
  165ccc    H18 6184   4.673   4.772  -1.289  0.3762  2.8885 -0.8009
  165ccc    H19 6185   4.538   4.781  -1.563 -0.9189 -1.8436  0.5099
  165ccc    H20 6186   4.581   4.531  -1.457  1.0366 -0.8431  1.0259
  165ccc     O1 6187   4.654   4.514  -1.265 -0.5871  0.4155  0.2388
  165ccc     O6 6188   4.603   4.949  -1.445  0.2567  0.3880  0.3696
  165ccc    C16 6189   4.963   4.651  -1.581 -0.0395  0.4609  0.1027
  165ccc    H21 6190   4.642   5.010  -1.510  1.1150 -0.8835 -0.3500
  165ccc    H22 6191   4.409   4.663  -1.383  1.2240  1.2685 -1.0681
  165ccc    H23 6192   5.017   4.691  -1.494 -0.2536 -0.5911  0.7382
  165ccc    H24 6193   4.975   4.717  -1.668 -0.3941 -1.6152 -1.6054
  165ccc     O7 6194   5.010   4.521  -1.618  0.3944  0.3523  0.6977
  165ccc    H25 6195   5.101   4.530  -1.651  0.2428  2.1504  0.6821
  165ccc     O8 6196   4.785   4.596  -1.430  0.4313  0.0306 -0.2169
  165ccc    H26 6197   4.633   4.419  -1.265  0.5089  0.0061  3.9652
  165ccc    H27 6198   4.821   4.860  -1.501  0.3770 -0.9241 -0.2414
  165ccc     O9 6199   4.739   4.847  -1.694  0.1429 -0.4582  0.6294
  165ccc    H28 6200   4.665   4.795  -1.730 -2.1150  2.6549  0.3931
  165ccc     N3 6201   4.460   4.719  -1.315  0.2782  0.1879  0.5980
  165ccc    C17 6202   5.034   5.285  -1.232  0.0267 -0.1972 -0.2193
  165ccc    C18 6203   4.978   5.422  -1.270  0.0220  0.7209 -0.1276
  165ccc    H29 6204   5.085   5.245  -1.322 -0.2378  4.4819 -2.7442
  165ccc    C19 6205   4.849   5.408  -1.360 -0.5333  0.2365  0.0177
  165ccc    C20 6206   4.754   5.304  -1.296 -0.2577 -0.2343 -0.6308
  165ccc    C21 6207   4.828   5.168  -1.266  0.2871  0.1383 -0.5065
  165ccc    H30 6208   4.732   5.342  -1.196 -0.6117 -0.8480 -0.4686
  165ccc    H31 6209   4.867   5.375  -1.463  1.7802  2.4627 -0.3912
  165ccc    H32 6210   4.860   5.120  -1.359 -1.6382 -2.9466  0.2972
  165ccc    O10 6211   4.742   5.079  -1.200  0.2275  0.4583 -0.3226
  165ccc    O11 6212   4.770   5.530  -1.370  0.3619  0.1260  0.2834
  165ccc    C22 6213   5.158   5.290  -1.131  0.1077  0.7027 -0.4341
  165ccc    H33 6214   4.779   5.562  -1.462 -0.1594 -1.2528 -0.2708
  165ccc    H34 6215   4.647   5.280  -1.469 -0.9288 -1.7734 -0.4860
  165ccc    H35 6216   5.243   5.320  -1.194  0.2441 -1.5976 -1.4362
  165ccc    H36 6217   5.177   5.194  -1.083  2.0568  0.4946 -1.5162
  165ccc    O12 6218   5.145   5.398  -1.037 -0.0433 -0.5596  0.7651
  165ccc    H37 6219   5.199   5.379  -0.958  1.5408 -2.4709 -0.6706
  165ccc    O13 6220   4.942   5.191  -1.182  0.1137 -0.3111 -0.3069
  165ccc    H38 6221   4.687   5.043  -1.272 -1.3960 -1.3027  1.6984
  165ccc    H39 6222   4.944   5.475  -1.181 -0.5916 -0.0039  0.0842
  165ccc     O5 6223   5.067   5.512  -1.335 -0.1323 -0.4301  0.3704
  165ccc    H40 6224   5.035   5.604  -1.332  1.5665  0.2398 -0.6978
  165ccc     N4 6225   4.631   5.291  -1.369  0.3324  0.0445 -0.4391
  165ccc    H41 6226   4.348   5.073  -1.216 -0.7227  0.5474  0.5144
  166ccc     N1 6227   5.383   6.796   0.769 -0.0155 -0.0212 -0.2576
  166ccc     H4 6228   5.432   6.813   0.856 -0.2723 -1.7531  0.2620
  166ccc     C3 6229   5.233   6.783   0.790 -0.6972  0.3042 -0.0946
  166ccc     H5 6230   5.209   6.857   0.867  0.4558  0.5740  0.0246
  166ccc     C4 6231   5.187   6.644   0.833  0.1472  0.1446 -0.1270
  166ccc     H6 6232   5.178   6.811   0.699 -1.6502  1.3120  0.7630
  166ccc     H7 6233   5.251   6.585   0.766  1.5221 -0.0081  1.2693
  166ccc     H8 6234   5.084   6.620   0.806  0.7467 -1.6612 -0.9802
  166ccc     N2 6235   5.220   6.609   0.982  0.4915 -0.3326  0.0418
  166ccc     C5 6236   5.214   6.458   0.999 -0.3561 -0.1553 -0.4856
  166ccc     C6 6237   5.129   6.685   1.075  0.1294  0.4806  0.3737
  166ccc     H9 6238   5.161   6.663   1.178  0.8106  1.3949  0.3708
  166ccc     C7 6239   4.969   6.669   1.071 -0.1183 -0.4267 -0.7462
  166ccc    H10 6240   5.156   6.791   1.066 -1.0889  0.7168 -0.7335
  166ccc    H11 6241   4.929   6.688   0.971 -0.9943 -0.2776 -0.3764
  166ccc    H12 6242   4.927   6.749   1.133  1.2931 -0.9754  0.9863
  166ccc     C8 6243   4.917   6.543   1.125  0.2475 -0.3921 -0.0458
  166ccc     O2 6244   4.975   6.467   1.199  0.1270  0.2184  0.5909
  166ccc    H13 6245   5.271   6.414   0.917 -0.9673 -3.1299  0.5768
  166ccc    H14 6246   5.112   6.418   0.986 -0.5461  0.2694 -0.3213
  166ccc     C9 6247   5.276   6.405   1.132  0.3923 -0.5079  0.1695
  166ccc    H15 6248   5.220   6.439   1.220 -1.3674 -1.9448 -0.3379
  166ccc    H16 6249   5.374   6.452   1.147 -0.0875  1.2101 -1.7208
  166ccc    C10 6250   5.312   6.253   1.141  0.0967  0.3933 -1.3315
  166ccc     O4 6251   5.369   6.182   1.068 -0.4200  0.1719 -0.3397
  166ccc    C11 6252   4.580   6.416   1.468 -0.0029  0.6832 -0.2550
  166ccc    C12 6253   4.543   6.548   1.406 -0.0626  0.1350 -0.4999
  166ccc    H17 6254   4.677   6.420   1.519 -0.0094 -2.1895  0.1498
  166ccc    C13 6255   4.660   6.595   1.310  0.4589  0.2370 -0.1269
  166ccc    C14 6256   4.684   6.491   1.203 -0.0530 -0.4733 -0.0829
  166ccc    C15 6257   4.710   6.353   1.258 -0.1587  0.8268  0.6032
  166ccc    H18 6258   4.583   6.475   1.164  0.3884  1.5030 -2.2162
  166ccc    H19 6259   4.751   6.619   1.367  0.5823  1.7692 -0.9281
  166ccc    H20 6260   4.805   6.341   1.312 -0.6483 -0.5412  1.1971
  166ccc     O1 6261   4.709   6.250   1.157 -0.1166 -0.2069 -0.5854
  166ccc     O6 6262   4.622   6.719   1.246  0.4986  0.2610 -0.1765
  166ccc    C16 6263   4.462   6.376   1.561 -0.1548  0.1238 -0.4427
  166ccc    H21 6264   4.545   6.702   1.189  2.2678 -1.6605 -2.2209
  166ccc    H22 6265   4.745   6.599   1.044 -1.0581 -0.4790  0.5984
  166ccc    H23 6266   4.436   6.455   1.633 -1.9353  0.1528 -1.0606
  166ccc    H24 6267   4.498   6.292   1.622  1.6506  1.1383 -0.0372
  166ccc     O7 6268   4.342   6.351   1.483 -0.8260 -0.0856  0.2276
  166ccc    H25 6269   4.266   6.401   1.517 -0.4219  0.8306 -0.1662
  166ccc     O8 6270   4.603   6.324   1.353  0.2771 -0.3359 -0.4446
  166ccc    H26 6271   4.730   6.173   1.213  1.0682 -0.6450 -1.5822
  166ccc    H27 6272   4.449   6.527   1.353 -0.9912 -0.5779  1.3319
  166ccc     O9 6273   4.520   6.656   1.500 -0.5427  0.3692  0.2277
  166ccc    H28 6274   4.482   6.731   1.451 -0.1885  0.2411 -0.2522
  166ccc     N3 6275   4.790   6.525   1.099 -0.3774 -0.2393  0.3737
  166ccc    C17 6276   4.891   6.051   1.400 -0.6003 -0.2155  0.0515
  166ccc    C18 6277   4.977   6.113   1.505  0.3878  0.0826  0.1961
  166ccc    H29 6278   4.923   5.946   1.392 -0.5893 -0.1678 -0.6587
  166ccc    C19 6279   5.125   6.126   1.452 -0.7674 -0.3815 -0.3920
  166ccc    C20 6280   5.139   6.195   1.308 -0.5573 -0.0879 -0.7019
  166ccc    C21 6281   5.041   6.120   1.218 -0.8758  0.2339  0.6604
  166ccc    H30 6282   5.107   6.299   1.323 -0.6041 -0.3302  1.2148
  166ccc    H31 6283   5.186   6.035   1.453  2.3116  1.5172 -0.7774
  166ccc    H32 6284   5.078   6.020   1.193  1.7162  1.2192  0.2410
  166ccc    O10 6285   5.044   6.198   1.098 -0.3920  0.2150  0.4862
  166ccc    O11 6286   5.194   6.227   1.548  0.2110 -0.5742  0.0503
  166ccc    C22 6287   4.748   6.042   1.428  0.6412  0.2668 -0.3325
  166ccc    H33 6288   5.276   6.258   1.506  0.8461 -0.0403  1.5958
  166ccc    H34 6289   5.302   6.086   1.244  0.4639  0.4183 -0.5663
  166ccc    H35 6290   4.713   6.138   1.468  0.5795 -0.1090  0.5225
  166ccc    H36 6291   4.726   5.972   1.509 -1.5353  1.9464  0.6371
  166ccc    O12 6292   4.676   6.005   1.309 -0.4167 -0.3575  0.3268
  166ccc    H37 6293   4.582   6.000   1.332 -1.3257  0.9352 -2.6323
  166ccc    O13 6294   4.911   6.126   1.276  0.2484  0.4285 -0.1043
  166ccc    H38 6295   4.989   6.276   1.118 -0.1665  0.4870  0.0558
  166ccc    H39 6296   4.942   6.215   1.529  0.8756  0.7532 -1.7737
  166ccc     O5 6297   4.985   6.037   1.628  0.7710  0.0026  0.3750
  166ccc    H40 6298   5.019   6.097   1.697  1.8888  1.3922 -1.3001
  166ccc     N4 6299   5.277   6.185   1.250 -0.0085  0.2976 -0.4605
  166ccc    H41 6300   5.311   6.644   1.015  0.2406  0.5731 -0.1989
  167ccc     N1 6301   6.197   6.951   0.455  0.1504  0.3001  0.7535
  167ccc     H4 6302   6.189   6.877   0.387  0.1783 -0.1626  1.2522
  167ccc     C3 6303   6.289   7.058   0.433  0.2217  0.0530 -0.1611
  167ccc     H5 6304   6.290   7.118   0.524 -0.9658 -1.8137  1.1503
  167ccc     C4 6305   6.243   7.145   0.310  0.0504  0.2464 -0.8580
  167ccc     H6 6306   6.385   7.013   0.405  1.0113  2.1308 -1.0098
  167ccc     H7 6307   6.249   7.084   0.219  2.6870  1.1690 -1.4007
  167ccc     H8 6308   6.313   7.229   0.298 -0.1564  0.3521 -1.3246
  167ccc     N2 6309   6.099   7.206   0.318  0.2058 -0.2320 -0.4083
  167ccc     C5 6310   6.076   7.261   0.183  0.2841  0.5219 -0.5148
  167ccc     C6 6311   6.080   7.303   0.434 -0.1211 -0.1784 -0.0067
  167ccc     H9 6312   6.113   7.259   0.529 -1.0895  0.6026  0.7021
  167ccc     C7 6313   5.936   7.356   0.466 -0.1761 -0.1334  0.5271
  167ccc    H10 6314   6.143   7.387   0.403  0.8090 -0.3727  1.2649
  167ccc    H11 6315   5.903   7.411   0.377  1.2587 -1.6824 -1.0485
  167ccc    H12 6316   5.929   7.420   0.554  0.2487  0.5313  0.0875
  167ccc     C8 6317   5.846   7.235   0.484  0.2066 -0.1006  0.1490
  167ccc     O2 6318   5.878   7.117   0.495  0.1255 -0.3907 -0.4796
  167ccc    H13 6319   6.162   7.322   0.152 -0.3463  1.6965 -0.0332
  167ccc    H14 6320   5.989   7.327   0.190 -2.2606 -2.7120  0.7435
  167ccc     C9 6321   6.047   7.159   0.075  0.4639 -0.3789 -0.0595
  167ccc    H15 6322   6.117   7.076   0.059  0.8906 -0.6782  2.7819
  167ccc    H16 6323   6.036   7.218  -0.016 -2.5351  1.5104  1.3945
  167ccc    C10 6324   5.912   7.104   0.096 -0.8959  0.2543 -0.6813
  167ccc     O4 6325   5.829   7.152   0.174  0.2936 -0.2176  0.1976
  167ccc    C11 6326   5.322   7.159   0.534 -0.6419 -1.4728 -0.2893
  167ccc    C12 6327   5.377   7.139   0.393 -0.1182 -0.4968 -0.2800
  167ccc    H17 6328   5.302   7.265   0.552  0.1157 -1.2994 -0.4552
  167ccc    C13 6329   5.511   7.207   0.378  0.4596 -0.4132  0.3109
  167ccc    C14 6330   5.613   7.176   0.490 -0.0474  0.0600 -0.7208
  167ccc    C15 6331   5.541   7.196   0.631 -0.6230 -0.1175  0.4256
  167ccc    H18 6332   5.652   7.074   0.482  3.0609  1.1931 -1.1836
  167ccc    H19 6333   5.498   7.316   0.386 -0.8849 -0.5487  0.2783
  167ccc    H20 6334   5.520   7.299   0.661 -0.8403 -1.2468  4.7665
  167ccc     O1 6335   5.625   7.148   0.732  0.3560 -0.3901 -0.0834
  167ccc     O6 6336   5.575   7.175   0.257 -0.0929  0.2389  0.4231
  167ccc    C16 6337   5.196   7.083   0.577  0.4551  0.4187 -0.2654
  167ccc    H21 6338   5.670   7.193   0.270 -0.1720  1.0398 -0.0155
  167ccc    H22 6339   5.688   7.371   0.474 -2.7219 -0.6379  0.6899
  167ccc    H23 6340   5.217   6.975   0.569 -0.0092  0.1426  1.7179
  167ccc    H24 6341   5.105   7.105   0.519 -1.1964 -1.7185  1.3301
  167ccc     O7 6342   5.166   7.117   0.711 -0.4159 -0.7344 -0.2785
  167ccc    H25 6343   5.243   7.097   0.768 -0.7271 -0.9489  0.0771
  167ccc     O8 6344   5.424   7.115   0.626  0.1497 -0.2501  0.1268
  167ccc    H26 6345   5.579   7.158   0.818  0.9572  0.3052  0.1742
  167ccc    H27 6346   5.395   7.032   0.379  2.1036 -0.0639 -1.0450
  167ccc     O9 6347   5.290   7.192   0.291 -0.7327  0.5384 -0.1835
  167ccc    H28 6348   5.203   7.150   0.281 -1.7140  3.0121 -4.5857
  167ccc     N3 6349   5.721   7.275   0.470 -0.2911  0.1750 -0.5390
  167ccc    C17 6350   5.508   6.823   0.163  0.1453  0.3635  0.7917
  167ccc    C18 6351   5.506   6.886   0.017  0.0107  0.4505  0.5255
  167ccc    H29 6352   5.497   6.908   0.231  1.9334  1.1893  0.1208
  167ccc    C19 6353   5.630   6.974  -0.010 -0.5333  0.8292 -0.0729
  167ccc    C20 6354   5.764   6.909   0.040  0.3205  0.0650  0.0200
  167ccc    C21 6355   5.745   6.850   0.182  0.0950 -0.6853 -0.3690
  167ccc    H30 6356   5.773   6.820  -0.023 -0.2675  0.1466 -0.1813
  167ccc    H31 6357   5.611   7.070   0.039 -1.5418  0.0856  1.0565
  167ccc    H32 6358   5.735   6.928   0.259 -1.0386 -0.2926 -0.8931
  167ccc    O10 6359   5.855   6.777   0.215  0.1742 -0.1626 -0.3341
  167ccc    O11 6360   5.630   6.992  -0.153 -0.2700 -0.0781  0.1990
  167ccc    C22 6361   5.397   6.719   0.186  0.6390 -0.6232  0.2332
  167ccc    H33 6362   5.710   7.035  -0.189 -0.2314 -1.0196 -0.9011
  167ccc    H34 6363   5.953   6.964  -0.047 -1.5767  0.2791 -1.0320
  167ccc    H35 6364   5.309   6.781   0.205  0.9366  0.6948 -2.2237
  167ccc    H36 6365   5.425   6.665   0.277 -2.2230 -3.5174 -0.4440
  167ccc    O12 6366   5.366   6.631   0.074 -0.4911 -0.0282 -0.6094
  167ccc    H37 6367   5.439   6.567   0.073  0.0551  0.3977  2.1781
  167ccc    O13 6368   5.634   6.755   0.185 -0.0815  0.1986 -0.3861
  167ccc    H38 6369   5.856   6.711   0.144  0.2280  0.7113 -1.1541
  167ccc    H39 6370   5.506   6.801  -0.052 -0.9920  1.5674 -0.9074
  167ccc     O5 6371   5.387   6.966   0.019 -0.6818 -0.7109 -0.5050
  167ccc    H40 6372   5.391   7.001  -0.071 -1.2497 -0.0588 -0.2879
  167ccc     N4 6373   5.892   6.994   0.029 -0.6024  0.6444 -0.3716
  167ccc    H41 6374   6.040   7.124   0.337  2.4164 -2.2724 -1.7036
  168ccc     N1 6375   5.231   6.425   1.818  0.1482 -0.8604  0.1016
  168ccc     H4 6376   5.165   6.348   1.809 -0.9668  0.2771 -2.2699
  168ccc     C3 6377   5.174   6.561   1.815  0.2172  0.6292  0.1103
  168ccc     H5 6378   5.241   6.643   1.789  0.9454  0.2343  0.6975
  168ccc     C4 6379   5.110   6.612   1.948 -0.0143 -0.0369  0.5453
  168ccc     H6 6380   5.093   6.561   1.741 -0.7454 -1.8596  1.0495
  168ccc     H7 6381   5.180   6.596   2.031  0.3777 -0.0340  0.2177
  168ccc     H8 6382   5.018   6.556   1.970 -0.9771  1.3796  0.2524
  168ccc     N2 6383   5.076   6.759   1.950 -0.0608 -0.1125  0.0862
  168ccc     C5 6384   5.020   6.791   2.088 -0.4276  0.2741 -0.1271
  168ccc     C6 6385   4.973   6.786   1.847  0.1377 -0.1576  0.2300
  168ccc     H9 6386   5.024   6.761   1.753  0.0995 -2.5712  0.7987
  168ccc     C7 6387   4.912   6.924   1.827 -0.1683 -0.2288 -0.2097
  168ccc    H10 6388   4.889   6.716   1.857 -1.7432  2.1683  2.0272
  168ccc    H11 6389   4.985   7.003   1.849 -1.5742  0.2837  3.3640
  168ccc    H12 6390   4.828   6.939   1.896 -1.1838  0.0364 -1.4561
  168ccc     C8 6391   4.852   6.944   1.690 -0.6204 -0.1787  0.1761
  168ccc     O2 6392   4.876   6.874   1.593 -0.2447 -0.5934  0.4482
  168ccc    H13 6393   4.955   6.709   2.118  0.7938 -0.4454  0.6012
  168ccc    H14 6394   4.960   6.883   2.086 -0.6881  0.2068  2.4548
  168ccc     C9 6395   5.128   6.810   2.189 -0.0879 -0.3813 -0.3288
  168ccc    H15 6396   5.171   6.911   2.179  2.1935 -1.1609  0.8345
  168ccc    H16 6397   5.209   6.736   2.179  2.1826  2.0965 -1.8582
  168ccc    C10 6398   5.072   6.797   2.339  0.3277  0.1497 -0.3537
  168ccc     O4 6399   5.097   6.702   2.412  0.0772 -0.6046  0.2445
  168ccc    C11 6400   4.616   7.031   1.288 -0.2029  0.3167  0.1001
  168ccc    C12 6401   4.508   7.018   1.406 -0.2282  0.3043  0.0815
  168ccc    H17 6402   4.672   6.936   1.290 -1.0427 -0.2021  1.9000
  168ccc    C13 6403   4.585   6.993   1.544 -0.0363  0.1795  0.2303
  168ccc    C14 6404   4.703   7.092   1.559 -0.2552  0.5082 -0.1302
  168ccc    C15 6405   4.784   7.113   1.433  0.3025  0.0337 -0.1477
  168ccc    H18 6406   4.657   7.190   1.576 -1.4566  0.7621 -3.8937
  168ccc    H19 6407   4.632   6.895   1.538  2.3167  1.1277  1.8219
  168ccc    H20 6408   4.857   7.039   1.398  0.4139  0.1437 -0.1513
  168ccc     O1 6409   4.861   7.233   1.447  0.4585  0.5809  0.7085
  168ccc     O6 6410   4.493   6.999   1.655  0.1272 -0.1773  0.6275
  168ccc    C16 6411   4.540   7.035   1.150  0.4508 -0.1237 -0.3895
  168ccc    H21 6412   4.428   6.936   1.617  1.4382 -0.8741 -0.5321
  168ccc    H22 6413   4.746   7.089   1.762 -1.7906 -2.8083  0.7735
  168ccc    H23 6414   4.467   7.117   1.150 -0.4628 -0.8815  1.5071
  168ccc    H24 6415   4.486   6.940   1.141 -1.3772  0.7810  0.6602
  168ccc     O7 6416   4.632   7.049   1.044 -0.3579 -0.1009 -0.3822
  168ccc    H25 6417   4.577   7.053   0.963  1.3282  0.6054 -1.5307
  168ccc     O8 6418   4.701   7.143   1.317  0.1447  0.8618  0.2416
  168ccc    H26 6419   4.796   7.300   1.477  0.6959  0.5775  1.2328
  168ccc    H27 6420   4.452   7.112   1.417  1.4030  1.6166 -1.9565
  168ccc     O9 6421   4.423   6.904   1.385  0.5283  0.1429  0.0224
  168ccc    H28 6422   4.359   6.942   1.323  0.6907 -0.3897 -0.4887
  168ccc     N3 6423   4.785   7.055   1.675 -0.2210  0.0970  0.1956
  168ccc    C17 6424   4.909   7.099   2.760 -0.0950 -0.1112 -0.2224
  168ccc    C18 6425   4.799   7.004   2.697 -0.4787 -0.5247  0.5430
  168ccc    H29 6426   4.897   7.199   2.715  0.9832  0.6715  1.1404
  168ccc    C19 6427   4.832   6.983   2.548 -0.2610 -0.4492  0.1469
  168ccc    C20 6428   4.978   6.939   2.532 -0.5223  0.2029  0.4463
  168ccc    C21 6429   5.083   7.035   2.601 -0.2322 -0.3065  0.7583
  168ccc    H30 6430   4.979   6.850   2.596 -2.3831  1.7729  2.8578
  168ccc    H31 6431   4.824   7.083   2.502  1.9054 -0.6950 -0.9345
  168ccc    H32 6432   5.086   7.129   2.546  2.0419 -0.0906  1.1453
  168ccc    O10 6433   5.214   6.977   2.608  0.5961 -0.2177 -0.4135
  168ccc    O11 6434   4.740   6.891   2.490  0.1331  0.3717  0.5688
  168ccc    C22 6435   4.891   7.111   2.911 -0.6419  0.9166  0.1404
  168ccc    H33 6436   4.654   6.935   2.503  0.2958  1.0395 -0.4956
  168ccc    H34 6437   4.975   6.975   2.330 -1.4061 -0.6550 -0.2423
  168ccc    H35 6438   4.804   7.174   2.933 -1.7357 -0.9917  1.6134
  168ccc    H36 6439   4.982   7.163   2.942 -1.0031  1.4913  0.2577
  168ccc    O12 6440   4.874   6.989   2.989  0.6985  0.2459 -0.1773
  168ccc    H37 6441   4.782   6.961   2.977  0.9099  0.0621 -1.5102
  168ccc    O13 6442   5.045   7.055   2.737  0.3145  0.0431  0.4526
  168ccc    H38 6443   5.262   7.046   2.658 -1.1442 -0.8663  2.3565
  168ccc    H39 6444   4.799   6.907   2.749  0.1178 -0.8561 -0.0570
  168ccc     O5 6445   4.670   7.062   2.705  0.4509  0.6720  1.0014
  168ccc    H40 6446   4.606   6.990   2.700  0.6526  0.3921  2.0380
  168ccc     N4 6447   5.012   6.905   2.395 -0.3574  0.2075  0.1070
  168ccc    H41 6448   5.161   6.807   1.919 -0.5863  0.3943 -0.6089
  169ccc     N1 6449   5.959   5.906   1.961 -0.3816 -0.2124  0.3354
  169ccc     H4 6450   5.964   5.878   1.863  0.6506  0.4668  0.1667
  169ccc     C3 6451   6.085   5.912   2.040  0.5864 -0.2288  0.4438
  169ccc     H5 6452   6.157   5.936   1.961 -1.6981  0.7139 -1.4949
  169ccc     C4 6453   6.118   5.770   2.119  0.7201  0.0798 -0.3066
  169ccc     H6 6454   6.078   6.007   2.094  1.4660  1.9525 -2.9270
  169ccc     H7 6455   6.120   5.716   2.024 -0.9113  1.8505 -1.4273
  169ccc     H8 6456   6.012   5.751   2.139  0.8293 -0.7149 -0.4457
  169ccc     N2 6457   6.282   5.689   2.313  0.1505  0.4202 -0.5149
  169ccc     C5 6458   6.258   5.685   2.475  0.1712  0.2667  0.0666
  169ccc     C6 6459   6.444   5.695   2.337 -0.1152 -0.2957 -0.7266
  169ccc     H9 6460   6.493   5.782   2.293  1.0897 -1.5116 -1.9027
  169ccc     C7 6461   6.533   5.575   2.303 -0.1196 -0.5031 -0.2643
  169ccc    H10 6462   6.481   5.732   2.433 -1.4714  1.8936 -0.9703
  169ccc    H11 6463   6.537   5.558   2.194  1.5369  3.0603 -0.9251
  169ccc    H12 6464   6.483   5.491   2.353 -0.6230 -0.8556 -1.3215
  169ccc     C8 6465   6.681   5.598   2.332  0.2853  0.6299 -0.6281
  169ccc     O2 6466   6.727   5.711   2.328  0.0614  0.5548 -0.4488
  169ccc    H13 6467   6.155   5.685   2.513 -0.0432 -1.1968 -0.4669
  169ccc    H14 6468   6.288   5.787   2.503 -0.0082  0.3849 -0.1687
  169ccc     C9 6469   6.312   5.566   2.552  0.1424 -0.6067  0.0692
  169ccc    H15 6470   6.421   5.555   2.547  0.0516 -1.4959 -0.2104
  169ccc    H16 6471   6.275   5.469   2.516  0.1204  0.6773 -3.8305
  169ccc    C10 6472   6.289   5.587   2.702  0.0179 -0.4040  0.3501
  169ccc     O4 6473   6.237   5.689   2.744  0.1309  0.1420 -0.2712
  169ccc    C11 6474   6.792   5.072   2.453 -0.0879 -0.3721  1.0770
  169ccc    C12 6475   6.705   5.160   2.539 -0.3966 -0.0556 -0.4249
  169ccc    H17 6476   6.897   5.100   2.466  0.1238 -0.4070 -0.3450
  169ccc    C13 6477   6.728   5.313   2.520 -0.3534  0.8022 -0.0994
  169ccc    C14 6478   6.725   5.348   2.365 -0.1209  0.1642 -0.2614
  169ccc    C15 6479   6.817   5.252   2.293  0.6828 -0.0238 -0.3357
  169ccc    H18 6480   6.623   5.338   2.325 -0.0575  0.9329 -0.6485
  169ccc    H19 6481   6.827   5.340   2.560 -0.3359 -0.5348  0.8475
  169ccc    H20 6482   6.925   5.254   2.309  0.4392  0.8432  1.4429
  169ccc     O1 6483   6.782   5.271   2.151  0.1983 -0.2365  0.3932
  169ccc     O6 6484   6.626   5.385   2.593 -0.0682 -0.2230  0.7178
  169ccc    C16 6485   6.759   4.919   2.465 -0.1989  0.6149  0.3322
  169ccc    H21 6486   6.635   5.357   2.686 -1.5213 -0.9766  0.6494
  169ccc    H22 6487   6.861   5.512   2.365  0.3838  0.0642 -1.0127
  169ccc    H23 6488   6.795   4.869   2.556  0.8841  0.2790 -0.2655
  169ccc    H24 6489   6.822   4.870   2.389  0.4922 -1.0289  1.8787
  169ccc     O7 6490   6.619   4.894   2.438 -0.4089  0.3013  0.3097
  169ccc    H25 6491   6.602   4.948   2.359 -1.8417 -1.3365 -0.5682
  169ccc     O8 6492   6.778   5.115   2.313 -0.1902  0.2872  0.2192
  169ccc    H26 6493   6.686   5.260   2.134 -0.6103  2.7883  2.2107
  169ccc    H27 6494   6.599   5.151   2.516 -0.8273  0.7824  1.0806
  169ccc     O9 6495   6.737   5.140   2.683 -0.1724 -0.4048 -0.6715
  169ccc    H28 6496   6.649   5.135   2.724 -0.9778  1.7167 -1.9912
  169ccc     N3 6497   6.762   5.490   2.355  0.3141 -0.2233  0.1415
  169ccc    C17 6498   6.345   5.083   2.843  0.8388  1.0320  0.2304
  169ccc    C18 6499   6.230   5.134   2.742 -0.3690  0.0129  0.0286
  169ccc    H29 6500   6.305   5.088   2.945  1.5841 -1.2923  0.6946
  169ccc    C19 6501   6.215   5.286   2.766  0.1456 -0.1471 -0.5955
  169ccc    C20 6502   6.357   5.357   2.762  0.6186  0.3947  0.6865
  169ccc    C21 6503   6.452   5.297   2.859  0.2655  0.2300  0.2276
  169ccc    H30 6504   6.399   5.345   2.662  0.7982  0.4291  0.7570
  169ccc    H31 6505   6.170   5.288   2.866  2.2600 -1.5844  0.4337
  169ccc    H32 6506   6.418   5.312   2.962 -0.8427  1.5636 -0.3032
  169ccc    O10 6507   6.589   5.343   2.858 -0.0617 -0.4921 -0.5688
  169ccc    O11 6508   6.127   5.350   2.671  0.3195 -1.0084 -0.0415
  169ccc    C22 6509   6.384   4.935   2.819  0.0574 -0.2144 -0.0353
  169ccc    H33 6510   6.035   5.345   2.703 -1.0467  1.3664 -3.0490
  169ccc    H34 6511   6.291   5.511   2.885  0.8388 -1.5091  0.5501
  169ccc    H35 6512   6.424   4.935   2.717  0.2771  0.3449  0.0484
  169ccc    H36 6513   6.299   4.866   2.828  0.1437 -0.1500  1.3743
  169ccc    O12 6514   6.474   4.891   2.921  0.0551 -0.3585 -0.1918
  169ccc    H37 6515   6.512   4.809   2.884  0.6742  0.4058 -1.3189
  169ccc    O13 6516   6.468   5.159   2.829 -0.1002  0.5585 -0.2355
  169ccc    H38 6517   6.641   5.271   2.898  0.8789 -1.5120 -3.3915
  169ccc    H39 6518   6.264   5.117   2.639  1.3248  1.3120  0.3327
  169ccc     O5 6519   6.103   5.064   2.774 -0.0860 -0.8101  0.8729
  169ccc    H40 6520   6.065   5.026   2.692  1.0820  1.0323 -0.6090
  169ccc     N4 6521   6.330   5.499   2.792 -0.0071 -0.4507  0.0398
  169ccc    H41 6522   6.280   5.589   2.288 -0.1785  0.2637  0.1217
  170ccc     N1 6523   4.290   7.708   0.777  0.4371  0.2527 -0.2776
  170ccc     H4 6524   4.371   7.656   0.810  1.2815  2.4567  1.3391
  170ccc     C3 6525   4.267   7.824   0.869 -0.3366 -0.2249  0.4132
  170ccc     H5 6526   4.176   7.875   0.835  0.7490  1.1872 -0.5088
  170ccc     C4 6527   4.385   7.923   0.879 -0.1273 -0.0139 -0.2214
  170ccc     H6 6528   4.253   7.786   0.971  0.3072  0.0659  0.6146
  170ccc     H7 6529   4.464   7.876   0.939 -1.1547 -1.1952  0.2270
  170ccc     H8 6530   4.355   8.015   0.931  0.2878  0.4770 -0.8262
  170ccc     N2 6531   4.433   7.986   0.752  0.5093  0.3645 -0.4127
  170ccc     C5 6532   4.564   8.064   0.774 -0.9878  0.0659 -0.4671
  170ccc     C6 6533   4.339   8.088   0.695 -0.3178 -0.5014 -0.1696
  170ccc     H9 6534   4.237   8.055   0.719 -0.2627  0.5150  1.5861
  170ccc     C7 6535   4.360   8.112   0.548  0.5232 -0.5473  0.0284
  170ccc    H10 6536   4.351   8.183   0.748  2.6464 -1.1815  0.5584
  170ccc    H11 6537   4.459   8.156   0.532  0.1300  0.2516 -0.2306
  170ccc    H12 6538   4.287   8.185   0.512 -1.3729 -2.4951 -0.2549
  170ccc     C8 6539   4.338   7.990   0.462 -0.1651 -0.0198 -1.2433
  170ccc     O2 6540   4.354   7.875   0.496  0.2020  0.5928 -0.0869
  170ccc    H13 6541   4.545   8.129   0.860 -1.7597 -1.8890  0.9239
  170ccc    H14 6542   4.584   8.133   0.691  1.1029 -0.9478 -0.8868
  170ccc     C9 6543   4.697   7.986   0.794 -1.1322  0.4640  0.0960
  170ccc    H15 6544   4.697   7.942   0.895  0.6556 -0.6798 -0.3600
  170ccc    H16 6545   4.777   8.061   0.794  0.4676 -1.1693 -1.0070
  170ccc    C10 6546   4.720   7.887   0.683  0.8797  0.4877  0.3293
  170ccc     O4 6547   4.654   7.869   0.578  0.4183  0.4978 -0.1024
  170ccc    C11 6548   4.143   7.818  -0.004 -0.1709 -0.3831  0.1104
  170ccc    C12 6549   4.285   7.879  -0.027  0.1866  0.2207 -0.3966
  170ccc    H17 6550   4.067   7.897  -0.011 -1.7161 -1.4760  3.1084
  170ccc    C13 6551   4.320   7.966   0.091 -0.8742  0.6817 -1.0556
  170ccc    C14 6552   4.281   7.908   0.231  0.3438  0.1848  0.6138
  170ccc    C15 6553   4.133   7.860   0.228 -0.4027  0.6616  0.7390
  170ccc    H18 6554   4.332   7.812   0.247 -0.0904 -0.3869 -1.2159
  170ccc    H19 6555   4.261   8.058   0.078 -0.7999  0.6254 -1.8323
  170ccc    H20 6556   4.067   7.947   0.215  1.9403  2.5091  0.3234
  170ccc     O1 6557   4.096   7.788   0.346  0.3607  0.4164 -0.1657
  170ccc     O6 6558   4.460   8.018   0.086 -0.1834  0.5164 -0.4323
  170ccc    C16 6559   4.118   7.704  -0.108 -0.0456  0.2099  0.3814
  170ccc    H21 6560   4.467   8.083   0.158 -0.9224  2.1668 -1.7841
  170ccc    H22 6561   4.299   8.109   0.308 -1.9145  0.3150 -1.3188
  170ccc    H23 6562   4.183   7.618  -0.085  0.8733  0.5523 -0.8528
  170ccc    H24 6563   4.143   7.728  -0.212 -0.5047 -0.1997  0.1733
  170ccc     O7 6564   3.981   7.669  -0.096 -0.0810 -0.6717 -0.3792
  170ccc    H25 6565   3.933   7.753  -0.086  0.0624 -0.7355  1.0824
  170ccc     O8 6566   4.129   7.764   0.128 -0.3538  0.2457 -0.0048
  170ccc    H26 6567   4.047   7.843   0.410  0.4874 -0.3313  0.5933
  170ccc    H27 6568   4.358   7.797  -0.035  0.6415  0.5690  0.1105
  170ccc     O9 6569   4.286   7.962  -0.141 -0.6491  0.2869  0.5980
  170ccc    H28 6570   4.376   7.999  -0.150 -1.2502  2.0428  1.3549
  170ccc     N3 6571   4.300   8.013   0.341  0.0786  0.4513 -0.8516
  170ccc    C17 6572   4.979   7.555   0.383 -0.0537  0.6942  0.1795
  170ccc    C18 6573   5.052   7.684   0.413  0.1878 -0.1358  0.0714
  170ccc    H29 6574   4.896   7.567   0.313 -1.2075  0.5017  1.4778
  170ccc    C19 6575   4.970   7.789   0.495  0.6564  0.3101 -0.1975
  170ccc    C20 6576   4.907   7.722   0.617  0.2433 -0.4009 -0.7247
  170ccc    C21 6577   4.825   7.598   0.570 -0.2788  0.1341 -0.1975
  170ccc    H30 6578   4.988   7.689   0.682 -0.4956  0.5375  0.7239
  170ccc    H31 6579   4.889   7.835   0.437  0.4156  0.4532  0.2515
  170ccc    H32 6580   4.746   7.631   0.502 -1.3889 -2.4601 -0.3138
  170ccc    O10 6581   4.794   7.523   0.684 -0.0866  0.8609 -0.0498
  170ccc    O11 6582   5.056   7.901   0.540  0.2788 -0.2808  0.0894
  170ccc    C22 6583   5.072   7.443   0.330 -0.0517  0.1405 -0.0395
  170ccc    H33 6584   5.151   7.882   0.541  0.4203  0.1185 -2.1900
  170ccc    H34 6585   4.890   7.839   0.787 -2.3096  0.2890  0.7984
  170ccc    H35 6586   5.129   7.403   0.415  0.1319 -1.2179 -0.7691
  170ccc    H36 6587   5.151   7.485   0.267  0.6124  0.5796  1.0493
  170ccc    O12 6588   5.006   7.332   0.280  0.2635 -0.3696  0.0891
  170ccc    H37 6589   5.057   7.284   0.212 -2.6706 -2.9085 -0.5558
  170ccc    O13 6590   4.926   7.513   0.509 -0.8058 -0.0626  0.1582
  170ccc    H38 6591   4.794   7.428   0.663 -2.7751  0.4683  1.2528
  170ccc    H39 6592   5.147   7.671   0.467  0.8579  1.2444 -0.7317
  170ccc     O5 6593   5.092   7.732   0.287  0.2234  0.0801  0.2600
  170ccc    H40 6594   5.173   7.786   0.299  0.0893  0.3762 -0.1462
  170ccc     N4 6595   4.836   7.820   0.703 -0.0362 -0.6252 -0.5655
  170ccc    H41 6596   4.437   7.909   0.683 -0.0182 -0.3606  0.3394
  171ccc     N1 6597   4.588   7.496   0.116 -1.1379 -0.0502  0.0788
  171ccc     H4 6598   4.590   7.594   0.140  2.3937 -0.3893  1.7580
  171ccc     C3 6599   4.715   7.425   0.083  0.3242  0.0750 -0.4124
  171ccc     H5 6600   4.795   7.480   0.134  0.8822 -0.6670 -0.4726
  171ccc     C4 6601   4.744   7.418  -0.071  0.0924 -0.0386 -0.9553
  171ccc     H6 6602   4.712   7.324   0.124 -1.8687 -0.4732 -1.7526
  171ccc     H7 6603   4.731   7.514  -0.121  1.5365 -0.3102 -1.9017
  171ccc     H8 6604   4.669   7.354  -0.119 -0.8534  0.6198 -0.3773
  171ccc     N2 6605   4.884   7.362  -0.110  0.5553  0.0410  0.5942
  171ccc     C5 6606   4.990   7.474  -0.114  0.7966 -0.0370 -1.0431
  171ccc     C6 6607   4.890   7.295  -0.252 -0.6954  0.4149 -0.5999
  171ccc     H9 6608   4.860   7.365  -0.330 -0.9096 -1.0111 -1.8596
  171ccc     C7 6609   4.816   7.157  -0.279 -0.4165  0.1932 -0.0253
  171ccc    H10 6610   4.994   7.273  -0.281 -1.3769 -2.0334 -1.4949
  171ccc    H11 6611   4.843   7.098  -0.367 -4.6091 -1.1169 -0.6679
  171ccc    H12 6612   4.710   7.179  -0.300 -0.1057  1.6217 -0.1964
  171ccc     C8 6613   4.804   7.052  -0.166 -0.5505  0.8929  0.5635
  171ccc     O2 6614   4.863   7.062  -0.059  0.4851 -0.2376 -0.2098
  171ccc    H13 6615   4.968   7.525  -0.019 -1.1037 -1.2559 -0.7659
  171ccc    H14 6616   4.962   7.536  -0.201 -0.5538 -1.3021 -1.5592
  171ccc     C9 6617   5.140   7.438  -0.117  0.0898  0.9924  0.0034
  171ccc    H15 6618   5.197   7.529  -0.098  0.8039  0.3256  1.1419
  171ccc    H16 6619   5.163   7.392  -0.214  0.4341 -0.7196  0.8576
  171ccc    C10 6620   5.191   7.330  -0.017 -0.0747 -0.6247 -0.2800
  171ccc     O4 6621   5.113   7.260   0.048  0.4836  0.7779  0.2601
  171ccc    C11 6622   4.527   6.585  -0.039 -0.0724 -0.2686  0.1627
  171ccc    C12 6623   4.662   6.572  -0.116  0.3543 -0.3466 -0.2544
  171ccc    H17 6624   4.442   6.565  -0.106 -0.1715 -0.0297  0.2164
  171ccc    C13 6625   4.691   6.701  -0.200 -0.6786 -0.4579 -0.3026
  171ccc    C14 6626   4.686   6.835  -0.120  0.9353 -0.2264  0.0486
  171ccc    C15 6627   4.541   6.840  -0.065  0.2815 -0.4418 -0.4946
  171ccc    H18 6628   4.754   6.828  -0.034 -1.1048 -0.4255  1.7267
  171ccc    H19 6629   4.621   6.723  -0.282 -1.1713 -0.0476  0.2231
  171ccc    H20 6630   4.473   6.825  -0.151  1.8550 -3.0549 -1.4064
  171ccc     O1 6631   4.521   6.956   0.015 -0.2698  0.0878  0.4578
  171ccc     O6 6632   4.828   6.688  -0.248 -0.0525 -0.0853  0.5073
  171ccc    C16 6633   4.524   6.476   0.075  0.1302  0.3164 -0.1876
  171ccc    H21 6634   4.842   6.745  -0.326 -0.9228 -0.4271  0.0877
  171ccc    H22 6635   4.658   6.966  -0.283 -1.7181 -2.8129 -0.0452
  171ccc    H23 6636   4.577   6.524   0.158  0.4364  1.0758 -0.8027
  171ccc    H24 6637   4.579   6.383   0.054 -1.1653 -0.9076  1.6073
  171ccc     O7 6638   4.393   6.457   0.123 -0.0585  0.2209  0.3763
  171ccc    H25 6639   4.336   6.456   0.044  0.9803  0.9999 -0.4167
  171ccc     O8 6640   4.524   6.724   0.018  0.0279  0.2828  0.1928
  171ccc    H26 6641   4.516   7.030  -0.048  0.2593 -0.7198 -0.5779
  171ccc    H27 6642   4.726   6.567  -0.027  0.2073  1.3911 -0.0196
  171ccc     O9 6643   4.674   6.465  -0.200  0.1498  0.4906  0.2726
  171ccc    H28 6644   4.766   6.470  -0.229 -0.2058 -2.4332 -1.7638
  171ccc     N3 6645   4.718   6.954  -0.201 -0.4038  0.1121 -0.4603
  171ccc    C17 6646   5.701   7.506   0.070  0.5533 -0.2544 -0.2326
  171ccc    C18 6647   5.680   7.446  -0.069  0.4650 -0.0280  0.3044
  171ccc    H29 6648   5.716   7.420   0.137 -2.4759 -0.3904  0.4120
  171ccc    C19 6649   5.566   7.347  -0.067  0.1098 -0.1115  0.6463
  171ccc    C20 6650   5.435   7.403  -0.013 -0.1432 -0.5890 -0.0885
  171ccc    C21 6651   5.457   7.487   0.113 -0.4991 -0.2121 -0.8511
  171ccc    H30 6652   5.400   7.469  -0.093  2.2858  0.6508 -0.2261
  171ccc    H31 6653   5.580   7.272   0.012 -0.4849  0.3985  1.2542
  171ccc    H32 6654   5.460   7.419   0.198 -0.2060 -0.8951 -1.3946
  171ccc    O10 6655   5.346   7.575   0.136  0.4163 -0.5677  0.3015
  171ccc    O11 6656   5.558   7.276  -0.191 -0.1391 -0.0766 -0.1287
  171ccc    C22 6657   5.817   7.606   0.071 -0.2637  0.3727  0.2585
  171ccc    H33 6658   5.651   7.280  -0.219 -0.1513  1.6523  0.0208
  171ccc    H34 6659   5.340   7.242   0.087  0.1562 -0.6506 -0.9709
  171ccc    H35 6660   5.798   7.681  -0.007  0.8486  0.1439 -0.2467
  171ccc    H36 6661   5.907   7.550   0.043  0.1287  1.4287 -0.6616
  171ccc    O12 6662   5.825   7.670   0.195 -0.0850 -0.7771  0.1856
  171ccc    H37 6663   5.861   7.760   0.188 -0.5710 -0.4008  1.9406
  171ccc    O13 6664   5.580   7.570   0.104  0.0695 -0.2456 -0.0817
  171ccc    H38 6665   5.357   7.608   0.227 -0.2454  1.2201 -0.2281
  171ccc    H39 6666   5.653   7.508  -0.155 -0.6788 -2.9499 -1.5895
  171ccc     O5 6667   5.794   7.370  -0.096  0.0352 -0.2639 -0.9458
  171ccc    H40 6668   5.844   7.428  -0.156  0.3971  2.8256  2.0625
  171ccc     N4 6669   5.319   7.308   0.013 -0.4879  0.4647  0.1723
  171ccc    H41 6670   4.919   7.299  -0.037  0.2245 -0.7407  0.0887
  172ccc     N1 6671   5.045   6.309  -0.449 -0.0615  0.2434 -0.1655
  172ccc     H4 6672   5.131   6.292  -0.498 -0.9325 -2.8574 -0.8250
  172ccc     C3 6673   4.918   6.238  -0.483 -0.4346 -0.3521  0.3282
  172ccc     H5 6674   4.906   6.161  -0.405  0.3768 -0.3909  0.4247
  172ccc     C4 6675   4.938   6.166  -0.619 -0.1596  0.0216 -0.0206
  172ccc     H6 6676   4.825   6.295  -0.492 -0.6335 -0.8821 -1.2675
  172ccc     H7 6677   5.031   6.109  -0.606 -0.1648  0.3849  1.9573
  172ccc     H8 6678   4.952   6.241  -0.697  0.2083  0.3795  0.3803
  172ccc     N2 6679   4.827   6.073  -0.672 -0.0900 -0.6551  0.2177
  172ccc     C5 6680   4.694   6.160  -0.687 -0.3877 -0.1525  0.6039
  172ccc     C6 6681   4.808   5.955  -0.578  0.2378 -0.0587  0.4382
  172ccc     H9 6682   4.757   5.977  -0.484 -1.3917 -0.0838 -0.3942
  172ccc     C7 6683   4.937   5.869  -0.556  0.2194 -0.2354 -0.1360
  172ccc    H10 6684   4.737   5.891  -0.633  0.8433  1.3850 -2.2274
  172ccc    H11 6685   5.006   5.915  -0.483 -2.4434 -0.0429  2.4722
  172ccc    H12 6686   4.980   5.840  -0.652  0.8192 -2.5077  0.7590
  172ccc     C8 6687   4.889   5.738  -0.495  0.1053 -0.8850 -0.7400
  172ccc     O2 6688   4.766   5.712  -0.478 -0.3657 -0.2453 -0.4318
  172ccc    H13 6689   4.723   6.264  -0.708 -0.3835 -0.2690  0.0120
  172ccc    H14 6690   4.632   6.160  -0.597 -1.0358 -0.1317  0.1703
  172ccc     C9 6691   4.587   6.113  -0.793  0.9810 -0.1459  0.4066
  172ccc    H15 6692   4.653   6.092  -0.878  2.1528 -1.0571  1.4978
  172ccc    H16 6693   4.501   6.177  -0.817  0.4022 -0.6272  1.1451
  172ccc    C10 6694   4.516   5.974  -0.765  0.7363 -0.4754 -0.3079
  172ccc     O4 6695   4.503   5.915  -0.660  0.4182  0.3224 -0.5365
  172ccc    C11 6696   4.859   5.285  -0.243  0.1333  0.4400 -0.5254
  172ccc    C12 6697   4.932   5.274  -0.384  0.0299 -0.0048 -1.1373
  172ccc    H17 6698   4.751   5.291  -0.263 -0.1852 -1.8652  0.1621
  172ccc    C13 6699   4.916   5.407  -0.462 -0.2297 -0.1161  0.6385
  172ccc    C14 6700   4.967   5.528  -0.372 -0.6030 -0.1541  0.1752
  172ccc    C15 6701   4.884   5.536  -0.239  0.2074 -1.0438 -0.5450
  172ccc    H18 6702   5.072   5.513  -0.344 -0.2253  1.3013 -0.3572
  172ccc    H19 6703   4.813   5.424  -0.498  0.0017  0.9513  0.4545
  172ccc    H20 6704   4.781   5.570  -0.254  0.5116 -0.9805 -2.7086
  172ccc     O1 6705   4.944   5.623  -0.146 -0.5698 -0.7614 -0.1240
  172ccc     O6 6706   5.007   5.406  -0.570  0.2280  0.2250  0.3488
  172ccc    C16 6707   4.888   5.162  -0.148 -0.0554  0.8590  0.5264
  172ccc    H21 6708   4.966   5.389  -0.656  2.2045 -0.1952 -0.5526
  172ccc    H22 6709   5.082   5.663  -0.481 -0.1095  1.3849 -0.5525
  172ccc    H23 6710   4.814   5.087  -0.178  1.2965 -0.6135  0.7546
  172ccc    H24 6711   4.875   5.201  -0.046 -0.7931 -0.4073  0.9448
  172ccc     O7 6712   5.021   5.110  -0.158 -0.2090 -0.1585  0.2752
  172ccc    H25 6713   5.023   5.030  -0.102  1.1284  1.6069  2.9210
  172ccc     O8 6714   4.893   5.407  -0.168 -0.3619 -0.0247 -0.4124
  172ccc    H26 6715   4.984   5.552  -0.093  0.0304 -0.7543 -0.5519
  172ccc    H27 6716   5.038   5.263  -0.357 -0.2508  1.0746  0.5672
  172ccc     O9 6717   4.894   5.166  -0.472 -0.6354  0.2413  0.5666
  172ccc    H28 6718   4.944   5.180  -0.554 -2.2131  3.3308 -0.0428
  172ccc     N3 6719   4.986   5.655  -0.448  0.0482  0.0781 -0.3243
  172ccc    C17 6720   4.150   5.665  -1.010  0.3778 -0.7468  0.5688
  172ccc    C18 6721   4.297   5.614  -1.040 -0.8172  0.1023 -0.5983
  172ccc    H29 6722   4.110   5.736  -1.083 -0.4939 -1.8235 -0.0435
  172ccc    C19 6723   4.397   5.728  -1.015 -0.3820  0.5753  0.3833
  172ccc    C20 6724   4.379   5.804  -0.883  0.0776  0.4048  0.2668
  172ccc    C21 6725   4.225   5.850  -0.874 -0.8033  0.6385  0.3167
  172ccc    H30 6726   4.398   5.738  -0.798  0.3213  1.0398  0.7168
  172ccc    H31 6727   4.383   5.795  -1.100  2.9698  0.1996 -0.6080
  172ccc    H32 6728   4.209   5.918  -0.959  0.7473  0.4808 -0.1316
  172ccc    O10 6729   4.191   5.917  -0.757 -0.5632 -0.5306 -0.2074
  172ccc    O11 6730   4.533   5.679  -1.021 -0.4698 -0.2015  0.0539
  172ccc    C22 6731   4.042   5.548  -0.995 -0.1894 -0.3347  0.0332
  172ccc    H33 6732   4.534   5.582  -1.029  3.5097 -0.3202 -0.0362
  172ccc    H34 6733   4.489   5.962  -0.969 -0.3817  3.0647  1.0198
  172ccc    H35 6734   4.073   5.478  -0.915 -1.6305 -0.6611  0.3363
  172ccc    H36 6735   4.044   5.491  -1.089  0.5855 -0.8542  0.3546
  172ccc    O12 6736   3.908   5.602  -0.975  0.0566  0.5358 -0.1002
  172ccc    H37 6737   3.937   5.644  -0.892 -1.0673  0.0042  0.5959
  172ccc    O13 6738   4.137   5.737  -0.886  0.4067  0.1328  0.3447
  172ccc    H38 6739   4.098   5.898  -0.738  0.1140 -2.9613  1.0019
  172ccc    H39 6740   4.319   5.530  -0.973  0.4713  1.6447  1.0255
  172ccc     O5 6741   4.300   5.563  -1.178  0.0946  0.2382  0.0133
  172ccc    H40 6742   4.390   5.581  -1.210  0.7886 -2.3560  0.2387
  172ccc     N4 6743   4.476   5.916  -0.879  0.4621  0.8081  0.0356
  172ccc    H41 6744   4.843   6.034  -0.766  0.3810 -0.1157  0.0707
  173ccc     N1 6745   5.545   6.914  -0.445  0.0817  0.0898 -0.7401
  173ccc     H4 6746   5.580   6.897  -0.352 -1.6013 -1.1644 -0.2870
  173ccc     C3 6747   5.622   6.982  -0.541 -0.1471 -0.2594  0.0936
  173ccc     H5 6748   5.555   6.981  -0.628 -1.2502  0.1452  0.9016
  173ccc     C4 6749   5.752   6.905  -0.560  0.0512  0.3254  0.2484
  173ccc     H6 6750   5.634   7.091  -0.529 -0.2053 -0.0969 -1.1689
  173ccc     H7 6751   5.814   6.926  -0.471 -0.5138  0.0598  0.7140
  173ccc     H8 6752   5.810   6.935  -0.648 -0.4245 -1.9915 -0.8960
  173ccc     N2 6753   5.742   6.760  -0.581  0.6783 -0.2576  0.4753
  173ccc     C5 6754   5.873   6.698  -0.549 -0.8350 -0.4203 -0.3485
  173ccc     C6 6755   5.697   6.738  -0.722  0.1924 -0.5681 -0.9253
  173ccc     H9 6756   5.603   6.792  -0.737 -0.0937 -0.4208  1.0665
  173ccc     C7 6757   5.660   6.590  -0.746  0.4377  0.2012  0.3831
  173ccc    H10 6758   5.772   6.778  -0.790 -0.0273  0.8310 -0.3678
  173ccc    H11 6759   5.742   6.517  -0.735 -0.2980 -0.7349 -0.1370
  173ccc    H12 6760   5.620   6.582  -0.848  0.1044  0.5901  0.4860
  173ccc     C8 6761   5.547   6.531  -0.659  0.2693 -0.3211  0.1141
  173ccc     O2 6762   5.493   6.595  -0.568 -0.3020  0.2238 -0.1858
  173ccc    H13 6763   5.950   6.737  -0.616 -1.8415  2.4121 -0.0196
  173ccc    H14 6764   5.864   6.593  -0.580 -0.3191 -0.3063 -0.8896
  173ccc     C9 6765   5.919   6.696  -0.393  0.1929  0.1404  0.2568
  173ccc    H15 6766   5.949   6.798  -0.365  1.1286  0.2287 -0.9906
  173ccc    H16 6767   6.006   6.636  -0.365 -0.4990 -1.5238 -0.9995
  173ccc    C10 6768   5.803   6.658  -0.296  0.1300  0.2678  0.5555
  173ccc     O4 6769   5.706   6.729  -0.281 -0.1792  0.4855  0.4419
  173ccc    C11 6770   5.386   6.086  -0.427  0.3475  0.2922  0.6981
  173ccc    C12 6771   5.522   6.157  -0.392  0.7615 -0.9044  0.2263
  173ccc    H17 6772   5.417   6.001  -0.489 -2.6544 -0.5126  0.1304
  173ccc    C13 6773   5.569   6.247  -0.506 -0.2958  0.1702 -0.5785
  173ccc    C14 6774   5.456   6.321  -0.572 -0.3009 -0.2440 -0.2497
  173ccc    C15 6775   5.339   6.224  -0.615 -0.4156  0.1367 -0.0950
  173ccc    H18 6776   5.410   6.381  -0.492  1.5248 -0.9812  1.4475
  173ccc    H19 6777   5.615   6.179  -0.579  0.0626  2.2796 -2.4460
  173ccc    H20 6778   5.373   6.144  -0.682  0.7777 -1.7763  2.5678
  173ccc     O1 6779   5.233   6.289  -0.672 -0.2017  0.4361 -0.0286
  173ccc     O6 6780   5.657   6.340  -0.445  0.1870 -0.1272  0.2528
  173ccc    C16 6781   5.312   6.033  -0.306  0.3114  0.0146  0.5759
  173ccc    H21 6782   5.746   6.323  -0.480  0.4424  0.5323  0.5661
  173ccc    H22 6783   5.551   6.352  -0.762  1.3647  0.8725 -0.9534
  173ccc    H23 6784   5.266   6.112  -0.246  1.0778  1.0333 -0.1373
  173ccc    H24 6785   5.381   5.980  -0.240  0.2686  1.1284  1.5490
  173ccc     O7 6786   5.200   5.947  -0.348 -0.2259  0.3094  0.2485
  173ccc    H25 6787   5.244   5.881  -0.404  0.6652 -0.7335  2.0711
  173ccc     O8 6788   5.293   6.171  -0.495 -0.0246 -0.1180 -0.1103
  173ccc    H26 6789   5.253   6.298  -0.767 -0.2017 -0.7686 -0.1508
  173ccc    H27 6790   5.496   6.230  -0.315 -2.5045 -0.2265 -1.3683
  173ccc     O9 6791   5.620   6.059  -0.360 -0.2043  0.2575 -0.1915
  173ccc    H28 6792   5.691   6.107  -0.315 -1.1556  0.0789  1.5721
  173ccc     N3 6793   5.505   6.406  -0.688  0.8402 -0.3994 -0.3161
  173ccc    C17 6794   5.608   6.355   0.112  0.3206 -0.0149  0.1378
  173ccc    C18 6795   5.751   6.427   0.139  0.0748  0.0280 -0.1712
  173ccc    H29 6796   5.631   6.257   0.069 -0.1516  1.0363 -2.7329
  173ccc    C19 6797   5.818   6.462   0.009  0.2255 -0.6689 -0.0332
  173ccc    C20 6798   5.722   6.524  -0.098  0.7319 -0.0611  0.1232
  173ccc    C21 6799   5.600   6.434  -0.115  0.0108  0.5218  0.5074
  173ccc    H30 6800   5.687   6.622  -0.065 -0.7704 -0.1042 -1.2191
  173ccc    H31 6801   5.865   6.370  -0.028  3.0556  0.7911 -0.3845
  173ccc    H32 6802   5.634   6.339  -0.158  1.2389  0.7209  1.0080
  173ccc    O10 6803   5.502   6.485  -0.208  0.2614  0.3834 -0.3841
  173ccc    O11 6804   5.926   6.556   0.035  0.2922  0.1650 -0.2380
  173ccc    C22 6805   5.537   6.325   0.245  0.1966 -0.1205  0.6719
  173ccc    H33 6806   5.988   6.504   0.089 -1.5928 -1.8078  0.1716
  173ccc    H34 6807   5.896   6.503  -0.205  0.1637 -0.3164  2.8360
  173ccc    H35 6808   5.605   6.286   0.321  0.6514 -0.2413  0.2117
  173ccc    H36 6809   5.464   6.245   0.224  2.0554 -2.2355  1.7833
  173ccc    O12 6810   5.480   6.443   0.307 -0.1607 -0.0873 -0.4028
  173ccc    H37 6811   5.389   6.410   0.320  0.7205 -3.3743 -1.6512
  173ccc    O13 6812   5.532   6.429   0.013  0.5725 -0.2845  0.6547
  173ccc    H38 6813   5.544   6.495  -0.295  1.2698 -0.3676 -0.0081
  173ccc    H39 6814   5.735   6.519   0.196  0.4240 -0.7465  1.2300
  173ccc     O5 6815   5.835   6.332   0.208  0.1870  0.7134  0.3405
  173ccc    H40 6816   5.835   6.252   0.153 -0.4633 -0.9277  2.5700
  173ccc     N4 6817   5.805   6.545  -0.223  0.6058 -0.2971  0.3592
  173ccc    H41 6818   5.679   6.708  -0.519  0.9517  0.3807  1.3059
  174ccc     N1 6819   2.176   5.363   2.325 -0.1622 -0.0967  0.3125
  174ccc     H4 6820   2.259   5.418   2.309  0.5669 -1.2727 -0.0138
  174ccc     C3 6821   2.194   5.226   2.379 -0.5382 -0.0228  0.1554
  174ccc     H5 6822   2.107   5.170   2.414  1.5649 -2.0526  2.5976
  174ccc     C4 6823   2.299   5.228   2.495 -0.5353  0.0678 -0.3905
  174ccc     H6 6824   2.246   5.167   2.303 -1.0655  1.0812 -1.0866
  174ccc     H7 6825   2.374   5.307   2.483  1.7515 -2.0606 -0.6497
  174ccc     H8 6826   2.353   5.133   2.495  0.3299  0.4279  2.8870
  174ccc     N2 6827   2.252   5.244   2.642  0.0358  0.5394  0.1356
  174ccc     C5 6828   2.252   5.397   2.674 -1.4021  0.5319  0.4805
  174ccc     C6 6829   2.341   5.164   2.742 -0.8978 -0.3627  0.6189
  174ccc     H9 6830   2.289   5.156   2.838  1.4306 -0.9736  1.9191
  174ccc     C7 6831   2.493   5.212   2.765  0.0114 -0.8791  0.8850
  174ccc    H10 6832   2.348   5.062   2.704 -0.5113 -0.4249  0.8520
  174ccc    H11 6833   2.499   5.311   2.813 -2.6199 -0.1008 -0.2468
  174ccc    H12 6834   2.548   5.211   2.670  0.4429  0.2068  1.1019
  174ccc     C8 6835   2.565   5.113   2.854  0.2111  0.4111  0.0892
  174ccc     O2 6836   2.517   5.054   2.951  0.2735  0.4403  0.3654
  174ccc    H13 6837   2.196   5.454   2.599 -1.1140  0.4382  0.1907
  174ccc    H14 6838   2.355   5.429   2.657 -1.8954  1.4438 -1.0542
  174ccc     C9 6839   2.228   5.449   2.813  0.3526 -0.7175 -0.0556
  174ccc    H15 6840   2.241   5.557   2.798 -0.3471 -0.4573  1.1095
  174ccc    H16 6841   2.304   5.416   2.885  0.2705 -1.9091 -0.4915
  174ccc    C10 6842   2.088   5.418   2.871 -0.4808 -0.0207  0.5374
  174ccc     O4 6843   2.009   5.331   2.826 -0.3196  0.1897 -0.7412
  174ccc    C11 6844   3.067   4.925   2.979 -0.4944 -0.9892  0.0880
  174ccc    C12 6845   2.996   5.027   3.074  0.2823  0.5496  0.5055
  174ccc    H17 6846   3.127   4.983   2.909 -2.1456 -1.4698 -1.8086
  174ccc    C13 6847   2.899   5.112   2.998  1.0331 -0.8390 -0.3015
  174ccc    C14 6848   2.799   5.025   2.911  0.2581 -0.0377  0.2271
  174ccc    C15 6849   2.873   4.918   2.827 -0.2082  0.1203  0.1579
  174ccc    H18 6850   2.746   4.959   2.982 -2.7235  2.0856  0.1876
  174ccc    H19 6851   2.958   5.176   2.931  1.7314  0.6306  1.6447
  174ccc    H20 6852   2.920   4.963   2.738 -1.6301  0.3158 -0.5308
  174ccc     O1 6853   2.779   4.822   2.777  0.0952  0.3120  0.4824
  174ccc     O6 6854   2.830   5.210   3.079  0.4326  0.2677 -0.8124
  174ccc    C16 6855   3.155   4.817   3.050  0.2233  0.1350  0.0883
  174ccc    H21 6856   2.770   5.259   3.021  0.2304 -1.0850 -1.7849
  174ccc    H22 6857   2.737   5.174   2.779 -0.3139  1.8940  1.7131
  174ccc    H23 6858   3.216   4.861   3.130  1.4881  0.0050 -0.7629
  174ccc    H24 6859   3.225   4.774   2.976  0.7901  0.2910  0.5264
  174ccc     O7 6860   3.065   4.717   3.112  0.0328 -0.3435  0.7496
  174ccc    H25 6861   3.013   4.674   3.042  0.3147  1.6263 -0.7703
  174ccc     O8 6862   2.965   4.848   2.909  0.1304 -0.1266 -0.0845
  174ccc    H26 6863   2.788   4.734   2.816  1.9347 -0.1536 -0.8227
  174ccc    H27 6864   2.946   4.957   3.142  2.4048 -1.7012 -0.1013
  174ccc     O9 6865   3.083   5.107   3.155 -0.3420  0.1972 -0.4620
  174ccc    H28 6866   3.118   5.176   3.096  1.5888 -0.1703  0.1619
  174ccc     N3 6867   2.698   5.109   2.848  0.5624  0.4321  0.8754
  174ccc    C17 6868   1.623   5.774   3.090 -0.6863  0.2423 -0.2019
  174ccc    C18 6869   1.636   5.689   2.913 -0.3952  0.3247 -0.6159
  174ccc    H29 6870   1.644   5.881   3.079  3.2309 -0.3649 -0.4151
  174ccc    C19 6871   1.794   5.574   2.863  0.3899 -0.4314  0.2246
  174ccc    C20 6872   1.920   5.520   3.016  0.6258  0.5496  0.1452
  174ccc    C21 6873   1.905   5.615   3.199 -0.6970  0.3958  0.4904
  174ccc    H30 6874   1.904   5.414   3.043  1.6743  0.8469  2.1129
  174ccc    H31 6875   1.856   5.636   2.797 -0.7586  0.8153  0.2673
  174ccc    H32 6876   1.991   5.683   3.203 -0.5170  0.1337  1.0336
  174ccc    O10 6877   1.917   5.526   3.317 -0.0033 -0.0475 -0.2983
  174ccc    O11 6878   1.761   5.463   2.784  0.2336 -0.0014  0.0012
  174ccc    C22 6879   1.484   5.779   3.150 -0.1944 -0.5833  0.0433
  174ccc    H33 6880   1.841   5.451   2.731  0.2376  1.6502 -0.4116
  174ccc    H34 6881   2.111   5.587   2.985  1.4808 -1.4028  0.2588
  174ccc    H35 6882   1.449   5.680   3.179  1.7315 -0.5620  2.8387
  174ccc    H36 6883   1.414   5.820   3.075  0.6179  0.1453 -0.3441
  174ccc    O12 6884   1.487   5.864   3.264  0.3084 -0.0252 -0.1059
  174ccc    H37 6885   1.394   5.886   3.278  0.5698 -0.4414  2.9956
  174ccc    O13 6886   1.758   5.728   3.227  0.2552 -0.0415  0.3314
  174ccc    H38 6887   1.953   5.571   3.395 -1.3501 -0.6876  0.7407
  174ccc    H39 6888   1.551   5.621   2.900  0.4240 -0.8139 -0.1464
  174ccc     O5 6889   1.604   5.781   2.813 -0.2344  0.0934  0.3932
  174ccc    H40 6890   1.559   5.731   2.742  0.1328  0.6336 -0.2285
  174ccc     N4 6891   2.053   5.505   2.967 -0.0965 -0.1380 -0.6146
  174ccc    H41 6892   2.153   5.217   2.641 -0.6276  2.7802 -0.6290
  175ccc     N1 6893   1.646   5.817   1.837  0.1057  0.0953  0.1466
  175ccc     H4 6894   1.639   5.731   1.783 -1.6317  1.3376 -1.7481
  175ccc     C3 6895   1.553   5.931   1.806  0.3820  0.1455  0.8106
  175ccc     H5 6896   1.569   6.024   1.861  0.2385  1.7815 -1.7295
  175ccc     C4 6897   1.405   5.881   1.809  0.1814 -0.1345 -0.2184
  175ccc     H6 6898   1.579   5.965   1.705  0.7138 -0.1339  0.7989
  175ccc     H7 6899   1.396   5.802   1.733 -0.5007  0.7532 -1.0757
  175ccc     H8 6900   1.339   5.963   1.779 -0.6764  0.1780  2.3237
  175ccc     N2 6901   1.354   5.825   1.945 -0.2850  0.1560  0.4291
  175ccc     C5 6902   1.208   5.780   1.931  0.0869  0.1647 -0.2741
  175ccc     C6 6903   1.365   5.928   2.050 -0.6197  0.0692 -0.3589
  175ccc     H9 6904   1.345   5.873   2.143  0.6769 -0.3573 -0.3029
  175ccc     C7 6905   1.277   6.053   2.042 -0.8804 -0.1213  0.5722
  175ccc    H10 6906   1.471   5.959   2.051 -0.0846 -1.4727  2.8583
  175ccc    H11 6907   1.168   6.041   2.033 -0.7767 -0.0614 -1.1996
  175ccc    H12 6908   1.297   6.126   1.962 -0.2648 -1.6429 -0.7001
  175ccc     C8 6909   1.292   6.139   2.171 -0.2069  0.1883  0.7950
  175ccc     O2 6910   1.222   6.130   2.268 -0.6380 -1.1151 -0.5330
  175ccc    H13 6911   1.154   5.856   1.874  1.0706  3.0028  2.2952
  175ccc    H14 6912   1.168   5.776   2.033 -1.1086  1.7457 -0.6401
  175ccc     C9 6913   1.200   5.642   1.857 -0.0887  0.0387  0.1740
  175ccc    H15 6914   1.271   5.571   1.902 -1.0687 -0.3616  1.1540
  175ccc    H16 6915   1.238   5.641   1.754  0.3300  2.0247  0.2738
  175ccc    C10 6916   1.067   5.580   1.850 -0.6299 -0.4474  0.3520
  175ccc     O4 6917   1.035   5.488   1.916  0.4482  0.1128 -0.3209
  175ccc    C11 6918   1.476   6.607   2.379 -0.3556  0.4646 -0.1004
  175ccc    C12 6919   1.323   6.563   2.370 -0.2545 -0.5653  0.0501
  175ccc    H17 6920   1.511   6.662   2.290 -3.0359  0.3017 -1.3445
  175ccc    C13 6921   1.302   6.459   2.258 -0.1081 -0.0307 -0.1603
  175ccc    C14 6922   1.398   6.336   2.269 -0.3079  0.4620 -0.0113
  175ccc    C15 6923   1.538   6.403   2.270  0.3573  0.5087  0.2356
  175ccc    H18 6924   1.398   6.279   2.363  0.0451 -2.8860 -1.8594
  175ccc    H19 6925   1.330   6.504   2.162  0.1192  0.6859  0.2356
  175ccc    H20 6926   1.558   6.470   2.186  1.8645  0.2993  0.3945
  175ccc     O1 6927   1.643   6.306   2.287 -0.0072  0.5269  0.0685
  175ccc     O6 6928   1.167   6.418   2.268 -0.4220 -0.3940  0.1239
  175ccc    C16 6929   1.509   6.687   2.500  0.6411 -0.5563 -0.4036
  175ccc    H21 6930   1.125   6.498   2.231  0.4360  0.3898  0.8066
  175ccc    H22 6931   1.440   6.252   2.074  1.6815 -3.8102 -0.2090
  175ccc    H23 6932   1.495   6.619   2.585 -0.8883 -0.4101 -0.5047
  175ccc    H24 6933   1.450   6.778   2.520  0.0346 -0.7430 -1.3178
  175ccc     O7 6934   1.646   6.721   2.498 -0.1457  0.0127 -0.6751
  175ccc    H25 6935   1.688   6.699   2.413 -0.4468 -2.2899 -0.2872
  175ccc     O8 6936   1.542   6.483   2.390 -0.0918  0.3722  0.6581
  175ccc    H26 6937   1.648   6.267   2.198 -0.2078 -0.5841  0.5199
  175ccc    H27 6938   1.287   6.532   2.469  1.1675 -1.1849  0.3983
  175ccc     O9 6939   1.248   6.674   2.322  1.0649 -0.2692 -0.0549
  175ccc    H28 6940   1.210   6.728   2.394  0.6185  0.0924 -0.5525
  175ccc     N3 6941   1.383   6.240   2.157  0.9776  0.0730  0.0222
  175ccc    C17 6942   0.595   5.503   1.828 -0.5869 -0.0988  0.1576
  175ccc    C18 6943   0.616   5.658   1.849 -0.1576 -0.0324 -0.0417
  175ccc    H29 6944   0.625   5.453   1.921  0.9355 -0.1078 -0.3122
  175ccc    C19 6945   0.764   5.684   1.874 -0.4357 -0.1680  0.3008
  175ccc    C20 6946   0.847   5.626   1.756 -0.4736 -0.4811 -0.1191
  175ccc    C21 6947   0.811   5.478   1.728  0.3004 -0.3724  0.0128
  175ccc    H30 6948   0.814   5.687   1.670  0.5097 -2.2698 -1.8491
  175ccc    H31 6949   0.802   5.638   1.966 -0.8824 -1.0768  0.0312
  175ccc    H32 6950   0.845   5.413   1.809  0.6640 -5.0157 -3.4562
  175ccc    O10 6951   0.872   5.426   1.607 -0.1891 -0.1454 -0.1328
  175ccc    O11 6952   0.780   5.829   1.891 -0.0523 -0.2978  0.1711
  175ccc    C22 6953   0.447   5.464   1.814 -0.2742  0.4356 -0.6534
  175ccc    H33 6954   0.857   5.851   1.947 -0.2886  2.1671 -0.3838
  175ccc    H34 6955   1.023   5.732   1.724  2.0135 -0.6179 -0.7492
  175ccc    H35 6956   0.398   5.510   1.728  1.0315  0.0321 -1.6492
  175ccc    H36 6957   0.397   5.484   1.909 -0.7636 -1.5943 -0.4394
  175ccc    O12 6958   0.441   5.316   1.797  0.4533  0.0263  0.5331
  175ccc    H37 6959   0.346   5.296   1.799  0.4449 -0.1454 -0.8442
  175ccc    O13 6960   0.671   5.460   1.714  0.1852  0.2048 -0.6151
  175ccc    H38 6961   0.812   5.355   1.578  0.8482 -0.5208 -1.4619
  175ccc    H39 6962   0.587   5.705   1.754  1.6735  0.0197 -0.6172
  175ccc     O5 6963   0.544   5.705   1.963 -0.2215 -0.4226 -0.3167
  175ccc    H40 6964   0.570   5.795   1.986  0.5796 -0.9347  0.8448
  175ccc     N4 6965   0.988   5.648   1.770  0.6171  0.0162 -0.5908
  175ccc    H41 6966   1.421   5.753   1.973  1.6410  2.1194  1.1693
  176ccc     N1 6967   2.133   6.690   2.603 -0.3697  0.3528 -0.2148
  176ccc     H4 6968   2.180   6.675   2.691 -1.3361 -1.3567  0.0650
  176ccc     C3 6969   1.982   6.715   2.602 -0.3111  0.5000 -0.4210
  176ccc     H5 6970   1.970   6.815   2.559 -1.0031  0.1835 -0.9950
  176ccc     C4 6971   1.922   6.698   2.739  0.3646  0.5031 -0.3089
  176ccc     H6 6972   1.929   6.646   2.535 -1.2895  0.4820  0.3517
  176ccc     H7 6973   1.908   6.802   2.771  2.8083  0.4619  1.2381
  176ccc     H8 6974   1.990   6.664   2.818  2.1384 -0.3034 -2.0890
  176ccc     N2 6975   1.793   6.621   2.750  0.8828 -0.4158 -0.2936
  176ccc     C5 6976   1.724   6.668   2.885 -0.6583  0.0843 -0.0280
  176ccc     C6 6977   1.810   6.469   2.752  1.3309  0.0427 -0.3725
  176ccc     H9 6978   1.914   6.442   2.729  0.5589 -1.7048 -2.1093
  176ccc     C7 6979   1.705   6.398   2.657 -0.1813 -0.0201 -0.4408
  176ccc    H10 6980   1.802   6.430   2.854 -0.1523 -0.0273 -0.4983
  176ccc    H11 6981   1.719   6.420   2.551 -0.8870 -1.4708 -0.8680
  176ccc    H12 6982   1.603   6.431   2.679  0.5386  1.4748  0.8889
  176ccc     C8 6983   1.709   6.244   2.665 -0.1151 -0.2492  0.1022
  176ccc     O2 6984   1.751   6.175   2.756  0.0362 -0.0258 -0.2873
  176ccc    H13 6985   1.738   6.777   2.890 -2.4425  0.3719 -0.4998
  176ccc    H14 6986   1.800   6.638   2.958  0.6232  0.7885 -1.0378
  176ccc     C9 6987   1.579   6.621   2.912  0.4135  0.0950 -0.6275
  176ccc    H15 6988   1.597   6.514   2.931  0.2816 -0.0777 -1.4314
  176ccc    H16 6989   1.516   6.628   2.822 -1.9049  1.3582  0.9929
  176ccc    C10 6990   1.509   6.674   3.036  0.7868  0.3425  0.2105
  176ccc     O4 6991   1.514   6.617   3.144  0.3147 -0.2607  0.2485
  176ccc    C11 6992   1.644   5.850   2.295  0.2788  0.4832  0.3065
  176ccc    C12 6993   1.781   5.876   2.366  0.8262  0.3260  0.0942
  176ccc    H17 6994   1.620   5.910   2.206  2.0343  1.8320  0.7048
  176ccc    C13 6995   1.781   6.010   2.440 -0.3811  0.2520 -0.1440
  176ccc    C14 6996   1.650   6.045   2.516  0.3431  0.6338 -0.0261
  176ccc    C15 6997   1.523   5.998   2.430 -0.0327 -0.1164 -0.2132
  176ccc    H18 6998   1.638   5.991   2.611  0.6322 -0.3792 -0.5465
  176ccc    H19 6999   1.812   6.085   2.367 -3.3537  0.4171 -1.4238
  176ccc    H20 7000   1.511   6.070   2.348 -2.3850  1.6248  1.5340
  176ccc     O1 7001   1.408   6.005   2.506  0.1329  0.3646  0.5374
  176ccc     O6 7002   1.887   5.993   2.537  0.2348 -0.3669  0.1826
  176ccc    C16 7003   1.623   5.703   2.239 -0.8187  0.2840 -0.3825
  176ccc    H21 7004   1.890   6.085   2.568 -2.3622 -0.4841  1.0340
  176ccc    H22 7005   1.650   6.243   2.469  3.6138  1.6091  1.1655
  176ccc    H23 7006   1.598   5.647   2.330 -1.5174  1.6682  0.3109
  176ccc    H24 7007   1.710   5.644   2.207 -0.7075  0.1738  0.1074
  176ccc     O7 7008   1.523   5.690   2.147 -0.5327 -0.5695  0.4779
  176ccc    H25 7009   1.442   5.681   2.200  0.8530 -0.1929  2.8037
  176ccc     O8 7010   1.539   5.863   2.396  0.0804  0.5801 -0.2231
  176ccc    H26 7011   1.426   6.076   2.570 -1.1811 -0.2977  1.7115
  176ccc    H27 7012   1.772   5.804   2.449 -2.6779  0.6992  0.2029
  176ccc     O9 7013   1.899   5.853   2.281  0.2017  0.2748 -0.2928
  176ccc    H28 7014   1.971   5.918   2.283 -0.5224  1.3784 -3.7113
  176ccc     N3 7015   1.653   6.189   2.555 -0.5966 -0.1056  0.4804
  176ccc    C17 7016   1.254   7.114   2.846 -0.0846 -0.2684 -0.4615
  176ccc    C18 7017   1.402   7.134   2.872 -0.0175 -1.0420  0.3879
  176ccc    H29 7018   1.194   7.133   2.936 -1.6026  1.5356 -1.7672
  176ccc    C19 7019   1.463   7.022   2.961  0.2807 -0.4656  0.3841
  176ccc    C20 7020   1.411   6.876   2.921 -0.1095  0.6114  0.5442
  176ccc    C21 7021   1.255   6.881   2.892 -0.4459 -0.2515  0.4895
  176ccc    H30 7022   1.470   6.845   2.834  0.5611  1.4955  0.6752
  176ccc    H31 7023   1.431   7.043   3.064  0.4342 -0.5885  0.4576
  176ccc    H32 7024   1.202   6.903   2.986  1.6926 -4.4508  3.0193
  176ccc    O10 7025   1.212   6.754   2.838  0.1102  0.6182  0.2837
  176ccc    O11 7026   1.608   7.026   2.964 -0.0499 -0.0602  0.1095
  176ccc    C22 7027   1.200   7.214   2.743 -0.2449 -0.3020  0.2080
  176ccc    H33 7028   1.645   7.010   3.052  0.7227  1.0739  0.0234
  176ccc    H34 7029   1.392   6.824   3.117  1.4925 -1.0190  0.6555
  176ccc    H35 7030   1.266   7.211   2.656  0.4453  2.0725  0.5707
  176ccc    H36 7031   1.213   7.318   2.776 -0.0034 -0.7470  1.5634
  176ccc    O12 7032   1.049   7.200   2.720 -0.0190  0.1909  0.2634
  176ccc    H37 7033   1.008   7.132   2.775 -2.6188 -2.8652 -4.6905
  176ccc    O13 7034   1.231   6.978   2.794 -0.1241  0.2272 -0.1857
  176ccc    H38 7035   1.130   6.761   2.786 -0.4295  0.0720  1.0336
  176ccc    H39 7036   1.457   7.128   2.777 -1.3000 -2.2314 -0.3293
  176ccc     O5 7037   1.423   7.256   2.938  0.2591 -0.0336  0.1763
  176ccc    H40 7038   1.498   7.245   2.998  0.0621 -0.8306  0.2927
  176ccc     N4 7039   1.437   6.788   3.033  0.1453  0.2794 -0.6658
  176ccc    H41 7040   1.734   6.653   2.672 -1.1784 -1.1568  0.8838
  177ccc     N1 7041   2.202   6.128   2.780  0.2185  0.0350  0.6054
  177ccc     H4 7042   2.236   6.033   2.780 -0.3959 -0.2150 -0.9247
  177ccc     C3 7043   2.071   6.155   2.841  0.1202  0.9908 -0.0736
  177ccc     H5 7044   2.079   6.248   2.899 -1.7977  0.5619  0.9666
  177ccc     C4 7045   2.032   6.026   2.923 -0.3377 -0.4377  0.8080
  177ccc     H6 7046   1.997   6.165   2.760  0.1726  0.5963 -0.1733
  177ccc     H7 7047   2.106   5.997   2.999 -1.0223  0.1260  1.7108
  177ccc     H8 7048   2.025   5.938   2.857  1.6737  0.7693 -1.1470
  177ccc     N2 7049   1.894   6.015   2.984  0.2086 -0.1120  0.3911
  177ccc     C5 7050   1.873   6.153   3.060 -0.5057 -0.1299  0.6816
  177ccc     C6 7051   1.881   5.893   3.082 -0.0293 -0.0410 -0.3103
  177ccc     H9 7052   1.977   5.886   3.135 -0.6752 -0.7803  0.8019
  177ccc     C7 7053   1.844   5.753   3.012 -0.1400  0.3998 -0.4085
  177ccc    H10 7054   1.813   5.920   3.163 -0.0400 -1.7235  0.2768
  177ccc    H11 7055   1.946   5.736   2.977  0.0688  1.2902 -0.2658
  177ccc    H12 7056   1.818   5.810   2.922 -0.6443 -0.4461 -0.8142
  177ccc     C8 7057   1.702   5.553   3.097  0.7471 -0.1411 -0.1391
  177ccc     O2 7058   1.642   5.523   3.207  0.3559 -0.2121 -0.0185
  177ccc    H13 7059   1.896   6.237   2.993 -0.2063 -1.6309 -1.1871
  177ccc    H14 7060   1.945   6.152   3.143 -0.9730  4.7310  1.4009
  177ccc     C9 7061   1.724   6.168   3.102 -0.8150 -0.2986  0.2267
  177ccc    H15 7062   1.717   6.103   3.190  0.2710 -0.1280  0.4536
  177ccc    H16 7063   1.659   6.146   3.017  1.4031 -0.5764 -1.4642
  177ccc    C10 7064   1.708   6.311   3.147  0.5299 -0.6874 -0.7853
  177ccc     O4 7065   1.795   6.398   3.127 -0.2439 -0.1145 -0.4796
  177ccc    C11 7066   1.497   5.037   3.081 -0.2199 -0.5672  0.6703
  177ccc    C12 7067   1.563   5.104   3.206  0.3559  0.3002  0.7335
  177ccc    H17 7068   1.583   4.993   3.031  0.2686  1.3410 -0.2807
  177ccc    C13 7069   1.656   5.222   3.173  0.9331 -0.6089  0.2397
  177ccc    C14 7070   1.577   5.316   3.084 -0.5100  0.1155  0.3206
  177ccc    C15 7071   1.522   5.240   2.959 -0.4672 -0.0920  0.2802
  177ccc    H18 7072   1.495   5.357   3.144  0.4384  2.4749  0.1118
  177ccc    H19 7073   1.743   5.184   3.119  1.6971  1.2233  0.0900
  177ccc    H20 7074   1.609   5.203   2.903  2.4688 -0.2630  4.5067
  177ccc     O1 7075   1.459   5.344   2.882  0.4557  0.3440  0.7269
  177ccc     O6 7076   1.698   5.277   3.297 -0.2774 -0.0922 -0.3056
  177ccc    C16 7077   1.392   4.936   3.132  0.2539 -0.4605 -0.0935
  177ccc    H21 7078   1.701   5.374   3.290 -2.4975  0.0978  0.6511
  177ccc    H22 7079   1.708   5.413   2.950 -0.4901 -0.2234 -0.4284
  177ccc    H23 7080   1.441   4.876   3.210  0.5178 -1.2273 -0.8392
  177ccc    H24 7081   1.362   4.877   3.045 -3.2408  0.6336  0.2167
  177ccc     O7 7082   1.274   5.008   3.179 -0.1285  0.2751  0.0325
  177ccc    H25 7083   1.264   5.007   3.276  0.4182 -2.1317  0.1274
  177ccc     O8 7084   1.429   5.138   3.001 -0.7623 -0.7248  0.8108
  177ccc    H26 7085   1.490   5.340   2.790 -0.8844 -1.0973  0.3021
  177ccc    H27 7086   1.489   5.137   3.280 -0.8549 -1.0182  0.1491
  177ccc     O9 7087   1.648   5.009   3.267 -0.1906 -0.3535 -0.3162
  177ccc    H28 7088   1.701   5.058   3.332 -1.2631 -1.9493  1.9200
  177ccc     N3 7089   1.656   5.438   3.034  0.4098 -0.6628  0.2805
  177ccc    C17 7090   1.186   6.198   3.192 -0.0614 -0.1661 -0.3239
  177ccc    C18 7091   1.259   6.231   3.058  0.8278 -0.1053 -0.4941
  177ccc    H29 7092   1.142   6.295   3.220  1.7236  0.9137 -1.1358
  177ccc    C19 7093   1.388   6.324   3.070 -0.7427 -0.4182 -0.3234
  177ccc    C20 7094   1.468   6.267   3.194 -0.3561 -0.2354 -0.9173
  177ccc    C21 7095   1.390   6.260   3.322  0.2672  0.5589 -0.3491
  177ccc    H30 7096   1.485   6.162   3.166 -3.4224 -0.9510 -0.4771
  177ccc    H31 7097   1.359   6.426   3.098  2.0818  0.0209  1.4728
  177ccc    H32 7098   1.345   6.355   3.352 -2.0883 -0.6569  0.2808
  177ccc    O10 7099   1.471   6.212   3.431 -1.3483 -0.4261 -0.0807
  177ccc    O11 7100   1.464   6.307   2.944 -0.6904  0.2700 -0.3189
  177ccc    C22 7101   1.067   6.100   3.180  0.1622 -0.4178 -0.2933
  177ccc    H33 7102   1.470   6.210   2.933 -1.0580  0.2292 -0.1669
  177ccc    H34 7103   1.579   6.443   3.234  1.6265 -0.1743  0.9655
  177ccc    H35 7104   1.103   6.018   3.118 -1.2874 -0.1162 -1.6035
  177ccc    H36 7105   0.982   6.149   3.131  0.9094  0.5284 -0.6772
  177ccc    O12 7106   1.021   6.061   3.307 -0.3290 -0.1838  0.6579
  177ccc    H37 7107   1.094   6.013   3.351 -0.6069 -0.5233  0.7574
  177ccc    O13 7108   1.276   6.164   3.307 -0.5507 -0.1164  0.5847
  177ccc    H38 7109   1.464   6.116   3.445 -0.9069 -0.7514 -1.9479
  177ccc    H39 7110   1.292   6.134   3.018  0.7957 -0.7320  0.9401
  177ccc     O5 7111   1.167   6.292   2.968 -0.4605 -0.2988  0.1580
  177ccc    H40 7112   1.109   6.217   2.945 -1.7167 -0.3449  3.0410
  177ccc     N4 7113   1.595   6.346   3.206  0.1637 -0.2896  0.4865
  177ccc    H41 7114   1.820   6.004   2.912  0.0550  1.7125  0.2121
  178ccc     N1 7115   2.208   4.271   2.324  0.2571  0.1031 -0.3296
  178ccc     H4 7116   2.256   4.267   2.235  0.1559 -0.2304 -0.3703
  178ccc     C3 7117   2.064   4.293   2.343 -0.0167  0.1165 -0.6960
  178ccc     H5 7118   2.034   4.284   2.448 -0.7097 -0.0489 -0.9018
  178ccc     C4 7119   1.966   4.202   2.260 -0.0825 -0.0360  0.9537
  178ccc     H6 7120   2.051   4.399   2.318  2.7259  0.5956 -0.4675
  178ccc     H7 7121   1.977   4.227   2.154 -2.7703 -1.5946  0.2307
  178ccc     H8 7122   1.862   4.224   2.287 -0.1793 -1.4193  1.8318
  178ccc     N2 7123   1.979   4.050   2.290 -0.1410  0.0558  0.4398
  178ccc     C5 7124   1.874   3.974   2.208 -0.2402 -0.5230  0.4968
  178ccc     C6 7125   1.966   4.018   2.443 -0.6721  0.2637  0.9653
  178ccc     H9 7126   1.981   3.910   2.452 -2.0073  0.0749  0.9819
  178ccc     C7 7127   1.842   4.063   2.529 -0.1024 -0.0040 -0.0096
  178ccc    H10 7128   2.060   4.046   2.494  0.0185  0.7671 -0.5222
  178ccc    H11 7129   1.758   3.993   2.516 -1.0170  0.7771  1.4394
  178ccc    H12 7130   1.811   4.163   2.496  1.7683 -0.2744 -3.0016
  178ccc     C8 7131   1.876   4.057   2.671  0.3535 -0.3555  0.1273
  178ccc     O2 7132   1.986   4.051   2.721  0.2068 -0.4645  0.1293
  178ccc    H13 7133   1.771   4.005   2.229 -0.1514 -0.2890  0.5959
  178ccc    H14 7134   1.885   3.869   2.234 -0.2044 -0.7066 -0.2372
  178ccc     C9 7135   1.892   3.966   2.057 -0.5719 -0.8986 -0.8195
  178ccc    H15 7136   1.830   3.879   2.030 -1.0156 -0.7365 -0.3377
  178ccc    H16 7137   1.990   3.922   2.034 -0.6448 -0.6155 -1.7337
  178ccc    C10 7138   1.849   4.099   1.982 -0.0158  0.1263  0.4263
  178ccc     O4 7139   1.786   4.192   2.032 -0.4786  0.1132  0.3685
  178ccc    C11 7140   1.561   4.431   3.033 -0.2917 -0.0870  0.4480
  178ccc    C12 7141   1.722   4.465   2.916 -0.7896 -0.7770 -0.1405
  178ccc    H17 7142   1.614   4.406   3.125  0.3176 -2.9819 -0.5824
  178ccc    C13 7143   1.789   4.323   2.778 -0.2127 -0.3373 -0.5636
  178ccc    C14 7144   1.680   4.158   2.753  0.6916 -0.8845  0.1670
  178ccc    C15 7145   1.515   4.127   2.875 -0.0804  0.5150  0.2635
  178ccc    H18 7146   1.628   4.168   2.656 -1.3400  0.5461  1.3242
  178ccc    H19 7147   1.869   4.272   2.832 -0.0960  1.1262  0.6773
  178ccc    H20 7148   1.546   4.036   2.928 -0.5943 -0.3852 -0.9274
  178ccc     O1 7149   1.399   4.086   2.805  0.3225  0.2958  0.3933
  178ccc     O6 7150   1.872   4.373   2.668 -0.1188  0.4865  0.1585
  178ccc    C16 7151   1.480   4.554   3.073  0.0852  0.3875  0.6087
  178ccc    H21 7152   1.821   4.368   2.585 -0.1221  2.4321 -0.0131
  178ccc    H22 7153   1.782   4.028   2.849  0.3526 -0.3129  0.2018
  178ccc    H23 7154   1.378   4.513   3.080  0.7689 -1.8609 -1.3451
  178ccc    H24 7155   1.481   4.635   3.000  1.6801  0.9753  1.2321
  178ccc     O7 7156   1.514   4.596   3.197 -0.1501  0.4590 -0.5695
  178ccc    H25 7157   1.426   4.607   3.239  0.2170 -0.6807  0.5712
  178ccc     O8 7158   1.468   4.255   3.007 -0.6941 -0.1727  0.0937
  178ccc    H26 7159   1.397   3.989   2.811  0.9004  0.1709 -1.0624
  178ccc    H27 7160   1.701   4.562   2.870  2.4021 -0.2118 -0.6289
  178ccc     O9 7161   1.837   4.487   3.007  0.1641 -0.2097  0.0006
  178ccc    H28 7162   1.848   4.418   3.074 -1.2291 -2.5804 -2.0364
  178ccc     N3 7163   1.766   4.043   2.750 -0.4865  0.2519  0.4152
  178ccc    C17 7164   1.949   3.893   1.488  0.5343 -0.0968  0.2933
  178ccc    C18 7165   2.048   3.994   1.532  0.4493 -0.3724  0.3015
  178ccc    H29 7166   1.881   3.926   1.408 -2.1280 -1.0639  2.0312
  178ccc    C19 7167   1.988   4.104   1.629  0.1169 -0.0728 -0.2844
  178ccc    C20 7168   1.934   4.029   1.753  0.0416  0.3798  0.5473
  178ccc    C21 7169   1.828   3.934   1.696 -0.0694 -0.5257  0.0344
  178ccc    H30 7170   2.013   3.965   1.794 -0.1527 -0.8528 -0.9351
  178ccc    H31 7171   1.894   4.138   1.584 -1.1693 -2.9998 -0.0447
  178ccc    H32 7172   1.753   3.983   1.633  1.0085  0.0788 -0.8057
  178ccc    O10 7173   1.770   3.857   1.797 -0.6373  0.1803 -0.2887
  178ccc    O11 7174   2.089   4.193   1.668 -0.3347 -0.1999  0.3552
  178ccc    C22 7175   2.021   3.767   1.430  0.0345  0.3259  0.2504
  178ccc    H33 7176   2.089   4.191   1.765 -1.9182  0.2449  0.4043
  178ccc    H34 7177   1.800   4.170   1.806 -0.6459 -0.2190  0.5154
  178ccc    H35 7178   2.074   3.707   1.506 -0.6837  1.7673  1.9608
  178ccc    H36 7179   2.099   3.807   1.363  2.0288  1.5278  3.0818
  178ccc    O12 7180   1.927   3.689   1.347  0.2394  0.1290 -0.5901
  178ccc    H37 7181   1.869   3.645   1.411  2.1631 -1.9882 -0.1802
  178ccc    O13 7182   1.889   3.841   1.610 -0.2586  0.2161 -0.1479
  178ccc    H38 7183   1.724   3.792   1.741 -0.0355  1.3125 -2.1865
  178ccc    H39 7184   2.117   3.939   1.596  0.9978 -0.2150 -0.1478
  178ccc     O5 7185   2.119   4.057   1.430  0.3131 -0.3793  0.3911
  178ccc    H40 7186   2.131   4.148   1.462  0.9297 -0.4395  0.3267
  178ccc     N4 7187   1.874   4.121   1.855 -0.2868 -0.4948 -0.2824
  178ccc    H41 7188   2.072   4.020   2.256  0.5159  1.0066  1.3056
  179ccc     N1 7189   2.772   3.877   2.582  0.1817  0.5547  0.8184
  179ccc     H4 7190   2.672   3.876   2.566  0.2590  1.7205  0.1688
  179ccc     C3 7191   2.828   3.799   2.690 -0.3314  0.4175 -0.0491
  179ccc     H5 7192   2.898   3.726   2.648  3.0556  1.9047  2.5782
  179ccc     C4 7193   2.717   3.718   2.766  0.8128 -0.0643 -0.3064
  179ccc     H6 7194   2.891   3.862   2.753  0.2056  1.4164 -1.5259
  179ccc     H7 7195   2.757   3.674   2.857 -1.0235 -0.4690  0.3502
  179ccc     H8 7196   2.701   3.630   2.703  1.1200  0.4288 -1.0878
  179ccc     N2 7197   2.581   3.778   2.808  0.0965  0.1379 -0.4404
  179ccc     C5 7198   2.608   3.894   2.892 -1.3864 -0.7811 -0.0238
  179ccc     C6 7199   2.495   3.668   2.871  0.2251 -1.0260 -0.7119
  179ccc     H9 7200   2.522   3.574   2.822 -0.0310 -0.5209 -1.8641
  179ccc     C7 7201   2.338   3.684   2.853 -0.6515  0.8348  0.3781
  179ccc    H10 7202   2.506   3.657   2.980 -0.8487  1.8297 -0.2377
  179ccc    H11 7203   2.291   3.766   2.909  0.1515 -0.3634  2.9710
  179ccc    H12 7204   2.287   3.599   2.899  1.1011 -0.8135 -0.6029
  179ccc     C8 7205   2.295   3.702   2.705 -0.3277  0.2811 -0.7510
  179ccc     O2 7206   2.362   3.758   2.620 -0.5673  0.2717  0.2548
  179ccc    H13 7207   2.692   3.940   2.838 -0.6145  0.9688  2.4526
  179ccc    H14 7208   2.649   3.862   2.989 -1.9757  0.9735  0.8520
  179ccc     C9 7209   2.493   4.001   2.912 -0.5616  0.2068  0.2706
  179ccc    H15 7210   2.534   4.088   2.965  1.9856 -1.2845  0.8879
  179ccc    H16 7211   2.417   3.956   2.977  1.0593 -0.5946  1.6693
  179ccc    C10 7212   2.430   4.055   2.781  0.2489  0.0999  0.1816
  179ccc     O4 7213   2.462   4.029   2.667 -0.6209 -0.1802  0.0438
  179ccc    C11 7214   1.999   3.514   2.320 -0.3263 -0.1169 -0.1766
  179ccc    C12 7215   1.906   3.607   2.409 -0.1661  0.2923 -0.2018
  179ccc    H17 7216   2.002   3.415   2.368  0.8062  0.4878  1.0800
  179ccc    C13 7217   1.963   3.624   2.551 -0.2990 -0.2185 -0.0908
  179ccc    C14 7218   2.114   3.656   2.548  0.1112  0.5937  0.1107
  179ccc    C15 7219   2.198   3.577   2.443 -0.4089 -0.1555 -0.1760
  179ccc    H18 7220   2.112   3.763   2.523  0.4879  1.5454  3.6060
  179ccc    H19 7221   1.952   3.530   2.608 -1.0825  0.1012  0.2953
  179ccc    H20 7222   2.299   3.615   2.426 -1.2956  1.5056 -2.0992
  179ccc     O1 7223   2.219   3.444   2.483 -0.3139 -0.1204  0.2966
  179ccc     O6 7224   1.899   3.726   2.621  0.6098  0.5681  0.2933
  179ccc    C16 7225   1.945   3.503   2.177  0.1245  0.2435 -0.2139
  179ccc    H21 7226   1.812   3.704   2.657  0.3422  0.4380 -0.4216
  179ccc    H22 7227   2.120   3.590   2.744  1.0675 -1.3203 -0.0243
  179ccc    H23 7228   1.843   3.463   2.179  1.1360 -2.6260 -1.3972
  179ccc    H24 7229   1.999   3.428   2.117 -0.8969 -1.1312  0.5404
  179ccc     O7 7230   1.957   3.631   2.110  0.2886 -0.5182  0.1968
  179ccc    H25 7231   2.049   3.659   2.128  0.1462  0.7529 -0.8830
  179ccc     O8 7232   2.130   3.578   2.324  0.1424  0.3792  0.2251
  179ccc    H26 7233   2.281   3.447   2.557  0.3908 -0.3401 -0.2681
  179ccc    H27 7234   1.894   3.708   2.367  1.7643  0.7769  0.3138
  179ccc     O9 7235   1.780   3.548   2.436 -0.1095  0.3371 -0.2909
  179ccc    H28 7236   1.754   3.559   2.529 -0.7256 -0.2549 -0.3876
  179ccc     N3 7237   2.181   3.637   2.678  0.3602  0.4678  0.5437
  179ccc    C17 7238   2.128   4.424   3.037 -0.4547 -0.4557  0.4667
  179ccc    C18 7239   2.104   4.275   3.067 -0.6937 -0.1850  0.5138
  179ccc    H29 7240   2.065   4.452   2.952 -2.2039 -0.9242  1.5702
  179ccc    C19 7241   2.140   4.185   2.945 -0.2858  0.5724 -0.1662
  179ccc    C20 7242   2.283   4.222   2.905 -0.4513 -0.5538 -0.3055
  179ccc    C21 7243   2.301   4.372   2.877  0.1803  1.0454 -0.6912
  179ccc    H30 7244   2.346   4.204   2.992 -0.7376 -0.7942 -0.1474
  179ccc    H31 7245   2.069   4.213   2.866  0.6608 -0.1311 -1.2966
  179ccc    H32 7246   2.234   4.394   2.793 -0.3903 -0.5058 -0.6776
  179ccc    O10 7247   2.428   4.402   2.840 -0.8359  0.2063  0.0773
  179ccc    O11 7248   2.136   4.044   2.972 -0.2690  0.1588 -0.4316
  179ccc    C22 7249   2.096   4.501   3.165 -0.3007 -0.7582 -0.2377
  179ccc    H33 7250   2.072   3.995   2.917  0.2521 -0.1200 -0.8009
  179ccc    H34 7251   2.276   4.167   2.704 -0.4764  1.0084  0.0509
  179ccc    H35 7252   1.988   4.516   3.175 -0.6649 -2.0358 -1.9347
  179ccc    H36 7253   2.141   4.601   3.154 -1.2219 -0.3101 -0.0416
  179ccc    O12 7254   2.152   4.443   3.277  0.6563  0.3627 -0.2807
  179ccc    H37 7255   2.154   4.502   3.354  0.6374  3.9597 -2.7436
  179ccc    O13 7256   2.265   4.451   2.993 -0.2096 -0.3905  0.0640
  179ccc    H38 7257   2.477   4.406   2.925 -1.0309  0.7165  0.1672
  179ccc    H39 7258   2.184   4.252   3.139  0.3212  1.4350 -0.0355
  179ccc     O5 7259   1.975   4.238   3.110  0.2074 -0.6037  0.7321
  179ccc    H40 7260   1.998   4.197   3.195  0.7350  0.8298  1.3207
  179ccc     N4 7261   2.326   4.138   2.788 -0.3732  0.6061 -0.1478
  179ccc    H41 7262   2.535   3.818   2.725 -1.9953 -0.4545  0.3654
  180ccc     N1 7263   2.119   4.569   1.148 -0.0508  0.3531  0.1997
  180ccc     H4 7264   2.191   4.498   1.150 -0.2229  0.2027  1.3687
  180ccc     C3 7265   2.087   4.644   1.023  0.6855  0.3212  0.1395
  180ccc     H5 7266   2.067   4.574   0.941 -0.2237 -0.9252  1.3763
  180ccc     C4 7267   2.194   4.748   0.988  0.3155  0.0181  0.3292
  180ccc     H6 7268   1.993   4.692   1.053 -0.3616 -1.0233 -0.8504
  180ccc     H7 7269   2.293   4.704   0.973  0.4152 -0.2099  1.5821
  180ccc     H8 7270   2.212   4.809   1.077  2.2479 -1.5354  1.0635
  180ccc     N2 7271   2.181   4.848   0.874 -0.3133  0.4625  0.4634
  180ccc     C5 7272   2.059   4.946   0.894 -0.2661 -0.4477 -0.0289
  180ccc     C6 7273   2.164   4.778   0.733 -0.4945  0.2304  0.2408
  180ccc     H9 7274   2.230   4.691   0.736  2.0585  1.9145 -2.3116
  180ccc     C7 7275   2.209   4.863   0.617 -0.2526 -0.1225  0.7438
  180ccc    H10 7276   2.061   4.742   0.726  0.2315 -2.2776  1.5158
  180ccc    H11 7277   2.313   4.895   0.632 -0.2919 -0.7208  2.5193
  180ccc    H12 7278   2.148   4.954   0.609  1.6977  1.2917  1.0419
  180ccc     C8 7279   2.202   4.789   0.483 -0.2721  0.0431 -0.3241
  180ccc     O2 7280   2.178   4.671   0.469 -0.1872 -0.7035 -0.0622
  180ccc    H13 7281   2.048   4.954   1.003  1.0662  2.3065 -0.0124
  180ccc    H14 7282   1.971   4.898   0.851  0.9503 -1.4990 -1.4464
  180ccc     C9 7283   2.074   5.091   0.853 -0.3158  1.1017  0.3380
  180ccc    H15 7284   2.014   5.150   0.923 -0.8885 -0.6654  1.4005
  180ccc    H16 7285   2.039   5.112   0.751 -1.4303  2.3098  0.9493
  180ccc    C10 7286   2.218   5.135   0.871  0.4854  0.1400  0.4054
  180ccc     O4 7287   2.296   5.168   0.778 -0.3568 -0.4901  0.9386
  180ccc    C11 7288   2.241   4.844  -0.043 -0.4105 -0.1122  0.8131
  180ccc    C12 7289   2.386   4.863   0.015  0.0200  0.2693  0.0851
  180ccc    H17 7290   2.208   4.948  -0.043  2.3179  0.8538 -0.5622
  180ccc    C13 7291   2.375   4.906   0.161  0.0159  0.1841  0.7971
  180ccc    C14 7292   2.273   4.818   0.240  0.2774 -0.3134  0.0492
  180ccc    C15 7293   2.134   4.806   0.167  0.4125  0.0288  0.6449
  180ccc    H18 7294   2.309   4.716   0.254 -0.3178 -0.4340  0.7404
  180ccc    H19 7295   2.347   5.011   0.174  2.3993  1.0122 -0.3648
  180ccc    H20 7296   2.076   4.899   0.172  0.2542 -0.1214  2.1708
  180ccc     O1 7297   2.044   4.709   0.211 -0.1586 -0.0082  0.2513
  180ccc     O6 7298   2.509   4.895   0.219 -0.7197 -0.3143  0.0714
  180ccc    C16 7299   2.244   4.790  -0.183  0.1244  0.4518  0.5687
  180ccc    H21 7300   2.510   4.822   0.283  1.7774  0.2644  0.8260
  180ccc    H22 7301   2.304   4.946   0.404 -0.1249  0.5002 -4.0749
  180ccc    H23 7302   2.270   4.684  -0.179  2.2923  0.9593  1.6005
  180ccc    H24 7303   2.317   4.832  -0.253  2.2526 -1.1361  1.7054
  180ccc     O7 7304   2.116   4.806  -0.240  0.6721 -0.0407  0.3771
  180ccc    H25 7305   2.061   4.740  -0.194  1.4964  0.7297  2.5926
  180ccc     O8 7306   2.160   4.762   0.031 -0.1198  0.2220  0.7324
  180ccc    H26 7307   2.093   4.627   0.194  0.9725  0.7110 -0.0378
  180ccc    H27 7308   2.436   4.765   0.012  0.5378  0.4901  1.1671
  180ccc     O9 7309   2.459   4.956  -0.060  0.0897 -0.1994  0.1142
  180ccc    H28 7310   2.531   4.985  -0.001  0.2791  4.1042 -1.8194
  180ccc     N3 7311   2.252   4.861   0.381 -0.0354 -0.5850 -0.7871
  180ccc    C17 7312   2.581   5.135   1.260  0.6777  0.3211  0.2077
  180ccc    C18 7313   2.605   5.038   1.143 -0.0069 -0.1193  0.3792
  180ccc    H29 7314   2.514   5.076   1.323  1.3521 -0.9657 -0.2465
  180ccc    C19 7315   2.471   5.028   1.070 -0.4850  0.5316 -0.2281
  180ccc    C20 7316   2.392   5.157   1.043 -0.0396 -0.2745  0.1720
  180ccc    C21 7317   2.383   5.247   1.170  0.3374  1.0108  0.1525
  180ccc    H30 7318   2.451   5.217   0.972 -0.6072  1.3752  1.0407
  180ccc    H31 7319   2.412   4.969   1.142 -1.8632  2.9149  0.6947
  180ccc    H32 7320   2.322   5.191   1.241  1.9681 -1.6453 -0.3896
  180ccc    O10 7321   2.344   5.379   1.152 -0.0342  0.3277  0.0023
  180ccc    O11 7322   2.488   4.955   0.948 -0.2078  1.1200  0.4694
  180ccc    C22 7323   2.714   5.171   1.329  0.1871 -0.0798 -0.4767
  180ccc    H33 7324   2.546   4.880   0.970 -3.5560 -1.4013  1.7560
  180ccc    H34 7325   2.195   5.098   1.079 -0.7578 -0.3203 -1.2748
  180ccc    H35 7326   2.776   5.092   1.374  2.1024  1.3284 -0.4996
  180ccc    H36 7327   2.681   5.231   1.414  0.9013 -1.1773  0.6167
  180ccc    O12 7328   2.800   5.249   1.251 -0.5377  0.2898 -0.0961
  180ccc    H37 7329   2.884   5.200   1.249 -0.8455 -0.2686  0.2733
  180ccc    O13 7330   2.521   5.259   1.216  0.0741 -0.1031 -0.3929
  180ccc    H38 7331   2.259   5.369   1.107 -0.9966 -0.9221  1.9363
  180ccc    H39 7332   2.665   5.088   1.067 -1.8067 -0.4083 -1.3076
  180ccc     O5 7333   2.654   4.912   1.186  0.2961  0.7208 -0.1784
  180ccc    H40 7334   2.735   4.893   1.137  0.4641 -3.8673  1.3474
  180ccc     N4 7335   2.252   5.127   0.999  1.0813  0.5314  0.2886
  180ccc    H41 7336   2.276   4.888   0.881 -0.4643  0.9988 -0.4061
  181ccc     N1 7337   1.698   4.539   1.887  0.0557  0.3601 -0.0044
  181ccc     H4 7338   1.657   4.514   1.798 -0.0411 -3.6041  0.9843
  181ccc     C3 7339   1.601   4.589   1.981 -0.1502  0.6652  0.1016
  181ccc     H5 7340   1.658   4.601   2.075 -0.6598 -1.1371  0.6787
  181ccc     C4 7341   1.491   4.496   1.998  0.1743 -0.2237  0.7201
  181ccc     H6 7342   1.557   4.685   1.952  0.9500  0.9886 -0.5791
  181ccc     H7 7343   1.434   4.495   1.904 -0.5002  3.3993  0.9438
  181ccc     H8 7344   1.417   4.525   2.074 -0.2677 -1.9912  1.0192
  181ccc     N2 7345   1.526   4.352   2.040  0.3499  0.6166  0.3734
  181ccc     C5 7346   1.392   4.262   2.047  0.4917  0.6158  0.7925
  181ccc     C6 7347   1.592   4.349   2.181 -0.2259 -0.3730 -0.3271
  181ccc     H9 7348   1.599   4.242   2.204  1.1327 -0.5659 -1.5279
  181ccc     C7 7349   1.530   4.414   2.296 -0.1285 -0.5760 -0.8898
  181ccc    H10 7350   1.691   4.395   2.174  0.3926 -1.0437  2.7753
  181ccc    H11 7351   1.426   4.380   2.296 -0.6031  0.8085 -0.3294
  181ccc    H12 7352   1.524   4.523   2.283 -0.2478 -0.2348  1.5280
  181ccc     C8 7353   1.613   4.403   2.428 -0.0249  0.0155 -0.1049
  181ccc     O2 7354   1.734   4.411   2.436  0.0352  0.1327 -0.0229
  181ccc    H13 7355   1.337   4.282   1.954  1.9488  0.2988 -0.1654
  181ccc    H14 7356   1.321   4.301   2.121  0.7446  2.0398  0.3166
  181ccc     C9 7357   1.409   4.111   2.056 -0.2900  0.2021 -0.7653
  181ccc    H15 7358   1.310   4.065   2.070 -0.5236  1.0207  0.4244
  181ccc    H16 7359   1.466   4.089   2.147  0.7235  0.4799 -1.3181
  181ccc    C10 7360   1.497   4.035   1.953 -0.6345 -0.1228 -0.3908
  181ccc     O4 7361   1.549   4.086   1.853  0.0974 -0.1587  0.0647
  181ccc    C11 7362   1.333   4.545   2.767  0.8374  0.1193  0.2058
  181ccc    C12 7363   1.385   4.405   2.821 -0.1370 -0.0153 -0.3140
  181ccc    H17 7364   1.307   4.527   2.662 -4.3864 -1.7361  1.5315
  181ccc    C13 7365   1.542   4.357   2.801  0.0450  0.2900  0.3631
  181ccc    C14 7366   1.579   4.461   2.671 -0.1347  0.0951 -0.4520
  181ccc    C15 7367   1.519   4.607   2.666  0.1092 -0.2433  0.0490
  181ccc    H18 7368   1.686   4.484   2.659  0.3080 -0.6372  1.6583
  181ccc    H19 7369   1.508   4.289   2.722 -0.3984  2.1100 -1.0687
  181ccc    H20 7370   1.467   4.625   2.571  1.0982  0.6741 -0.3427
  181ccc     O1 7371   1.632   4.698   2.667  0.6017  0.3282  0.0101
  181ccc     O6 7372   1.679   4.252   2.960 -0.1950  0.0506 -0.3117
  181ccc    C16 7373   1.208   4.607   2.842 -0.2154  0.4571 -0.2752
  181ccc    H21 7374   1.613   4.243   3.031 -0.2439 -1.9363 -0.5496
  181ccc    H22 7375   1.442   4.364   2.538  0.2050 -1.2880 -0.0535
  181ccc    H23 7376   1.241   4.641   2.941  3.1663  0.5562 -1.3287
  181ccc    H24 7377   1.138   4.522   2.847 -1.8021  1.7751  1.6418
  181ccc     O7 7378   1.157   4.708   2.765 -0.3146  0.2668  0.0761
  181ccc    H25 7379   1.244   4.741   2.738 -0.1220  0.8935  1.4018
  181ccc     O8 7380   1.430   4.637   2.776 -0.1763  0.1514  0.4876
  181ccc    H26 7381   1.638   4.723   2.573 -4.5616  1.8776 -0.2019
  181ccc    H27 7382   1.341   4.401   2.921 -4.8891 -0.3159 -2.1557
  181ccc     O9 7383   1.288   4.323   2.764 -0.2472  0.0577 -0.6203
  181ccc    H28 7384   1.306   4.234   2.800 -1.8888 -0.5154 -1.1118
  181ccc     N3 7385   1.537   4.402   2.539 -0.3616  0.2421 -0.6845
  181ccc    C17 7386   1.346   3.546   2.088  0.1985 -0.2951  0.3010
  181ccc    C18 7387   1.465   3.593   2.178 -0.7958  0.2541  0.3134
  181ccc    H29 7388   1.382   3.494   1.998 -2.9227  2.4457 -2.8099
  181ccc    C19 7389   1.547   3.699   2.108  0.6855  0.1863 -0.9405
  181ccc    C20 7390   1.458   3.815   2.049  0.1508  0.3077 -0.0635
  181ccc    C21 7391   1.347   3.757   1.963 -0.6833 -0.2471 -0.0572
  181ccc    H30 7392   1.406   3.862   2.134 -0.0684  0.7738 -0.4542
  181ccc    H31 7393   1.605   3.643   2.035 -0.5757 -2.3015 -0.1574
  181ccc    H32 7394   1.389   3.721   1.868 -0.1625 -1.6809  0.7007
  181ccc    O10 7395   1.243   3.857   1.947  0.2602  0.0105  0.2244
  181ccc    O11 7396   1.629   3.754   2.212 -0.0725 -0.2909 -0.0665
  181ccc    C22 7397   1.240   3.456   2.154 -0.2011  0.5264  0.6861
  181ccc    H33 7398   1.669   3.685   2.267 -2.5195  0.2627  2.7223
  181ccc    H34 7399   1.607   3.866   1.921 -1.3888  0.5474 -1.7892
  181ccc    H35 7400   1.295   3.367   2.189 -1.6416 -1.3802 -1.5872
  181ccc    H36 7401   1.174   3.420   2.074 -0.2758  1.2893  0.4039
  181ccc    O12 7402   1.167   3.514   2.261  0.5039 -0.2425  0.4970
  181ccc    H37 7403   1.111   3.584   2.225 -2.9450 -2.2834  1.4534
  181ccc    O13 7404   1.279   3.655   2.038  0.0467 -0.0687  0.0829
  181ccc    H38 7405   1.165   3.801   1.931 -1.7965  2.0534  2.3059
  181ccc    H39 7406   1.437   3.640   2.273  1.2878  0.1204  1.0466
  181ccc     O5 7407   1.551   3.479   2.216  0.4023  0.1763 -0.2479
  181ccc    H40 7408   1.512   3.449   2.300 -2.5869  0.8797 -1.2383
  181ccc     N4 7409   1.539   3.915   1.980 -0.2153 -0.5839  0.6517
  181ccc    H41 7410   1.590   4.303   1.976  0.3867 -1.6300  2.0220
  182ccc     N1 7411   3.438   6.119   3.693 -0.2440 -0.2205  0.2765
  182ccc     H4 7412   3.364   6.096   3.758  0.2905  2.1311  1.8201
  182ccc     C3 7413   3.443   6.051   3.567  0.3735 -0.0018 -0.0873
  182ccc     H5 7414   3.467   6.126   3.491 -1.1336 -1.0161 -1.6257
  182ccc     C4 7415   3.306   5.979   3.532  0.3674 -0.7599  0.0950
  182ccc     H6 7416   3.526   5.978   3.574 -0.1562 -0.4988  1.5405
  182ccc     H7 7417   3.313   5.972   3.422  0.3174  1.0335 -0.0393
  182ccc     H8 7418   3.226   6.043   3.571  1.5613  0.4505  0.5920
  182ccc     N2 7419   3.285   5.835   3.585 -0.5393 -0.3934  0.1528
  182ccc     C5 7420   3.390   5.733   3.533 -0.4546 -0.1207  0.4885
  182ccc     C6 7421   3.145   5.799   3.552 -0.1171 -0.1595 -0.0226
  182ccc     H9 7422   3.072   5.865   3.602  0.1632 -0.5191  0.8777
  182ccc     C7 7423   3.114   5.653   3.604  0.0597 -0.1902  0.3142
  182ccc    H10 7424   3.146   5.799   3.443  3.3546 -0.3665 -0.1028
  182ccc    H11 7425   3.135   5.642   3.711 -0.5632  1.9099  0.6929
  182ccc    H12 7426   3.170   5.582   3.542  3.1501  2.0301  0.3296
  182ccc     C8 7427   2.966   5.618   3.583 -0.1978 -0.1990  0.4859
  182ccc     O2 7428   2.882   5.689   3.529  0.1456  0.3670  0.1262
  182ccc    H13 7429   3.376   5.635   3.579  2.0949 -0.1413  1.3352
  182ccc    H14 7430   3.487   5.769   3.568  0.7006 -2.9085  0.4015
  182ccc     C9 7431   3.400   5.719   3.381  0.2303  0.0834  0.3542
  182ccc    H15 7432   3.455   5.803   3.337  0.7510  0.1743  1.1569
  182ccc    H16 7433   3.304   5.709   3.330  1.4556  1.1019 -2.3375
  182ccc    C10 7434   3.482   5.596   3.349 -0.0119 -0.2827 -0.1723
  182ccc     O4 7435   3.566   5.557   3.430  0.1049 -0.5928 -0.1655
  182ccc    C11 7436   2.806   5.357   3.871 -0.3004  0.0385 -0.5513
  182ccc    C12 7437   2.725   5.481   3.855 -0.0451  0.5673 -0.1886
  182ccc    H17 7438   2.909   5.386   3.847  0.1347 -0.6272  0.4446
  182ccc    C13 7439   2.696   5.498   3.704  0.3025  0.4430  0.2048
  182ccc    C14 7440   2.803   5.424   3.607  0.3274 -0.2900  0.4922
  182ccc    C15 7441   2.819   5.259   3.633  0.2269  0.2054  0.1336
  182ccc    H18 7442   2.762   5.452   3.509  0.1908 -1.1896  0.2854
  182ccc    H19 7443   2.697   5.607   3.691 -2.1845  0.6276  1.0716
  182ccc    H20 7444   2.916   5.278   3.679 -0.1578  0.4999  0.8506
  182ccc     O1 7445   2.834   5.078   3.491 -0.0382  0.4022 -0.4968
  182ccc     O6 7446   2.557   5.462   3.682 -0.5146 -0.1890  0.3579
  182ccc    C16 7447   2.787   5.303   4.012 -0.1181  0.2066 -0.1946
  182ccc    H21 7448   2.521   5.402   3.749 -1.7847 -0.1044 -0.2220
  182ccc    H22 7449   3.005   5.442   3.676  0.9340 -0.8282 -0.5564
  182ccc    H23 7450   2.682   5.276   4.031  0.8347 -3.0333  1.1364
  182ccc    H24 7451   2.821   5.377   4.086 -1.4680  0.2934  0.3761
  182ccc     O7 7452   2.858   5.182   4.024 -0.4823  0.5547  0.0146
  182ccc    H25 7453   2.863   5.158   4.118  0.7972 -2.0600 -0.6247
  182ccc     O8 7454   2.763   5.256   3.770  0.0656 -0.2987  0.7086
  182ccc    H26 7455   2.739   5.059   3.483  0.0368  0.0808 -0.6258
  182ccc    H27 7456   2.629   5.469   3.905 -0.7746  2.8548 -0.8784
  182ccc     O9 7457   2.793   5.591   3.906  0.2553  0.3344 -0.4725
  182ccc    H28 7458   2.733   5.620   3.977 -0.9726  0.9799 -1.7245
  182ccc     N3 7459   2.941   5.491   3.614  0.5524 -0.3345  0.2111
  182ccc    C17 7460   3.484   5.123   3.117 -0.1596  0.2618  0.3449
  182ccc    C18 7461   3.611   5.207   3.078 -0.4575 -0.3248 -0.0356
  182ccc    H29 7462   3.401   5.145   3.047 -0.0186  1.6305  0.5817
  182ccc    C19 7463   3.565   5.357   3.088 -0.0085  0.7261 -0.3939
  182ccc    C20 7464   3.508   5.384   3.227 -0.2169  0.6822  0.2455
  182ccc    C21 7465   3.394   5.282   3.270  0.6896  0.5588 -0.3190
  182ccc    H30 7466   3.588   5.363   3.299 -0.1983 -0.5351 -0.0948
  182ccc    H31 7467   3.490   5.372   3.009  1.6252  1.5831 -1.8721
  182ccc    H32 7468   3.312   5.289   3.197 -1.3658  0.6017  1.8762
  182ccc    O10 7469   3.353   5.319   3.405  0.6439 -0.0953  0.5275
  182ccc    O11 7470   3.681   5.435   3.060 -0.1172  0.0064  0.1289
  182ccc    C22 7471   3.517   4.970   3.111  0.5393  0.1526 -0.8585
  182ccc    H33 7472   3.664   5.531   3.066  0.4118  0.0779  0.5866
  182ccc    H34 7473   3.382   5.563   3.180  0.7411  0.5582 -1.8226
  182ccc    H35 7474   3.539   4.943   3.007 -1.6107  0.7180 -1.5000
  182ccc    H36 7475   3.428   4.913   3.140 -1.1051  1.8608 -2.3263
  182ccc    O12 7476   3.629   4.929   3.191  0.3551 -0.1421 -0.1895
  182ccc    H37 7477   3.606   4.956   3.282 -0.0210 -1.5467  0.1550
  182ccc    O13 7478   3.448   5.150   3.261 -0.0530  0.2628 -0.7379
  182ccc    H38 7479   3.276   5.261   3.422 -0.1998  1.4543  2.3536
  182ccc    H39 7480   3.691   5.194   3.153 -0.3769  0.9471  0.1230
  182ccc     O5 7481   3.658   5.171   2.947 -0.1720 -0.0376 -0.5312
  182ccc    H40 7482   3.589   5.202   2.886  0.2282  0.0811 -0.9250
  182ccc     N4 7483   3.457   5.528   3.240 -0.4411  0.4268 -0.3737
  182ccc    H41 7484   3.299   5.844   3.687  1.7158  2.4465 -0.2461
  183ccc     N1 7485   4.140   6.322   3.992  0.6231 -0.2175  0.2789
  183ccc     H4 7486   4.173   6.389   4.061  2.2716  0.8353 -1.4252
  183ccc     C3 7487   4.209   6.198   3.971  0.5758  0.6875  0.2661
  183ccc     H5 7488   4.165   6.118   4.032 -0.9986  1.1160 -0.2545
  183ccc     C4 7489   4.361   6.211   4.011  0.6279  0.2906 -0.0965
  183ccc     H6 7490   4.200   6.167   3.866  0.4284  0.4913  0.3355
  183ccc     H7 7491   4.404   6.112   3.991 -0.7080 -0.7488  1.7829
  183ccc     H8 7492   4.371   6.214   4.120 -0.3160 -0.3902  0.0261
  183ccc     N2 7493   4.452   6.315   3.942  0.4015 -0.0085  0.2024
  183ccc     C5 7494   4.458   6.282   3.791 -0.1622 -0.6079  0.3081
  183ccc     C6 7495   4.590   6.286   3.997  0.2054  0.3360 -0.7690
  183ccc     H9 7496   4.606   6.179   3.980  0.0739  0.3938 -1.2689
  183ccc     C7 7497   4.615   6.319   4.144  0.0624 -0.1859 -0.4390
  183ccc    H10 7498   4.669   6.341   3.943  0.3992  1.2172  0.3844
  183ccc    H11 7499   4.537   6.280   4.211  2.1020 -0.0778  2.1875
  183ccc    H12 7500   4.625   6.428   4.146  2.4327 -0.3367 -1.3505
  183ccc     C8 7501   4.749   6.254   4.189  0.0165 -0.4436 -0.6060
  183ccc     O2 7502   4.854   6.317   4.199  0.5017  0.5797  0.0177
  183ccc    H13 7503   4.509   6.364   3.740 -2.3565  0.3230 -0.5208
  183ccc    H14 7504   4.361   6.302   3.745  1.8146  0.5320 -3.8243
  183ccc     C9 7505   4.495   6.146   3.741 -0.8702 -0.1558  0.7449
  183ccc    H15 7506   4.416   6.073   3.762 -0.2140 -0.6899  1.4128
  183ccc    H16 7507   4.586   6.100   3.783 -0.5134 -1.2781 -1.1369
  183ccc    C10 7508   4.506   6.132   3.589 -0.0470  0.4215  0.0717
  183ccc     O4 7509   4.479   6.219   3.509 -0.2796 -0.4628  0.0407
  183ccc    C11 7510   4.950   5.856   4.636 -0.0815 -0.5251  0.2632
  183ccc    C12 7511   4.930   5.757   4.454 -0.3608  0.2487 -0.4216
  183ccc    H17 7512   4.881   5.809   4.707 -2.2945  1.8796 -0.1270
  183ccc    C13 7513   4.870   5.858   4.294 -0.0789  0.6475 -0.0394
  183ccc    C14 7514   4.846   6.062   4.303 -0.5254 -0.3772  0.2248
  183ccc    C15 7515   4.871   6.158   4.488  0.0131 -0.4762 -0.3848
  183ccc    H18 7516   4.935   6.085   4.244 -1.1924  1.6876 -0.0396
  183ccc    H19 7517   4.780   5.810   4.253  1.0334  0.4528 -2.3995
  183ccc    H20 7518   4.778   6.212   4.506 -0.5780 -1.5685 -0.0524
  183ccc     O1 7519   4.981   6.250   4.476  0.1273 -0.0337  0.1199
  183ccc     O6 7520   4.948   5.828   4.174  0.4202  0.1471 -0.2151
  183ccc    C16 7521   5.077   5.814   4.703 -0.0335  0.1665  0.2069
  183ccc    H21 7522   5.039   5.839   4.207  0.0419 -0.0470  0.9435
  183ccc    H22 7523   4.659   6.070   4.205  0.8042 -0.3178 -1.1328
  183ccc    H23 7524   5.056   5.717   4.750  1.4950  0.0423  0.7167
  183ccc    H24 7525   5.108   5.883   4.783  0.5722 -0.2775  0.3716
  183ccc     O7 7526   5.185   5.809   4.612  0.4575  0.3879  0.5099
  183ccc    H25 7527   5.212   5.719   4.587 -0.5336  0.2193  0.0076
  183ccc     O8 7528   4.932   6.049   4.638  0.2029  0.7534 -0.2684
  183ccc    H26 7529   5.044   6.188   4.436  0.5070 -0.2895  1.1038
  183ccc    H27 7530   5.033   5.736   4.423 -0.4172 -1.6187  0.5064
  183ccc     O9 7531   4.861   5.631   4.464  0.9648 -0.0917 -0.2701
  183ccc    H28 7532   4.903   5.563   4.409  2.5508 -0.6241  1.5062
  183ccc     N3 7533   4.747   6.122   4.211 -0.0160  1.0425 -0.5972
  183ccc    C17 7534   4.367   5.664   3.425 -0.4344  0.1651 -0.4139
  183ccc    C18 7535   4.487   5.639   3.526 -0.1212  0.3912 -0.2208
  183ccc    H29 7536   4.409   5.690   3.327  0.5087 -2.0597 -0.6416
  183ccc    C19 7537   4.573   5.768   3.540  0.0479  0.8289  0.8851
  183ccc    C20 7538   4.485   5.896   3.556 -0.1080 -0.0469 -0.1556
  183ccc    C21 7539   4.361   5.894   3.466 -0.9920  0.2441  0.5945
  183ccc    H30 7540   4.444   5.882   3.657  1.0655 -1.2087  0.2002
  183ccc    H31 7541   4.632   5.785   3.448  0.3774  1.7745  1.2605
  183ccc    H32 7542   4.390   5.922   3.364  0.9193  1.6523  1.4652
  183ccc    O10 7543   4.269   5.984   3.508  0.4831  0.1055  0.4427
  183ccc    O11 7544   4.643   5.758   3.661  0.2326 -0.6648 -0.1321
  183ccc    C22 7545   4.290   5.530   3.415  0.3910 -0.6623 -0.5048
  183ccc    H33 7546   4.727   5.807   3.651  0.6497 -1.2330  0.5313
  183ccc    H34 7547   4.594   6.022   3.449  0.9260 -1.3827  0.1180
  183ccc    H35 7548   4.262   5.503   3.517  1.8160 -0.2315  0.0279
  183ccc    H36 7549   4.358   5.451   3.381  0.2354 -0.1974 -1.9917
  183ccc    O12 7550   4.182   5.541   3.322 -0.5121 -0.1709 -0.1064
  183ccc    H37 7551   4.179   5.625   3.273  0.6149  1.6619  2.7062
  183ccc    O13 7552   4.295   5.769   3.471 -0.0444 -0.3690 -0.7151
  183ccc    H38 7553   4.256   6.055   3.442  2.0596  0.4252  0.4397
  183ccc    H39 7554   4.450   5.611   3.626  0.8755 -0.4680 -0.0690
  183ccc     O5 7555   4.564   5.525   3.479 -0.5920  0.0351 -0.0060
  183ccc    H40 7556   4.613   5.563   3.404 -1.2825  1.1410  0.0717
  183ccc     N4 7557   4.560   6.019   3.545 -0.9612 -0.1712 -0.4724
  183ccc    H41 7558   4.434   6.415   3.963 -0.2549  0.0451 -0.5749
  184ccc     N1 7559   3.674   5.369   3.963  0.2265  0.0905 -0.0182
  184ccc     H4 7560   3.752   5.314   3.997  1.1805  1.6600  0.4224
  184ccc     C3 7561   3.535   5.351   4.006  0.3911  0.0507  0.3059
  184ccc     H5 7562   3.513   5.437   4.071  0.4566 -0.8911  1.6267
  184ccc     C4 7563   3.522   5.218   4.086 -0.2640  0.1903  0.0351
  184ccc     H6 7564   3.468   5.349   3.920  1.1563  1.8771 -0.3827
  184ccc     H7 7565   3.569   5.245   4.181 -1.2697  2.8449 -0.1361
  184ccc     H8 7566   3.591   5.147   4.039  1.0024  1.3251  0.1018
  184ccc     N2 7567   3.389   5.155   4.110  0.4305  0.2248 -0.1864
  184ccc     C5 7568   3.392   5.035   4.207  0.2300 -0.1063 -0.3583
  184ccc     C6 7569   3.332   5.102   3.978 -0.3529  0.3377 -0.3462
  184ccc     H9 7570   3.370   5.156   3.890 -0.1018 -0.8973 -1.0150
  184ccc     C7 7571   3.181   5.090   3.989 -0.2031  0.0958  0.5865
  184ccc    H10 7572   3.381   5.005   3.963 -0.2965  0.5005 -1.2846
  184ccc    H11 7573   3.143   5.193   3.990  1.8033  0.9282 -0.7538
  184ccc    H12 7574   3.142   5.036   4.076  2.3735 -2.2919  0.4111
  184ccc     C8 7575   3.115   5.033   3.864  0.0152  0.2845 -0.2284
  184ccc     O2 7576   3.128   4.914   3.833 -0.2170 -0.4674 -0.2710
  184ccc    H13 7577   3.453   4.953   4.167 -1.2019 -1.4845  0.1630
  184ccc    H14 7578   3.294   4.987   4.208  0.0373  0.2873  0.6092
  184ccc     C9 7579   3.434   5.066   4.352  0.6200  0.2005 -0.2227
  184ccc    H15 7580   3.378   5.150   4.393  0.6824 -0.9243  2.3446
  184ccc    H16 7581   3.539   5.099   4.352  0.2075  1.5572 -0.0333
  184ccc    C10 7582   3.410   4.945   4.443  0.3619  0.0059  0.5945
  184ccc     O4 7583   3.403   4.827   4.410 -0.1187  0.0879 -0.3218
  184ccc    C11 7584   2.672   5.227   3.445 -0.2575  0.1643  0.3399
  184ccc    C12 7585   2.866   5.276   3.390 -0.1878  0.9817 -0.5099
  184ccc    H17 7586   2.615   5.317   3.471 -0.0583  0.2354  0.5282
  184ccc    C13 7587   3.021   5.204   3.507 -0.9524 -0.1319  0.3893
  184ccc    C14 7588   2.980   5.077   3.662 -0.1499 -0.0299  0.4546
  184ccc    C15 7589   2.786   5.017   3.699  0.1394 -0.0100  0.3710
  184ccc    H18 7590   3.034   4.987   3.629 -2.0407  0.2911 -4.3821
  184ccc    H19 7591   3.066   5.294   3.551  0.0923 -1.0177  1.1852
  184ccc    H20 7592   2.791   4.911   3.673  1.4756 -0.0940  0.9017
  184ccc     O1 7593   2.749   5.004   3.843 -0.4608  0.1481  0.2295
  184ccc     O6 7594   3.124   5.147   3.421 -0.1200 -0.4055  0.3163
  184ccc    C16 7595   2.586   5.173   3.332 -0.1187  0.4506  0.0191
  184ccc    H21 7596   3.085   5.119   3.336 -0.7732 -0.0023  0.4731
  184ccc    H22 7597   3.037   5.212   3.810 -0.0954 -0.6435 -0.2036
  184ccc    H23 7598   2.569   5.258   3.265  2.4568  1.8677  1.0203
  184ccc    H24 7599   2.489   5.140   3.370  0.0495  1.9731  1.9110
  184ccc     O7 7600   2.661   5.076   3.260 -0.2681  0.0775 -0.0939
  184ccc    H25 7601   2.719   5.116   3.193 -1.6163  1.8488 -0.2563
  184ccc     O8 7602   2.646   5.105   3.596  0.9585 -0.8003  0.1918
  184ccc    H26 7603   2.784   5.085   3.884  2.5592  0.2963 -2.2674
  184ccc    H27 7604   2.884   5.215   3.300  1.3854  0.6987 -0.0395
  184ccc     O9 7605   2.898   5.400   3.327  0.1254 -0.2544  0.3090
  184ccc    H28 7606   2.989   5.380   3.299 -0.4966 -0.4859 -1.6955
  184ccc     N3 7607   3.056   5.116   3.781 -0.2333 -0.6263 -0.3530
  184ccc    C17 7608   3.424   4.827   4.964  0.1555  0.5821 -0.0763
  184ccc    C18 7609   3.280   4.856   4.908  0.0417  0.3710  0.0893
  184ccc    H29 7610   3.461   4.916   5.017  2.0307 -1.5845  2.5653
  184ccc    C19 7611   3.290   4.954   4.791  0.6248 -0.3535 -0.0475
  184ccc    C20 7612   3.384   4.894   4.683  0.7099  0.4730  0.1156
  184ccc    C21 7613   3.516   4.869   4.741 -0.1458 -0.0809 -0.1396
  184ccc    H30 7614   3.339   4.801   4.648  0.3553  0.9910 -0.8291
  184ccc    H31 7615   3.340   5.044   4.829  0.4736 -1.0351  1.8852
  184ccc    H32 7616   3.565   4.963   4.769  1.2594 -1.3999  2.1206
  184ccc    O10 7617   3.598   4.793   4.651  0.8306 -0.4444 -0.0376
  184ccc    O11 7618   3.159   4.984   4.732 -0.2536  0.3598  0.1007
  184ccc    C22 7619   3.419   4.711   5.072  0.9500 -0.1236  0.2444
  184ccc    H33 7620   3.106   5.041   4.791 -0.9324 -0.3811  0.2314
  184ccc    H34 7621   3.407   5.078   4.597 -0.0226  0.0941 -0.4450
  184ccc    H35 7622   3.392   4.616   5.026 -3.9110  1.6741 -1.2395
  184ccc    H36 7623   3.340   4.736   5.144  1.4807 -0.0849  0.8221
  184ccc    O12 7624   3.548   4.694   5.136  0.1887 -0.3726  0.4243
  184ccc    H37 7625   3.532   4.656   5.224  1.7022  2.4387  2.0460
  184ccc    O13 7626   3.509   4.786   4.856 -0.0800  0.1912  0.2140
  184ccc    H38 7627   3.655   4.742   4.712  0.8867 -1.5497 -0.9967
  184ccc    H39 7628   3.230   4.766   4.870  0.4715  0.7733 -1.5206
  184ccc     O5 7629   3.204   4.909   5.013 -0.3386  0.9501 -0.1126
  184ccc    H40 7630   3.118   4.934   4.975 -0.9671  1.0153  1.2853
  184ccc     N4 7631   3.382   4.984   4.569 -0.2022  0.0512 -0.1415
  184ccc    H41 7632   3.335   5.235   4.145  1.8932  0.6170  1.3162
  185ccc     N1 7633   4.207   5.508   3.986  0.3038 -0.2312  0.2040
  185ccc     H4 7634   4.161   5.588   4.027 -2.2225 -1.3567 -0.2028
  185ccc     C3 7635   4.212   5.376   4.056  0.7424 -0.2766  0.4981
  185ccc     H5 7636   4.107   5.348   4.072  0.1925  0.9825 -0.6640
  185ccc     C4 7637   4.283   5.393   4.185 -0.8379  0.3955  0.3528
  185ccc     H6 7638   4.255   5.301   3.989  2.2915 -0.6560  1.8556
  185ccc     H7 7639   4.292   5.306   4.251 -1.4027 -0.0231 -0.1157
  185ccc     H8 7640   4.224   5.466   4.242 -0.5340  0.0665  1.0983
  185ccc     N2 7641   4.417   5.457   4.172  0.0267 -0.1232 -0.4207
  185ccc     C5 7642   4.510   5.351   4.108 -0.5686 -0.1118  0.2906
  185ccc     C6 7643   4.479   5.489   4.313  0.2442 -0.7456  0.2634
  185ccc     H9 7644   4.471   5.396   4.370  0.5121 -1.1585 -0.3671
  185ccc     C7 7645   4.418   5.602   4.390 -0.3052 -0.5033 -0.3390
  185ccc    H10 7646   4.586   5.514   4.310 -0.0206  0.7125  1.6371
  185ccc    H11 7647   4.434   5.589   4.498  1.4922 -1.7605 -0.7017
  185ccc    H12 7648   4.312   5.602   4.362 -0.8376 -0.2906  1.5234
  185ccc     C8 7649   4.475   5.741   4.341  0.7126  0.5009 -0.2550
  185ccc     O2 7650   4.441   5.789   4.240 -0.1988  0.1460  0.2701
  185ccc    H13 7651   4.452   5.289   4.038 -2.1436 -0.4376  1.8104
  185ccc    H14 7652   4.544   5.284   4.188  0.1309 -0.4437 -0.2716
  185ccc     C9 7653   4.632   5.413   4.042  0.0200  0.3727  0.6760
  185ccc    H15 7654   4.678   5.327   3.992 -0.7102  1.6530 -2.4359
  185ccc    H16 7655   4.696   5.460   4.118 -0.1577 -0.7356  1.5278
  185ccc    C10 7656   4.601   5.514   3.929  0.5920  0.0877 -0.6760
  185ccc     O4 7657   4.510   5.594   3.944  0.0997  0.0865  0.4365
  185ccc    C11 7658   4.595   6.109   4.643 -0.1548  0.6218 -0.4849
  185ccc    C12 7659   4.690   5.985   4.645  0.4505  0.3434 -0.0819
  185ccc    H17 7660   4.503   6.074   4.692  0.1812  1.7634  1.0560
  185ccc    C13 7661   4.767   5.941   4.503  0.7278  0.0440 -0.9843
  185ccc    C14 7662   4.629   5.925   4.408 -0.5068  0.3215  0.2143
  185ccc    C15 7663   4.517   6.033   4.438 -0.4888  0.4287 -0.3542
  185ccc    H18 7664   4.654   5.938   4.302  0.5455  2.1864  0.6362
  185ccc    H19 7665   4.749   5.835   4.529 -0.2655  0.7027  1.2680
  185ccc    H20 7666   4.436   5.996   4.502  0.2393  0.0844  0.3800
  185ccc     O1 7667   4.459   6.083   4.317 -0.3040 -0.6126  0.0603
  185ccc     O6 7668   4.993   5.973   4.447  0.4158 -0.0180 -0.2273
  185ccc    C16 7669   4.635   6.227   4.733 -0.6140 -0.0829  0.6758
  185ccc    H21 7670   5.023   5.995   4.537 -1.4608 -0.1948  0.4928
  185ccc    H22 7671   4.575   5.751   4.518 -0.8689 -1.7275 -1.1163
  185ccc    H23 7672   4.729   6.269   4.697  0.6693 -2.1644  1.4733
  185ccc    H24 7673   4.639   6.191   4.837 -1.2176 -3.4587 -0.3696
  185ccc     O7 7674   4.533   6.337   4.725  0.1153 -0.0270 -0.3194
  185ccc    H25 7675   4.582   6.414   4.758 -0.3420  0.0997  0.0628
  185ccc     O8 7676   4.566   6.151   4.513  0.3178  0.2238  0.1195
  185ccc    H26 7677   4.376   6.113   4.358  0.3557 -1.1813  1.9332
  185ccc    H27 7678   4.753   6.004   4.733  0.2737  1.6049 -0.2035
  185ccc     O9 7679   4.607   5.881   4.690 -0.2452  0.0775 -0.2032
  185ccc    H28 7680   4.625   5.874   4.785  1.0991  1.2529 -0.3337
  185ccc     N3 7681   4.568   5.787   4.423  0.1347  0.3872 -0.4606
  185ccc    C17 7682   5.127   5.540   3.760  0.1352  0.0583 -0.2431
  185ccc    C18 7683   5.072   5.552   3.909  0.2629  0.5231  0.1437
  185ccc    H29 7684   5.136   5.642   3.721  1.0753 -0.3688 -1.1923
  185ccc    C19 7685   4.918   5.590   3.905  0.3634  0.2901 -0.4722
  185ccc    C20 7686   4.836   5.483   3.823  0.0069  0.2262  0.2113
  185ccc    C21 7687   4.890   5.477   3.682  0.0719 -0.4739 -0.0526
  185ccc    H30 7688   4.851   5.387   3.873  0.6619 -1.2413 -2.5977
  185ccc    H31 7689   4.900   5.684   3.850  0.0069  1.2755  1.2416
  185ccc    H32 7690   4.872   5.576   3.637  2.2060  0.6247  1.3197
  185ccc    O10 7691   4.828   5.369   3.617  0.5279  0.9564 -0.0836
  185ccc    O11 7692   4.869   5.608   4.041  0.0035  0.6221 -0.3580
  185ccc    C22 7693   5.273   5.494   3.760  0.6124  0.3319 -0.8899
  185ccc    H33 7694   4.911   5.688   4.077  0.4785  0.4127 -0.4512
  185ccc    H34 7695   4.667   5.604   3.766 -1.8531 -0.1582  0.2382
  185ccc    H35 7696   5.292   5.386   3.753  0.5333  0.1459  1.2157
  185ccc    H36 7697   5.313   5.527   3.857  1.5709 -1.4870 -0.6193
  185ccc    O12 7698   5.342   5.560   3.653 -0.3112 -0.1968  0.3300
  185ccc    H37 7699   5.421   5.505   3.639 -0.4246 -0.9637  2.4255
  185ccc    O13 7700   5.036   5.445   3.687 -0.5637  0.1210 -0.2916
  185ccc    H38 7701   4.739   5.353   3.651  1.7220 -0.6393  2.5476
  185ccc    H39 7702   5.087   5.456   3.959 -1.0400 -0.1790 -0.7393
  185ccc     O5 7703   5.131   5.661   3.983  0.3588  0.3069  0.3328
  185ccc    H40 7704   5.162   5.627   4.069  0.2733  1.1405  0.7055
  185ccc     N4 7705   4.686   5.520   3.821  0.6883 -0.2051 -0.5701
  185ccc    H41 7706   4.410   5.536   4.106 -1.7639  0.3316  0.2461
  186ccc     N1 7707   3.015   7.259   1.911  0.0973  0.8296  0.2968
  186ccc     H4 7708   3.002   7.355   1.881 -0.8342  0.5397 -0.2666
  186ccc     C3 7709   3.066   7.177   1.802 -0.2668 -0.8665  0.7387
  186ccc     H5 7710   3.171   7.165   1.829 -0.5647 -0.7774  2.0431
  186ccc     C4 7711   3.063   7.250   1.660  0.0302 -0.1339 -0.4379
  186ccc     H6 7712   3.017   7.079   1.799 -0.3091 -0.8746  1.3739
  186ccc     H7 7713   2.956   7.264   1.639  0.3597 -0.6138 -2.6241
  186ccc     H8 7714   3.090   7.185   1.576 -1.8668 -0.5266 -0.8004
  186ccc     N2 7715   3.144   7.380   1.648  0.6086  0.2544 -0.1230
  186ccc     C5 7716   3.085   7.474   1.537  0.2901  0.0399 -0.2334
  186ccc     C6 7717   3.295   7.355   1.630 -0.2586 -0.0444 -0.4042
  186ccc     H9 7718   3.342   7.452   1.609 -0.4976  0.0296 -0.5928
  186ccc     C7 7719   3.349   7.255   1.524 -0.1340  0.3148  0.1256
  186ccc    H10 7720   3.338   7.338   1.729 -1.7918  1.9062  0.6855
  186ccc    H11 7721   3.301   7.282   1.429  0.3073  0.8293  0.0445
  186ccc    H12 7722   3.319   7.152   1.547  2.0033 -0.8738 -2.0063
  186ccc     C8 7723   3.502   7.247   1.520  0.4228 -0.8371  0.0005
  186ccc     O2 7724   3.568   7.161   1.573 -0.3548  0.0664  0.1787
  186ccc    H13 7725   3.089   7.426   1.439  1.4534 -0.0261 -0.1725
  186ccc    H14 7726   3.164   7.551   1.538  0.6588 -0.3077  1.7378
  186ccc     C9 7727   2.951   7.541   1.573 -0.1114  0.0609 -0.0881
  186ccc    H15 7728   2.957   7.590   1.671 -0.5882 -1.3651  0.6831
  186ccc    H16 7729   2.871   7.467   1.570 -0.1448  0.1057 -2.7559
  186ccc    C10 7730   2.930   7.644   1.465  0.2864 -0.0148 -0.1260
  186ccc     O4 7731   2.991   7.654   1.363  0.1258 -0.1021 -0.4224
  186ccc    C11 7732   4.061   7.369   1.281 -0.8015 -0.7198  0.5716
  186ccc    C12 7733   3.949   7.533   1.268  0.5066 -0.1943  0.5345
  186ccc    H17 7734   4.084   7.334   1.180 -0.3677 -0.8632  0.7186
  186ccc    C13 7735   3.764   7.533   1.342 -0.4586 -0.1762  0.0006
  186ccc    C14 7736   3.708   7.376   1.457  0.5953 -0.1566  0.4914
  186ccc    C15 7737   3.829   7.216   1.476  0.6430 -0.1627  0.1249
  186ccc    H18 7738   3.708   7.415   1.560  0.6208 -2.4667  1.4236
  186ccc    H19 7739   3.695   7.531   1.257 -0.5900  1.6933  0.0109
  186ccc    H20 7740   3.778   7.127   1.437 -0.8253 -0.6426  2.8842
  186ccc     O1 7741   3.856   7.183   1.607  0.1943  0.8444  0.4950
  186ccc     O6 7742   3.713   7.663   1.385  0.1095 -0.2817 -0.4469
  186ccc    C16 7743   4.209   7.409   1.316 -0.2109  0.2080 -0.6106
  186ccc    H21 7744   3.622   7.653   1.418 -0.5112 -2.1633 -2.4800
  186ccc    H22 7745   3.510   7.404   1.385 -1.1631  1.8909  2.9695
  186ccc    H23 7746   4.223   7.480   1.398 -1.7992 -0.2339  0.0762
  186ccc    H24 7747   4.255   7.452   1.226  0.1351  1.3662  0.1085
  186ccc     O7 7748   4.276   7.291   1.352  0.0958 -0.2860  0.0280
  186ccc    H25 7749   4.372   7.303   1.338  0.8608 -3.5593  1.4927
  186ccc     O8 7750   3.999   7.218   1.388 -0.0911 -0.4396 -0.0931
  186ccc    H26 7751   3.950   7.206   1.616  0.1379  0.3521  2.9121
  186ccc    H27 7752   4.010   7.594   1.336  1.0919 -1.2602  0.9932
  186ccc     O9 7753   3.963   7.609   1.146  0.1225  0.3653  0.7020
  186ccc    H28 7754   3.924   7.697   1.163  0.6803  0.4029  1.9318
  186ccc     N3 7755   3.564   7.336   1.439  0.3747  0.2643 -0.2923
  186ccc    C17 7756   2.493   7.866   1.725  0.4482  0.0999  0.0258
  186ccc    C18 7757   2.472   7.737   1.641  0.0174 -0.0683 -1.3546
  186ccc    H29 7758   2.475   7.954   1.662  0.0227 -0.5812 -0.8281
  186ccc    C19 7759   2.576   7.722   1.528 -0.2559 -0.5133 -0.4060
  186ccc    C20 7760   2.716   7.735   1.590 -1.4404  0.1462  0.4751
  186ccc    C21 7761   2.729   7.865   1.678  0.0892  0.2670 -0.1573
  186ccc    H30 7762   2.739   7.655   1.662  1.3822  0.5796  0.1895
  186ccc    H31 7763   2.553   7.814   1.472 -0.8566 -0.0084  0.6485
  186ccc    H32 7764   2.709   7.961   1.630  1.2962  0.4209 -0.3813
  186ccc    O10 7765   2.845   7.863   1.747 -0.2595 -0.3485 -0.0659
  186ccc    O11 7766   2.560   7.603   1.452  0.0975  0.7423 -0.2366
  186ccc    C22 7767   2.389   7.875   1.842 -0.1925 -0.8960 -0.6658
  186ccc    H33 7768   2.468   7.592   1.423  0.0896 -0.8290  0.3008
  186ccc    H34 7769   2.784   7.780   1.398  0.8634 -0.6698 -0.8783
  186ccc    H35 7770   2.403   7.808   1.928 -0.6667 -0.6044 -0.3579
  186ccc    H36 7771   2.290   7.858   1.799  0.3431 -0.3598 -2.2062
  186ccc    O12 7772   2.398   7.997   1.905  0.1793  0.1168 -1.1563
  186ccc    H37 7773   2.357   7.979   1.991  0.3461 -1.2917 -1.3513
  186ccc    O13 7774   2.626   7.864   1.778  0.0266 -0.2009  0.0877
  186ccc    H38 7775   2.861   7.953   1.781  0.3971 -0.3084 -0.4611
  186ccc    H39 7776   2.492   7.655   1.710  1.2633  1.4448  0.1677
  186ccc     O5 7777   2.340   7.737   1.578  0.2350 -0.6543  0.4798
  186ccc    H40 7778   2.336   7.818   1.524  2.1214 -0.0948  1.0654
  186ccc     N4 7779   2.813   7.718   1.474 -0.4617 -0.6896 -0.3626
  186ccc    H41 7780   3.133   7.427   1.740  1.5989 -1.8871  1.1657
  187ccc     N1 7781   3.091   6.825   2.152 -0.6256  0.6566  0.1150
  187ccc     H4 7782   3.008   6.781   2.190  0.1648 -1.9504 -0.9194
  187ccc     C3 7783   3.097   6.815   2.001 -0.3197  0.1486 -1.0932
  187ccc     H5 7784   3.073   6.914   1.959 -1.3252 -0.6174 -2.4447
  187ccc     C4 7785   2.991   6.708   1.957 -0.3724 -0.3401 -0.5924
  187ccc     H6 7786   3.199   6.783   1.977 -0.7965 -1.8291 -0.6358
  187ccc     H7 7787   2.891   6.738   1.990 -0.1144  0.6145 -0.6601
  187ccc     H8 7788   3.009   6.621   2.022  0.2436  2.5379  3.4452
  187ccc     N2 7789   2.985   6.673   1.808  0.1621 -0.2581 -0.7277
  187ccc     C5 7790   2.879   6.568   1.784 -0.4099 -0.0172  0.0686
  187ccc     C6 7791   3.123   6.648   1.741 -0.7375  0.8898 -0.7742
  187ccc     H9 7792   3.113   6.638   1.632 -0.1802 -1.2607 -0.6871
  187ccc     C7 7793   3.198   6.521   1.797  0.0549 -0.3582 -0.0553
  187ccc    H10 7794   3.191   6.732   1.760  2.5372 -0.9674 -3.2431
  187ccc    H11 7795   3.159   6.433   1.744 -0.5871  0.5453 -1.1237
  187ccc    H12 7796   3.200   6.516   1.906 -0.6525  1.4929  0.0837
  187ccc     C8 7797   3.336   6.511   1.746 -0.1631  0.2156  0.6656
  187ccc     O2 7798   3.385   6.596   1.675  0.1885 -0.0974  0.1017
  187ccc    H13 7799   2.793   6.580   1.850 -1.8800 -1.5427 -1.4918
  187ccc    H14 7800   2.924   6.471   1.808 -3.3256 -1.5778 -0.4078
  187ccc     C9 7801   2.820   6.562   1.644  0.0305 -0.2964 -0.1722
  187ccc    H15 7802   2.895   6.589   1.569 -0.4126  0.4987 -0.3375
  187ccc    H16 7803   2.745   6.640   1.627 -1.0693 -1.1028  0.7932
  187ccc    C10 7804   2.747   6.431   1.608 -0.4900 -0.2660 -0.5791
  187ccc     O4 7805   2.730   6.331   1.680 -0.4212  0.1387 -0.1587
  187ccc    C11 7806   3.754   6.392   1.521 -0.4976  0.4882 -0.1472
  187ccc    C12 7807   3.775   6.432   1.669  0.6757 -0.2142  0.3404
  187ccc    H17 7808   3.725   6.473   1.453  0.4804 -0.6077 -1.9483
  187ccc    C13 7809   3.639   6.471   1.741  0.5024 -0.1336  0.3660
  187ccc    C14 7810   3.535   6.358   1.727 -0.6540 -0.7293 -1.2619
  187ccc    C15 7811   3.528   6.321   1.575  0.1705  0.7359  0.0070
  187ccc    H18 7812   3.564   6.273   1.789 -0.0284  2.3444  3.1479
  187ccc    H19 7813   3.602   6.563   1.696 -2.4003 -0.7885  1.2195
  187ccc    H20 7814   3.480   6.401   1.518  1.5271  1.9555  0.5107
  187ccc     O1 7815   3.460   6.209   1.571 -0.1548  0.2353 -1.1183
  187ccc     O6 7816   3.668   6.481   1.881  0.5990 -0.8125 -0.7147
  187ccc    C16 7817   3.888   6.334   1.458  0.6521  0.5527  1.4087
  187ccc    H21 7818   3.663   6.391   1.917  1.0400 -0.6277 -0.1949
  187ccc    H22 7819   3.366   6.331   1.847 -0.9398 -0.6544 -0.4288
  187ccc    H23 7820   3.937   6.266   1.528  1.4230 -0.2975  0.0899
  187ccc    H24 7821   3.951   6.423   1.443  1.4023 -0.0002  1.2492
  187ccc     O7 7822   3.871   6.267   1.334  0.0154  0.8543  0.2861
  187ccc    H25 7823   3.806   6.197   1.352  0.1668  0.3860 -0.9211
  187ccc     O8 7824   3.659   6.288   1.516 -0.5968 -0.1692  0.0175
  187ccc    H26 7825   3.457   6.179   1.478 -0.2243 -2.0042 -0.4408
  187ccc    H27 7826   3.812   6.344   1.722 -2.6159 -1.6441  0.5658
  187ccc     O9 7827   3.864   6.545   1.683 -0.5974  0.3030  0.7740
  187ccc    H28 7828   3.894   6.563   1.774  0.0451 -0.0371  0.6369
  187ccc     N3 7829   3.402   6.399   1.780  0.0069 -0.4258  0.2934
  187ccc    C17 7830   2.394   6.124   1.472  0.0950 -0.4879 -0.6007
  187ccc    C18 7831   2.340   6.274   1.463 -0.1072 -0.1655  0.0802
  187ccc    H29 7832   2.414   6.100   1.577 -1.9216 -2.3090 -0.5784
  187ccc    C19 7833   2.444   6.376   1.509 -0.0853  0.6913  0.2527
  187ccc    C20 7834   2.580   6.347   1.438  0.2806  0.0845  0.2323
  187ccc    C21 7835   2.620   6.195   1.435  0.1725  0.1186 -0.3851
  187ccc    H30 7836   2.559   6.357   1.331  0.7167 -1.6414 -0.0442
  187ccc    H31 7837   2.445   6.367   1.618 -0.5996 -1.4856  0.1224
  187ccc    H32 7838   2.649   6.164   1.536  1.6909  2.5679  0.0161
  187ccc    O10 7839   2.727   6.178   1.347 -0.9391  0.1342 -0.1877
  187ccc    O11 7840   2.395   6.504   1.474 -0.1937 -0.8133  0.1057
  187ccc    C22 7841   2.289   6.022   1.417  0.3742  0.0691  0.2479
  187ccc    H33 7842   2.329   6.535   1.539  1.0286  0.0189  0.9817
  187ccc    H34 7843   2.663   6.537   1.458  4.3601 -0.0560 -0.6189
  187ccc    H35 7844   2.251   6.053   1.319 -0.8424 -0.0529  0.6670
  187ccc    H36 7845   2.201   6.024   1.483 -1.3472 -0.4823 -1.9102
  187ccc    O12 7846   2.333   5.884   1.412 -0.4781  0.0885 -0.0185
  187ccc    H37 7847   2.265   5.826   1.373 -0.9070  1.6861 -1.7611
  187ccc    O13 7848   2.511   6.112   1.394  0.3164 -0.3282  0.2575
  187ccc    H38 7849   2.744   6.083   1.337 -0.9783 -0.0399  1.2997
  187ccc    H39 7850   2.308   6.291   1.359  2.8836 -2.2030 -1.3159
  187ccc     O5 7851   2.224   6.277   1.546  0.0920  0.1386 -0.2907
  187ccc    H40 7852   2.155   6.332   1.505 -1.1604 -1.5975 -0.6413
  187ccc     N4 7853   2.681   6.442   1.491  0.7052 -0.6415  0.1779
  187ccc    H41 7854   2.949   6.754   1.756 -1.6003 -1.1517 -0.9955
  188ccc     N1 7855   2.865   6.586   1.141 -0.0895  0.2315  0.0165
  188ccc     H4 7856   2.843   6.667   1.085  1.9544  2.4529  2.2171
  188ccc     C3 7857   2.780   6.459   1.139  0.1781 -0.1437 -0.6480
  188ccc     H5 7858   2.797   6.398   1.230 -2.3803 -0.9941 -0.6696
  188ccc     C4 7859   2.826   6.377   1.025  0.4955 -0.5608 -0.3192
  188ccc     H6 7860   2.672   6.471   1.150 -0.2913 -2.6607 -1.7726
  188ccc     H7 7861   2.935   6.375   1.038  0.3441 -1.1085  1.0766
  188ccc     H8 7862   2.801   6.441   0.939 -0.7318 -0.1081  0.3539
  188ccc     N2 7863   2.787   6.233   1.001  0.1578  0.7764 -0.3509
  188ccc     C5 7864   2.829   6.185   0.861  0.4821 -1.2072 -0.5292
  188ccc     C6 7865   2.633   6.195   1.025 -0.8316 -0.2280  0.3154
  188ccc     H9 7866   2.597   6.237   1.120  0.2684 -1.1865  1.1926
  188ccc     C7 7867   2.593   6.043   1.019  0.1940 -0.0301  0.7218
  188ccc    H10 7868   2.574   6.248   0.950 -1.6241  0.2072  1.2296
  188ccc    H11 7869   2.598   5.991   0.922  1.9808 -0.8559  1.2223
  188ccc    H12 7870   2.489   6.037   1.052  0.0811  1.5336  0.7121
  188ccc     C8 7871   2.674   5.953   1.110 -0.3897  0.6213  0.1681
  188ccc     O2 7872   2.792   5.954   1.129 -0.2231  0.8188  0.7514
  188ccc    H13 7873   2.805   6.265   0.791 -0.1618 -0.0410  0.9746
  188ccc    H14 7874   2.766   6.101   0.830  2.5813 -2.8573 -0.5686
  188ccc     C9 7875   2.977   6.148   0.846  0.1710 -0.3704  0.0873
  188ccc    H15 7876   3.009   6.066   0.912  0.1455  1.4402  2.4504
  188ccc    H16 7877   3.047   6.229   0.871  1.8549 -1.7714  0.1607
  188ccc    C10 7878   3.006   6.102   0.705 -0.0994  0.2618 -0.4421
  188ccc     O4 7879   2.953   6.146   0.607  0.0352  0.0576  0.5855
  188ccc    C11 7880   2.628   5.624   1.532  0.4052 -0.3608  0.8901
  188ccc    C12 7881   2.607   5.547   1.401 -0.4553  0.8170 -0.2373
  188ccc    H17 7882   2.534   5.662   1.573  0.2188 -1.9290  2.0216
  188ccc    C13 7883   2.564   5.639   1.279 -0.3606  0.3340 -0.1838
  188ccc    C14 7884   2.660   5.769   1.280 -0.4625  0.5627  0.1874
  188ccc    C15 7885   2.684   5.837   1.425  0.4747  0.0953 -0.3985
  188ccc    H18 7886   2.756   5.734   1.240 -0.8071  0.3182 -0.4489
  188ccc    H19 7887   2.462   5.674   1.295 -0.8889 -0.8735 -0.7867
  188ccc    H20 7888   2.590   5.879   1.464  1.0056  0.1665  0.8618
  188ccc     O1 7889   2.789   5.930   1.415 -0.0260 -0.1209  0.4396
  188ccc     O6 7890   2.573   5.567   1.152 -1.0189  0.4103  0.5530
  188ccc    C16 7891   2.677   5.524   1.638 -0.4390 -0.2801 -0.6303
  188ccc    H21 7892   2.512   5.491   1.157 -1.0953  0.5437  3.1760
  188ccc    H22 7893   2.502   5.860   1.187 -0.0542  1.4803  1.3028
  188ccc    H23 7894   2.779   5.500   1.606 -1.1860 -2.3818 -1.5833
  188ccc    H24 7895   2.629   5.425   1.644 -0.0856 -0.4327 -0.3103
  188ccc     O7 7896   2.675   5.587   1.766  0.2055 -0.9381 -0.6765
  188ccc    H25 7897   2.674   5.514   1.830 -0.8573 -0.1345  0.2590
  188ccc     O8 7898   2.731   5.734   1.511 -0.1023  0.0892  0.4825
  188ccc    H26 7899   2.869   5.878   1.434  0.8173  1.0807  0.2686
  188ccc    H27 7900   2.706   5.509   1.371 -0.9567  1.6975 -3.2679
  188ccc     O9 7901   2.523   5.430   1.421 -0.2701 -0.1374  0.3565
  188ccc    H28 7902   2.519   5.375   1.341 -1.2929 -0.5691  0.7008
  188ccc     N3 7903   2.604   5.868   1.185  0.0731  0.0017  0.1060
  188ccc    C17 7904   3.208   5.698   0.416 -0.2339 -0.6189  0.8939
  188ccc    C18 7905   3.072   5.759   0.395 -0.1726  0.7412 -0.4874
  188ccc    H29 7906   3.206   5.612   0.483  0.9309 -1.6648 -0.3571
  188ccc    C19 7907   3.022   5.828   0.525  0.0335  0.6642  0.0909
  188ccc    C20 7908   3.129   5.930   0.572 -0.1353  0.6740 -0.5278
  188ccc    C21 7909   3.267   5.857   0.585  0.2539 -0.1320 -0.2740
  188ccc    H30 7910   3.146   6.009   0.498  3.8236 -0.2315 -0.7669
  188ccc    H31 7911   3.023   5.743   0.594  1.9472  1.3854  1.0290
  188ccc    H32 7912   3.261   5.777   0.659  1.3845  0.4070  0.4158
  188ccc    O10 7913   3.376   5.944   0.611 -0.3683  0.3885 -0.0429
  188ccc    O11 7914   2.896   5.884   0.497  0.6451 -0.0171 -0.0011
  188ccc    C22 7915   3.247   5.649   0.276  0.4612  0.4737 -0.5146
  188ccc    H33 7916   2.842   5.885   0.578 -0.5309 -0.4721 -0.7591
  188ccc    H34 7917   3.091   5.934   0.779 -1.2523 -0.7462 -1.4009
  188ccc    H35 7918   3.242   5.734   0.207 -3.5107 -0.0700 -1.1554
  188ccc    H36 7919   3.174   5.576   0.239  1.1143 -0.6040  0.2810
  188ccc    O12 7920   3.371   5.581   0.282  0.2779  0.1800  0.3261
  188ccc    H37 7921   3.419   5.593   0.198  1.9703 -0.7640  1.1054
  188ccc    O13 7922   3.297   5.804   0.455 -0.1433 -0.4396 -0.6669
  188ccc    H38 7923   3.371   5.958   0.707  0.2539  0.7490 -0.0601
  188ccc    H39 7924   3.075   5.845   0.327  1.4063  2.9977  2.2707
  188ccc     O5 7925   2.970   5.665   0.362 -0.6649 -0.6630 -0.2492
  188ccc    H40 7926   2.887   5.716   0.369 -0.3121 -0.1331  0.1651
  188ccc     N4 7927   3.085   5.997   0.700  0.6491  0.7012 -0.4717
  188ccc    H41 7928   2.839   6.186   1.077 -0.6874  2.6055  1.4663
  189ccc     N1 7929   3.426   7.157   0.991 -0.5780  0.1912 -0.1838
  189ccc     H4 7930   3.375   7.138   0.906  1.3317  0.2512 -1.3962
  189ccc     C3 7931   3.547   7.246   1.010 -0.0337  0.2774  0.0161
  189ccc     H5 7932   3.545   7.319   0.929 -2.2679 -0.7731 -0.9569
  189ccc     C4 7933   3.679   7.170   1.014 -0.8128  0.1248  0.1541
  189ccc     H6 7934   3.526   7.300   1.102 -0.7772 -1.9237  1.2151
  189ccc     H7 7935   3.674   7.097   0.932  0.9268  2.3025 -2.0366
  189ccc     H8 7936   3.663   7.111   1.105 -0.4852 -0.5014 -0.1870
  189ccc     N2 7937   3.812   7.239   1.002 -0.1602 -0.0229 -0.0187
  189ccc     C5 7938   3.932   7.145   0.991  0.5359  0.4546 -0.4070
  189ccc     C6 7939   3.842   7.352   1.102 -0.0220 -0.0410  0.1224
  189ccc     H9 7940   3.934   7.397   1.063 -0.1848  0.6585  0.5230
  189ccc     C7 7941   3.835   7.322   1.262  0.0510  1.5643  0.0986
  189ccc    H10 7942   3.769   7.432   1.084 -1.3132 -0.6971  2.1001
  189ccc    H11 7943   3.842   7.213   1.255 -1.1716  1.2762  2.3225
  189ccc    H12 7944   3.726   7.312   1.251  0.1124  0.6134  0.2408
  189ccc     C8 7945   3.937   7.425   1.473  0.4645  0.2876  0.6884
  189ccc     O2 7946   4.033   7.389   1.548  0.2524  0.0946  0.2549
  189ccc    H13 7947   3.944   7.099   1.090 -1.2697  1.3536  0.2689
  189ccc    H14 7948   4.016   7.206   0.955  0.9050 -0.7716 -1.7070
  189ccc     C9 7949   3.922   7.036   0.876  0.2938 -0.1860  0.4437
  189ccc    H15 7950   3.912   7.091   0.782  1.3337  0.7123  0.8326
  189ccc    H16 7951   3.836   6.969   0.889  0.9044 -0.8561  1.1102
  189ccc    C10 7952   4.051   6.943   0.864  0.5556 -0.2223 -0.6283
  189ccc     O4 7953   4.149   6.939   0.941 -0.8825 -0.1173  0.0811
  189ccc    C11 7954   4.109   7.574   1.946  0.0051 -0.4708 -0.4236
  189ccc    C12 7955   4.156   7.679   1.838  0.0650  0.7414 -0.4736
  189ccc    H17 7956   4.166   7.481   1.944  1.0837  0.1693 -2.8405
  189ccc    C13 7957   4.106   7.637   1.693 -0.3526  0.9673  0.7868
  189ccc    C14 7958   3.960   7.600   1.685  0.1687  1.1452 -0.2813
  189ccc    C15 7959   3.919   7.502   1.801  0.7528 -0.4795 -0.1517
  189ccc    H18 7960   3.911   7.695   1.710  1.2548  1.5468  0.3554
  189ccc    H19 7961   4.164   7.546   1.674 -1.9715 -0.1186  0.8054
  189ccc    H20 7962   3.969   7.408   1.778  0.7500 -0.2973 -0.9222
  189ccc     O1 7963   3.777   7.496   1.815 -0.4102 -0.5783  0.7807
  189ccc     O6 7964   4.138   7.731   1.592  0.3964 -0.0853  0.3897
  189ccc    C16 7965   4.117   7.632   2.094 -0.7356  0.5873 -0.0310
  189ccc    H21 7966   4.234   7.721   1.578  0.2517 -2.7940  0.8278
  189ccc    H22 7967   3.865   7.614   1.494  0.0130 -0.0277 -0.3248
  189ccc    H23 7968   4.054   7.721   2.088 -1.3862  0.0480 -1.5756
  189ccc    H24 7969   4.222   7.656   2.112 -0.6287 -0.8594  1.5758
  189ccc     O7 7970   4.076   7.532   2.180  0.4508 -0.0766  0.2677
  189ccc    H25 7971   3.988   7.509   2.147 -0.1560 -0.1607  1.8579
  189ccc     O8 7972   3.968   7.544   1.929  0.1206 -0.8222 -0.2929
  189ccc    H26 7973   3.770   7.406   1.852 -1.7878 -0.1843  1.5392
  189ccc    H27 7974   4.112   7.778   1.854 -0.4465  0.5083 -0.4175
  189ccc     O9 7975   4.301   7.697   1.838 -0.4384 -0.3140  0.0805
  189ccc    H28 7976   4.327   7.720   1.929 -1.1018 -0.9786  0.4421
  189ccc     N3 7977   3.912   7.541   1.547 -0.1072 -0.5008 -0.8564
  189ccc    C17 7978   4.397   6.621   0.752  0.2636  0.3308 -0.3030
  189ccc    C18 7979   4.255   6.553   0.740  0.3157 -0.1198 -0.0048
  189ccc    H29 7980   4.417   6.654   0.855 -0.6816 -1.2847  0.4460
  189ccc    C19 7981   4.142   6.656   0.765 -0.4806  0.4223  0.5031
  189ccc    C20 7982   4.165   6.790   0.700  0.0263  0.4868  0.0094
  189ccc    C21 7983   4.316   6.842   0.709  0.0452  0.2489 -0.5200
  189ccc    H30 7984   4.161   6.773   0.592  0.1164 -1.4404  0.2645
  189ccc    H31 7985   4.138   6.661   0.874  1.6713 -1.7938  0.7965
  189ccc    H32 7986   4.341   6.875   0.810 -2.2417 -0.5541  0.3790
  189ccc    O10 7987   4.341   6.937   0.606  0.0293  0.2620  0.5005
  189ccc    O11 7988   4.027   6.597   0.718  0.2706 -0.0050  0.3797
  189ccc    C22 7989   4.516   6.524   0.728 -0.4668  0.1052  0.0627
  189ccc    H33 7990   3.982   6.568   0.799 -0.4124 -1.1877 -0.3848
  189ccc    H34 7991   3.997   6.914   0.666  1.2386  1.2908 -0.6980
  189ccc    H35 7992   4.521   6.463   0.819  0.3781 -0.1954 -0.1750
  189ccc    H36 7993   4.613   6.576   0.724  0.4096 -1.4144  0.8740
  189ccc    O12 7994   4.497   6.441   0.613  0.1427  0.5077 -0.1948
  189ccc    H37 7995   4.467   6.500   0.542 -0.3837 -0.5928 -0.9222
  189ccc    O13 7996   4.410   6.735   0.671  0.5422  0.3855 -0.6939
  189ccc    H38 7997   4.436   6.939   0.627  0.2559  0.9350 -0.5225
  189ccc    H39 7998   4.247   6.511   0.639  1.9970 -0.0717 -0.1923
  189ccc     O5 7999   4.244   6.449   0.836 -0.2411  0.0848  0.5787
  189ccc    H40 8000   4.174   6.381   0.826 -0.2765  0.0500  1.0642
  189ccc     N4 8001   4.062   6.886   0.740  0.3715 -0.1560 -0.4279
  189ccc    H41 8002   3.812   7.283   0.909 -1.3715 -1.2039 -0.6060
  190ccc     N1 8003   8.584   4.364   0.484 -0.0228 -0.5938  0.2834
  190ccc     H4 8004   8.518   4.378   0.560 -1.4978 -1.5388 -0.7720
  190ccc     C3 8005   8.731   4.358   0.498 -0.5154 -0.5054 -0.2360
  190ccc     H5 8006   8.770   4.256   0.484  4.3056  0.8200  1.6774
  190ccc     C4 8007   8.787   4.419   0.625  0.2068  0.6938 -0.3009
  190ccc     H6 8008   8.772   4.416   0.415 -2.7586 -0.1281 -1.1683
  190ccc     H7 8009   8.767   4.527   0.625 -0.3409  0.6195  1.2746
  190ccc     H8 8010   8.895   4.398   0.623  0.4307  1.7922 -0.4130
  190ccc     N2 8011   8.723   4.364   0.751 -0.4262 -0.6842 -0.2729
  190ccc     C5 8012   8.781   4.435   0.874 -0.2489  0.1757  0.3618
  190ccc     C6 8013   8.735   4.206   0.764  0.8663 -0.6301  0.6318
  190ccc     H9 8014   8.661   4.177   0.839 -0.0586  1.6482  0.6939
  190ccc     C7 8015   8.882   4.157   0.794  0.0223  0.2253 -0.2506
  190ccc    H10 8016   8.696   4.170   0.668 -0.0903 -1.7994  1.4314
  190ccc    H11 8017   8.903   4.174   0.901 -0.6885 -1.0268  0.1152
  190ccc    H12 8018   8.961   4.200   0.733  1.7086 -0.7308  1.1492
  190ccc     C8 8019   8.880   4.002   0.782  0.4005  0.0677 -0.1343
  190ccc     O2 8020   8.799   3.925   0.819 -0.1083 -0.1118 -0.5414
  190ccc    H13 8021   8.754   4.540   0.860 -0.3500 -0.0483 -1.2809
  190ccc    H14 8022   8.891   4.434   0.876 -0.1476 -0.9531 -2.1154
  190ccc     C9 8023   8.720   4.387   1.015 -0.7625 -0.0609  0.4030
  190ccc    H15 8024   8.735   4.279   1.027 -1.5952 -0.0658  1.5705
  190ccc    H16 8025   8.611   4.399   1.018 -0.5623  1.7155  2.0763
  190ccc    C10 8026   8.767   4.484   1.126 -0.6157 -0.3061  0.2250
  190ccc     O4 8027   8.796   4.601   1.101 -0.0155  0.1263 -0.2060
  190ccc    C11 8028   9.130   3.557   0.600  0.3881 -0.0510 -0.2411
  190ccc    C12 8029   9.228   3.648   0.684  0.4991  0.1428 -0.3061
  190ccc    H17 8030   9.141   3.602   0.501 -1.3293  3.0999  0.8787
  190ccc    C13 8031   9.178   3.785   0.713 -0.3904 -0.2349 -0.0893
  190ccc    C14 8032   9.023   3.802   0.737 -0.6050 -0.0388 -0.0137
  190ccc    C15 8033   8.944   3.702   0.636 -0.3294  0.1383 -1.0550
  190ccc    H18 8034   8.994   3.766   0.836 -1.4471  0.8716  0.0972
  190ccc    H19 8035   9.194   3.844   0.622 -0.9385 -0.9798 -0.6868
  190ccc    H20 8036   8.959   3.727   0.531  0.2478 -1.2914 -1.3357
  190ccc     O1 8037   8.804   3.704   0.667  0.5912  0.0974 -0.6713
  190ccc     O6 8038   9.253   3.850   0.827 -0.2704 -0.2690 -0.0145
  190ccc    C16 8039   9.172   3.412   0.593  0.8334  0.0995  0.2026
  190ccc    H21 8040   9.252   3.947   0.815 -0.4922 -0.5927 -3.9356
  190ccc    H22 8041   9.075   4.012   0.723 -0.0740  0.2448  0.5781
  190ccc    H23 8042   9.277   3.419   0.561 -0.2957  2.4090 -3.5579
  190ccc    H24 8043   9.120   3.367   0.507  2.9264  0.0232 -1.0859
  190ccc     O7 8044   9.161   3.339   0.713 -0.5722  0.3088 -0.4509
  190ccc    H25 8045   9.069   3.362   0.734 -0.6683  0.6154 -1.1996
  190ccc     O8 8046   8.991   3.569   0.647 -0.2781 -0.6279 -0.3938
  190ccc    H26 8047   8.788   3.797   0.690 -1.5455 -0.2761 -0.4360
  190ccc    H27 8048   9.249   3.603   0.782 -2.4018 -0.7428  0.0167
  190ccc     O9 8049   9.352   3.650   0.620 -0.0040 -0.0037  0.2992
  190ccc    H28 8050   9.389   3.740   0.627 -0.8491  0.6015 -2.2241
  190ccc     N3 8051   8.996   3.949   0.737 -0.0337  0.1105  0.2114
  190ccc    C17 8052   8.946   4.138   1.480  0.3656 -0.1575  0.7157
  190ccc    C18 8053   8.795   4.157   1.507  0.1094 -0.2701 -0.4108
  190ccc    H29 8054   8.994   4.217   1.539 -2.4183  1.4012  1.0826
  190ccc    C19 8055   8.746   4.299   1.447 -0.8455  0.2841 -0.2855
  190ccc    C20 8056   8.795   4.311   1.299 -0.3263  0.9435 -0.5522
  190ccc    C21 8057   8.942   4.279   1.272 -0.0478  0.0345 -0.7415
  190ccc    H30 8058   8.733   4.239   1.244 -1.0040  1.8273 -0.9667
  190ccc    H31 8059   8.778   4.377   1.517 -3.1393  0.3855  0.7378
  190ccc    H32 8060   9.002   4.362   1.312  0.9077 -1.4482  1.0142
  190ccc    O10 8061   8.976   4.256   1.139 -0.1652  0.2937 -0.0464
  190ccc    O11 8062   8.599   4.299   1.446  0.5520  0.5499  0.1896
  190ccc    C22 8063   9.019   4.015   1.535  0.3960 -0.2461 -0.0765
  190ccc    H33 8064   8.565   4.349   1.370 -0.9292 -2.5622 -1.3491
  190ccc    H34 8065   8.791   4.516   1.327  0.9413 -0.9872  1.0134
  190ccc    H35 8066   8.990   4.005   1.640 -0.9509  0.8896 -0.3096
  190ccc    H36 8067   9.129   4.022   1.538  0.5974 -1.0219 -2.8256
  190ccc    O12 8068   8.975   3.889   1.475 -0.2281 -0.2878  0.6942
  190ccc    H37 8069   9.009   3.888   1.384 -1.4333 -2.3912  0.2046
  190ccc    O13 8070   8.990   4.167   1.345 -0.6954  0.3309  0.3104
  190ccc    H38 8071   9.065   4.225   1.159  0.4199  0.5831 -1.9682
  190ccc    H39 8072   8.754   4.066   1.463  0.2494  0.3127 -1.7986
  190ccc     O5 8073   8.772   4.164   1.649  0.3261 -0.7604 -0.0162
  190ccc    H40 8074   8.714   4.241   1.665 -0.2246 -1.1304 -0.1798
  190ccc     N4 8075   8.756   4.452   1.257  0.4307  0.2621  0.0929
  190ccc    H41 8076   8.626   4.399   0.754  0.3908  2.0023  4.3911
  191ccc     N1 8077   8.376   4.174  -0.277 -0.0865  0.3740 -0.2723
  191ccc     H4 8078   8.436   4.253  -0.257 -1.1847  1.4386 -1.0297
  191ccc     C3 8079   8.390   4.103  -0.405 -0.7664 -0.4650  0.2944
  191ccc     H5 8080   8.366   3.997  -0.396  1.2827 -0.9298  0.6580
  191ccc     C4 8081   8.538   4.110  -0.457 -0.4863 -0.4458 -0.0765
  191ccc     H6 8082   8.333   4.152  -0.485 -0.0928 -1.4107 -0.7771
  191ccc     H7 8083   8.556   4.214  -0.487  0.7373 -1.0319 -1.4991
  191ccc     H8 8084   8.547   4.061  -0.554  1.7236  1.0752 -0.7168
  191ccc     N2 8085   8.648   4.072  -0.354 -0.3318  0.1686 -0.0484
  191ccc     C5 8086   8.793   4.107  -0.399 -0.3152 -0.3371  0.1991
  191ccc     C6 8087   8.637   3.919  -0.336  0.0456 -1.1168  0.1206
  191ccc     H9 8088   8.531   3.890  -0.332 -0.3742 -0.2385 -2.4370
  191ccc     C7 8089   8.701   3.869  -0.209 -0.7494  0.2732  0.3644
  191ccc    H10 8090   8.684   3.882  -0.428  0.5723  0.1501 -0.1284
  191ccc    H11 8091   8.810   3.866  -0.216 -0.8588 -3.4556 -3.1170
  191ccc    H12 8092   8.674   3.764  -0.197 -0.4496  0.1880  0.2892
  191ccc     C8 8093   8.647   3.926  -0.082 -0.0784 -0.1900  0.0418
  191ccc     O2 8094   8.547   3.997  -0.085 -0.3052 -0.1575  0.3031
  191ccc    H13 8095   8.793   4.100  -0.509 -1.3481  1.3026  0.0498
  191ccc    H14 8096   8.866   4.038  -0.357 -1.6160 -1.3386  0.8945
  191ccc     C9 8097   8.832   4.255  -0.368 -0.4469 -0.8090 -0.3203
  191ccc    H15 8098   8.824   4.274  -0.260 -2.6469  0.4114 -0.6598
  191ccc    H16 8099   8.768   4.328  -0.418  0.2026 -0.6211 -0.8908
  191ccc    C10 8100   8.978   4.284  -0.407  0.1853  0.3753 -0.3308
  191ccc     O4 8101   9.055   4.206  -0.464  0.4447  0.1450  0.9752
  191ccc    C11 8102   8.590   3.865   0.461 -0.1214  0.8450  0.0467
  191ccc    C12 8103   8.679   3.982   0.413  0.0456 -0.2142  0.5719
  191ccc    H17 8104   8.645   3.774   0.483 -1.4575 -0.2270 -0.8694
  191ccc    C13 8105   8.750   3.956   0.275 -0.0436 -0.0743 -0.4362
  191ccc    C14 8106   8.639   3.916   0.176  0.1696 -0.0767  0.2235
  191ccc    C15 8107   8.560   3.794   0.226  0.7120 -0.4539 -0.2648
  191ccc    H18 8108   8.576   4.005   0.166  0.5796  0.5738  2.7691
  191ccc    H19 8109   8.812   3.867   0.290  0.7051 -0.1062 -3.1414
  191ccc    H20 8110   8.622   3.703   0.230 -1.2466 -2.1303 -3.5916
  191ccc     O1 8111   8.452   3.777   0.131 -0.3154  0.2567 -0.4910
  191ccc     O6 8112   8.830   4.057   0.234 -0.8024 -0.6249  0.1119
  191ccc    C16 8113   8.514   3.907   0.588  0.1746  0.5168  0.1468
  191ccc    H21 8114   8.841   4.041   0.139 -1.0273 -1.5280  0.2349
  191ccc    H22 8115   8.773   3.821   0.046  0.0526 -0.2529  2.4422
  191ccc    H23 8116   8.583   3.908   0.673 -0.2521  1.2793  0.4936
  191ccc    H24 8117   8.439   3.831   0.613  2.2677 -1.9567 -0.5458
  191ccc     O7 8118   8.441   4.027   0.570 -0.5383 -0.6694  0.5290
  191ccc    H25 8119   8.428   4.059   0.662  3.1816  1.6679  0.4158
  191ccc     O8 8120   8.501   3.830   0.354 -0.4670  0.0006 -0.5430
  191ccc    H26 8121   8.374   3.741   0.175 -0.7511 -0.7103 -2.0059
  191ccc    H27 8122   8.611   4.068   0.407  0.9810  0.4965 -0.2791
  191ccc     O9 8123   8.774   4.000   0.516  0.3394  0.1407  0.1776
  191ccc    H28 8124   8.849   4.048   0.478  0.1930 -0.7161 -1.2835
  191ccc     N3 8125   8.701   3.893   0.037  0.2521 -0.2626  0.1503
  191ccc    C17 8126   9.027   4.706  -0.074  0.7566  0.3216 -0.4115
  191ccc    C18 8127   8.992   4.748  -0.214 -0.3154 -0.0396 -0.2307
  191ccc    H29 8128   9.136   4.696  -0.063  0.5006 -1.2089  1.2784
  191ccc    C19 8129   9.030   4.639  -0.318  0.0067  0.8051  0.7573
  191ccc    C20 8130   8.976   4.495  -0.276 -0.0590 -0.7768 -0.2812
  191ccc    C21 8131   9.008   4.470  -0.128 -0.6147 -0.0584 -0.3953
  191ccc    H30 8132   8.866   4.498  -0.282 -0.0822 -2.2383 -1.1678
  191ccc    H31 8133   9.139   4.645  -0.331  0.3507 -1.7624  1.8292
  191ccc    H32 8134   9.115   4.451  -0.115 -0.5570 -0.0933 -0.8864
  191ccc    O10 8135   8.941   4.363  -0.072 -0.2272  0.2680 -0.4913
  191ccc    O11 8136   8.965   4.671  -0.444  0.1372 -0.6519  0.0676
  191ccc    C22 8137   8.969   4.812   0.022 -0.1404  0.0745  0.0799
  191ccc    H33 8138   8.970   4.768  -0.440 -1.0594 -0.6118  0.9728
  191ccc    H34 8139   9.135   4.393  -0.346 -0.3272  3.4402  2.6439
  191ccc    H35 8140   8.967   4.910  -0.027  1.2098 -0.0313 -0.2416
  191ccc    H36 8141   9.027   4.811   0.116  0.1895  3.0325  0.0127
  191ccc    O12 8142   8.839   4.784   0.050  0.4443 -0.0658 -0.1578
  191ccc    H37 8143   8.809   4.823   0.134  0.9229 -0.4293  0.1890
  191ccc    O13 8144   8.966   4.576  -0.047  0.4257  0.1444  0.0744
  191ccc    H38 8145   8.937   4.394   0.020  2.3240 -2.5106  0.7000
  191ccc    H39 8146   8.883   4.764  -0.211 -0.3486 -0.4837  1.3777
  191ccc     O5 8147   9.067   4.866  -0.246  0.3055  0.5674 -0.0025
  191ccc    H40 8148   9.010   4.940  -0.218 -0.6075  0.0771 -0.4975
  191ccc     N4 8149   9.034   4.393  -0.361 -0.1719 -0.4173  0.1699
  191ccc    H41 8150   8.634   4.115  -0.262  0.0321 -0.3554  0.2565
  192ccc     N1 8151   8.097   3.742   1.850 -0.3792 -0.5493 -0.1599
  192ccc     H4 8152   8.041   3.710   1.772  0.1400  0.8270 -1.1249
  192ccc     C3 8153   8.041   3.784   1.979 -0.6294 -0.4181 -0.2547
  192ccc     H5 8154   8.036   3.705   2.056  1.6213 -0.3237  0.0561
  192ccc     C4 8155   7.897   3.850   1.969 -0.6072  0.2089 -0.7578
  192ccc     H6 8156   8.113   3.854   2.024 -0.4473 -0.6272 -0.2168
  192ccc     H7 8157   7.827   3.773   1.936  2.2799 -2.3016 -1.5514
  192ccc     H8 8158   7.895   3.925   1.889 -0.3678  0.3825 -0.6027
  192ccc     N2 8159   7.842   3.909   2.099  0.3591 -0.2984  0.9992
  192ccc     C5 8160   7.931   4.028   2.152 -0.2207  0.4640  0.6444
  192ccc     C6 8161   7.817   3.808   2.214 -0.4402 -0.2263 -0.3545
  192ccc     H9 8162   7.916   3.792   2.260 -0.4793  0.1787 -0.1225
  192ccc     C7 8163   7.747   3.679   2.183 -0.8623  0.0025  0.2663
  192ccc    H10 8164   7.753   3.859   2.287  1.1184  0.2694  0.7189
  192ccc    H11 8165   7.815   3.624   2.117  0.9250 -0.1817  2.1689
  192ccc    H12 8166   7.653   3.698   2.131  0.4098  0.5607 -1.9489
  192ccc     C8 8167   7.713   3.597   2.310 -0.8149 -0.0349 -0.3340
  192ccc     O2 8168   7.668   3.644   2.416 -0.4438 -0.7225  0.1322
  192ccc    H13 8169   8.033   3.991   2.138  0.6045  2.0673  2.0246
  192ccc    H14 8170   7.913   4.048   2.259  0.7884  0.2930  0.8610
  192ccc     C9 8171   7.910   4.161   2.068 -0.2656  0.9106 -0.0662
  192ccc    H15 8172   7.904   4.145   1.960 -2.7720  2.8321 -0.3041
  192ccc    H16 8173   7.995   4.228   2.088 -1.5435  1.9199  2.6157
  192ccc    C10 8174   7.787   4.232   2.113 -0.5161  0.2482 -0.3367
  192ccc     O4 8175   7.708   4.192   2.197  0.2697  0.1516 -0.0440
  192ccc    C11 8176   7.754   3.094   2.520  0.1138 -0.7612  0.1642
  192ccc    C12 8177   7.822   3.221   2.585  0.0612  0.4492  0.0186
  192ccc    H17 8178   7.825   3.044   2.452  1.1413 -0.0478  0.6794
  192ccc    C13 8179   7.832   3.339   2.485 -0.0051  0.0186 -0.4061
  192ccc    C14 8180   7.705   3.362   2.407 -0.4268 -0.5385  0.3006
  192ccc    C15 8181   7.656   3.227   2.349  0.2082  0.1322  0.4702
  192ccc    H18 8182   7.632   3.399   2.480 -0.4428  0.2867 -0.1244
  192ccc    H19 8183   7.914   3.315   2.416  0.2461 -3.7511  0.9493
  192ccc    H20 8184   7.735   3.189   2.284 -1.1387  1.4211 -2.1260
  192ccc     O1 8185   7.537   3.248   2.276 -0.0255  0.8482 -0.0028
  192ccc     O6 8186   7.875   3.459   2.549 -0.0257 -0.2720 -0.7700
  192ccc    C16 8187   7.705   2.998   2.635 -0.0809 -0.8953 -0.1802
  192ccc    H21 8188   7.921   3.520   2.489  0.0455 -0.2535 -0.6967
  192ccc    H22 8189   7.784   3.432   2.219  2.4273  2.1927  1.0356
  192ccc    H23 8190   7.623   3.043   2.693 -0.4885 -1.6575 -0.1468
  192ccc    H24 8191   7.791   2.988   2.703  0.1289  0.6164 -0.1900
  192ccc     O7 8192   7.660   2.876   2.587  0.2129  0.6427  0.0816
  192ccc    H25 8193   7.611   2.840   2.663 -0.3924 -0.0380 -0.6233
  192ccc     O8 8194   7.631   3.129   2.450  0.0400  0.0630 -0.5152
  192ccc    H26 8195   7.474   3.282   2.342 -1.5628  1.1951 -1.5567
  192ccc    H27 8196   7.757   3.256   2.666 -1.4144 -1.9467 -0.0130
  192ccc     O9 8197   7.952   3.190   2.633 -0.2185 -0.3893 -0.0214
  192ccc    H28 8198   7.983   3.274   2.671  1.7853 -1.4800  0.9014
  192ccc     N3 8199   7.734   3.464   2.302 -0.6366 -0.1260  0.2667
  192ccc    C17 8200   7.898   4.676   1.808 -0.6627  0.3132 -0.0167
  192ccc    C18 8201   7.986   4.634   1.928  0.0558 -0.1048 -0.2137
  192ccc    H29 8202   7.826   4.748   1.850  1.0571  2.2651 -0.2521
  192ccc    C19 8203   7.907   4.542   2.032 -0.2033  0.2649 -0.2310
  192ccc    C20 8204   7.838   4.426   1.953 -0.3096  0.2280 -0.5807
  192ccc    C21 8205   7.756   4.474   1.833  0.1142  0.7169 -0.1149
  192ccc    H30 8206   7.917   4.359   1.919 -1.7654 -2.3194  0.7332
  192ccc    H31 8207   7.842   4.603   2.096  1.6153  0.4633  1.5131
  192ccc    H32 8208   7.664   4.529   1.856 -2.0477 -2.4633 -0.6139
  192ccc    O10 8209   7.724   4.363   1.757  0.1648 -0.1916  0.0915
  192ccc    O11 8210   8.012   4.491   2.113  0.3101  0.1863  0.5396
  192ccc    C22 8211   7.984   4.749   1.697  1.2424 -0.2638  0.1098
  192ccc    H33 8212   8.030   4.558   2.182  0.2113 -0.5273  1.2716
  192ccc    H34 8213   7.664   4.389   2.069 -0.4547 -1.6345  1.0276
  192ccc    H35 8214   8.034   4.839   1.733  2.1414  0.8930 -3.6320
  192ccc    H36 8215   7.917   4.768   1.612 -0.3534 -1.8838  0.9204
  192ccc    O12 8216   8.079   4.665   1.641 -0.4671  0.3285  0.0010
  192ccc    H37 8217   8.032   4.601   1.584 -0.3016  0.6785 -0.5438
  192ccc    O13 8218   7.841   4.560   1.756  0.0971  0.6260  0.5484
  192ccc    H38 8219   7.673   4.398   1.682 -0.9595  0.5709  1.1704
  192ccc    H39 8220   8.069   4.573   1.889  1.6688  0.9605  1.3950
  192ccc     O5 8221   8.049   4.749   1.990  0.1370  0.2475  1.1948
  192ccc    H40 8222   7.977   4.798   2.033  0.2517  1.2809  0.2585
  192ccc     N4 8223   7.756   4.347   2.051  0.2439  0.3974 -0.5384
  192ccc    H41 8224   7.755   3.954   2.066  0.8920  0.0699  0.0452
  193ccc     N1 8225   8.900   3.586   1.641  0.7257 -0.1902  0.3664
  193ccc     H4 8226   8.927   3.628   1.729 -0.6498 -1.3362  1.3718
  193ccc     C3 8227   8.953   3.451   1.608  0.1806 -0.4763  0.5806
  193ccc     H5 8228   8.888   3.375   1.653 -0.3999 -0.3087  0.0472
  193ccc     C4 8229   9.111   3.442   1.644  0.6500 -0.1832 -0.1668
  193ccc     H6 8230   8.947   3.453   1.498  0.4153  0.3521  0.5752
  193ccc     H7 8231   9.127   3.337   1.616 -0.9646 -0.2389 -0.9677
  193ccc     H8 8232   9.118   3.456   1.753  0.1622  2.5031 -0.3979
  193ccc     N2 8233   9.223   3.524   1.573 -0.1849 -0.3536 -0.1647
  193ccc     C5 8234   9.204   3.679   1.596 -0.7173 -0.1086 -0.6630
  193ccc     C6 8235   9.252   3.482   1.426  0.4505  0.8398  0.0794
  193ccc     H9 8236   9.165   3.517   1.369 -1.2797  1.1376  2.7352
  193ccc     C7 8237   9.279   3.324   1.401 -0.1213  0.2486 -0.3337
  193ccc    H10 8238   9.345   3.530   1.393 -0.7545  1.9904 -1.8486
  193ccc    H11 8239   9.190   3.263   1.421 -0.1708  0.1274 -0.9083
  193ccc    H12 8240   9.365   3.297   1.462 -0.2645 -1.2266 -0.7474
  193ccc     C8 8241   9.307   3.299   1.251  0.2748 -0.2625 -0.0384
  193ccc     O2 8242   9.251   3.371   1.169 -0.1149 -0.2412  0.5399
  193ccc    H13 8243   9.191   3.692   1.704 -0.2213 -1.4511 -0.4201
  193ccc    H14 8244   9.115   3.715   1.542 -0.2380  2.6267  0.1950
  193ccc     C9 8245   9.334   3.770   1.582  0.5132 -0.6374  0.4505
  193ccc    H15 8246   9.420   3.722   1.629  1.5550 -1.1888 -1.8592
  193ccc    H16 8247   9.308   3.869   1.622  0.1808 -1.1444  1.5226
  193ccc    C10 8248   9.366   3.793   1.433  0.7987  0.3790  0.5643
  193ccc     O4 8249   9.283   3.798   1.343 -0.1521  0.6886 -0.6163
  193ccc    C11 8250   9.471   3.226   0.786  0.2793 -0.1741 -0.2455
  193ccc    C12 8251   9.577   3.308   0.870  0.6349 -0.1299 -0.4218
  193ccc    H17 8252   9.384   3.293   0.784 -1.2909 -2.0955  0.1015
  193ccc    C13 8253   9.531   3.323   1.019  0.3454  0.0488 -0.7750
  193ccc    C14 8254   9.463   3.190   1.083 -0.6305 -0.1904 -0.5792
  193ccc    C15 8255   9.365   3.128   0.983  0.4646 -0.1009  0.2227
  193ccc    H18 8256   9.536   3.109   1.092 -2.2094 -1.5467  0.8821
  193ccc    H19 8257   9.455   3.401   1.016  0.6909  0.3702 -1.2502
  193ccc    H20 8258   9.278   3.190   0.959  1.1113  0.2866 -1.2746
  193ccc     O1 8259   9.311   3.004   1.034  0.0988 -0.5099  0.5489
  193ccc     O6 8260   9.641   3.360   1.093 -0.0614  0.2355 -0.0058
  193ccc    C16 8261   9.509   3.194   0.638  0.0122  0.1033 -0.9356
  193ccc    H21 8262   9.699   3.283   1.079 -1.3597 -0.3285 -3.2738
  193ccc    H22 8263   9.461   3.167   1.288  1.2242  2.0611  0.6245
  193ccc    H23 8264   9.598   3.131   0.651  1.1325  1.6187 -0.8104
  193ccc    H24 8265   9.539   3.288   0.589 -0.1107 -0.4777 -2.1600
  193ccc     O7 8266   9.408   3.132   0.569  0.2873  0.6725 -0.2128
  193ccc    H25 8267   9.445   3.098   0.485 -0.1377 -0.9234  0.2012
  193ccc     O8 8268   9.441   3.107   0.854  0.1648  0.6997  0.1411
  193ccc    H26 8269   9.389   2.949   1.054  1.1476  0.9219  0.5286
  193ccc    H27 8270   9.668   3.247   0.862 -1.0345 -3.0246  1.1298
  193ccc     O9 8271   9.600   3.442   0.811  0.1514  0.2098 -0.1360
  193ccc    H28 8272   9.697   3.445   0.810  0.1582  0.7178 -1.8849
  193ccc     N3 8273   9.405   3.215   1.217  0.2484  0.1909  0.0645
  193ccc    C17 8274   9.573   3.790   0.983  0.2802  0.2528  0.3761
  193ccc    C18 8275   9.599   3.926   1.055 -0.2353 -0.4773  0.0659
  193ccc    H29 8276   9.470   3.777   0.948 -0.2139  0.8061  1.5473
  193ccc    C19 8277   9.526   3.932   1.196 -0.1575 -0.1727  0.9227
  193ccc    C20 8278   9.554   3.807   1.274  0.0010 -0.3819 -0.9243
  193ccc    C21 8279   9.529   3.677   1.193 -0.3192 -0.1291 -0.2417
  193ccc    H30 8280   9.662   3.815   1.292 -0.1112 -0.2029 -0.3127
  193ccc    H31 8281   9.421   3.925   1.165  0.0814  0.5285 -0.1248
  193ccc    H32 8282   9.421   3.667   1.175 -0.5077 -0.0644  0.7759
  193ccc    O10 8283   9.575   3.559   1.267  0.2958 -0.0098 -0.5168
  193ccc    O11 8284   9.565   4.054   1.265  0.0518  0.1493  0.0206
  193ccc    C22 8285   9.674   3.787   0.862 -0.5405 -0.3794 -0.0533
  193ccc    H33 8286   9.659   4.079   1.254 -0.3794  2.1847  0.4592
  193ccc    H34 8287   9.563   3.756   1.476 -0.3387 -0.1323  0.8476
  193ccc    H35 8288   9.770   3.740   0.888  0.1417  0.6475 -0.6197
  193ccc    H36 8289   9.701   3.889   0.830  0.5970 -0.2989  1.0826
  193ccc    O12 8290   9.617   3.702   0.759 -0.3907  0.4379 -0.0095
  193ccc    H37 8291   9.598   3.613   0.795 -0.3143 -0.2536 -1.5751
  193ccc    O13 8292   9.604   3.680   1.074  0.9898  0.3724 -0.2768
  193ccc    H38 8293   9.581   3.488   1.201  0.1905  0.6335 -1.2199
  193ccc    H39 8294   9.708   3.932   1.069 -0.4471  0.3365  1.4739
  193ccc     O5 8295   9.564   4.037   0.976  0.0355  0.9009  0.0721
  193ccc    H40 8296   9.546   4.100   1.048  0.1969  0.1135  0.8168
  193ccc     N4 8297   9.498   3.800   1.410  0.3181 -0.0155  0.2706
  193ccc    H41 8298   9.310   3.506   1.624  0.6832  1.3369 -0.9626
  194ccc     N1 8299   6.901   3.781  -0.185  0.3984 -0.1796  0.8070
  194ccc     H4 8300   6.898   3.849  -0.110  0.3553 -1.3660  1.9122
  194ccc     C3 8301   6.891   3.835  -0.327  0.4641  0.1316  0.0908
  194ccc     H5 8302   6.976   3.808  -0.392 -2.4951  0.3579 -4.2846
  194ccc     C4 8303   6.876   3.994  -0.320  0.2690 -0.6449  0.8920
  194ccc     H6 8304   6.797   3.791  -0.363 -0.3779 -0.1798  2.4944
  194ccc     H7 8305   6.975   4.036  -0.296  0.3338 -0.2588  0.0041
  194ccc     H8 8306   6.810   4.019  -0.236  2.8281  1.5018  2.4026
  194ccc     N2 8307   6.836   4.073  -0.450  0.5770 -0.2992  0.3037
  194ccc     C5 8308   6.685   4.059  -0.492 -0.6388 -0.2049  0.2836
  194ccc     C6 8309   6.929   4.042  -0.568 -0.0129 -0.4002  1.0076
  194ccc     H9 8310   6.943   3.933  -0.573 -0.8510 -0.4477 -1.4388
  194ccc     C7 8311   7.067   4.123  -0.568  0.5378  0.0710  0.3161
  194ccc    H10 8312   6.877   4.073  -0.659 -2.1327 -1.3085  1.8503
  194ccc    H11 8313   7.130   4.097  -0.482 -1.4644  2.0407  2.5325
  194ccc    H12 8314   7.046   4.231  -0.565  0.4694  0.0527  0.4826
  194ccc     C8 8315   7.149   4.100  -0.693 -0.7275  0.1654 -0.8290
  194ccc     O2 8316   7.105   4.102  -0.802  0.0806  0.5235 -0.5832
  194ccc    H13 8317   6.622   4.041  -0.404  0.0839 -0.9358  0.6749
  194ccc    H14 8318   6.670   3.978  -0.565 -0.7318  0.1646 -0.1100
  194ccc     C9 8319   6.631   4.183  -0.564  0.6432 -0.4447 -0.7714
  194ccc    H15 8320   6.688   4.206  -0.655 -0.6277  0.8753 -1.2799
  194ccc    H16 8321   6.646   4.274  -0.504 -0.6485  0.4940 -1.7986
  194ccc    C10 8322   6.485   4.175  -0.603 -0.5632 -0.4750  0.4069
  194ccc     O4 8323   6.406   4.099  -0.551 -0.4835  0.3405 -0.2525
  194ccc    C11 8324   7.597   3.885  -0.469 -0.4193  1.0295 -0.4392
  194ccc    C12 8325   7.608   4.038  -0.476  0.4897  0.5552 -0.0814
  194ccc    H17 8326   7.628   3.829  -0.559 -0.8434 -3.3131  1.8402
  194ccc    C13 8327   7.519   4.090  -0.594 -0.3867 -0.9556  0.3394
  194ccc    C14 8328   7.368   4.048  -0.566 -0.2696  0.1556  0.0333
  194ccc    C15 8329   7.368   3.895  -0.546  0.1786 -0.2356  0.6523
  194ccc    H18 8330   7.341   4.097  -0.472 -0.8656  0.4713 -0.2993
  194ccc    H19 8331   7.556   4.043  -0.686 -0.4838  2.1716 -1.4602
  194ccc    H20 8332   7.390   3.841  -0.638 -2.5429 -0.5639  0.1024
  194ccc     O1 8333   7.240   3.855  -0.500 -0.5578 -0.1544 -0.3368
  194ccc     O6 8334   7.520   4.238  -0.602  0.1239 -0.0438 -0.1698
  194ccc    C16 8335   7.687   3.834  -0.355  0.0531 -0.3010 -0.1719
  194ccc    H21 8336   7.473   4.262  -0.684 -0.4677  1.1067  0.4853
  194ccc    H22 8337   7.327   4.059  -0.774 -0.2503 -1.7626  0.1163
  194ccc    H23 8338   7.691   3.908  -0.274  0.6734  0.1955 -0.6415
  194ccc    H24 8339   7.792   3.824  -0.387  1.5375  1.0287  3.6590
  194ccc     O7 8340   7.639   3.716  -0.295 -0.3882  0.2224  0.1486
  194ccc    H25 8341   7.640   3.632  -0.344 -1.3828 -0.1889  0.7766
  194ccc     O8 8342   7.458   3.855  -0.439  0.2525  0.5157 -0.1211
  194ccc    H26 8343   7.244   3.877  -0.406 -0.0358 -0.5361 -0.2634
  194ccc    H27 8344   7.590   4.077  -0.375  0.0331 -2.4394  1.0996
  194ccc     O9 8345   7.744   4.074  -0.507 -0.1804 -0.2519  0.0282
  194ccc    H28 8346   7.805   4.046  -0.437  0.1644  2.0005  0.7029
  194ccc     N3 8347   7.281   4.077  -0.685  0.0104 -0.1582 -0.0470
  194ccc    C17 8348   6.020   4.268  -0.740 -0.2560 -0.0736  0.0943
  194ccc    C18 8349   6.075   4.375  -0.641 -0.5507  0.3936  0.0452
  194ccc    H29 8350   5.994   4.182  -0.677 -1.3698 -0.8636 -1.3766
  194ccc    C19 8351   6.228   4.360  -0.618 -0.2243 -0.2876 -0.1336
  194ccc    C20 8352   6.308   4.310  -0.735 -0.7413  0.2416 -0.4654
  194ccc    C21 8353   6.243   4.177  -0.790  0.9978 -0.8501  0.7850
  194ccc    H30 8354   6.316   4.390  -0.810 -1.1823 -0.1675 -0.9563
  194ccc    H31 8355   6.235   4.290  -0.534  0.9729 -0.1866 -0.1262
  194ccc    H32 8356   6.225   4.102  -0.712  0.7316 -2.6316 -0.9188
  194ccc    O10 8357   6.313   4.111  -0.897  0.8469 -0.6793  0.0209
  194ccc    O11 8358   6.276   4.487  -0.576  0.6835 -0.3121 -0.2887
  194ccc    C22 8359   5.894   4.308  -0.811  0.7693 -0.5221 -0.3887
  194ccc    H33 8360   6.372   4.485  -0.590  0.6789 -0.5030 -0.3037
  194ccc    H34 8361   6.510   4.358  -0.705  1.6292 -1.0796  1.3155
  194ccc    H35 8362   5.867   4.230  -0.883  0.0043 -0.4010 -0.2497
  194ccc    H36 8363   5.810   4.302  -0.740  0.4004 -1.1870 -0.8706
  194ccc    O12 8364   5.913   4.425  -0.887 -0.3030 -0.4498  0.1096
  194ccc    H37 8365   5.842   4.431  -0.953 -0.2913  1.7679  0.2499
  194ccc    O13 8366   6.117   4.219  -0.838 -0.1526  0.2915 -0.1654
  194ccc    H38 8367   6.261   4.050  -0.951  2.6699 -0.4819 -2.0796
  194ccc    H39 8368   6.063   4.478  -0.678 -0.5136  0.1360 -0.7141
  194ccc     O5 8369   6.008   4.352  -0.517  0.4096  0.0437  0.4449
  194ccc    H40 8370   5.916   4.383  -0.523  0.5124  0.6328  1.5645
  194ccc     N4 8371   6.448   4.280  -0.684  0.2507 -0.2294  0.6071
  194ccc    H41 8372   6.853   4.171  -0.427 -2.2978  0.0831  1.1235
  195ccc     N1 8373   7.341   3.259   0.195 -0.2981 -0.3622  0.3939
  195ccc     H4 8374   7.335   3.228   0.099  1.6579 -0.7868  0.3841
  195ccc     C3 8375   7.434   3.195   0.286 -0.4757  0.0787 -0.4907
  195ccc     H5 8376   7.455   3.253   0.377  1.4528 -1.1562 -0.0779
  195ccc     C4 8377   7.564   3.146   0.221  0.5804 -0.2939  0.1319
  195ccc     H6 8378   7.389   3.099   0.315  0.3219 -0.4077 -0.8095
  195ccc     H7 8379   7.526   3.071   0.151  0.9520 -0.3880  0.0313
  195ccc     H8 8380   7.631   3.099   0.294 -0.4055 -0.9917  0.6207
  195ccc     N2 8381   7.640   3.247   0.134 -0.4923  0.0233  0.2478
  195ccc     C5 8382   7.712   3.171   0.022  0.3793 -0.1821 -0.5449
  195ccc     C6 8383   7.739   3.334   0.222 -0.4953  0.2193  0.6005
  195ccc     H9 8384   7.771   3.424   0.166  0.7565 -1.5572 -1.7640
  195ccc     C7 8385   7.854   3.260   0.280 -0.1514 -0.4344  0.0817
  195ccc    H10 8386   7.680   3.385   0.299 -1.3706 -0.0455  0.1174
  195ccc    H11 8387   7.911   3.209   0.201 -0.2805 -3.5391  1.8184
  195ccc    H12 8388   7.827   3.180   0.350 -0.1624  0.3187  0.9537
  195ccc     C8 8389   7.944   3.347   0.367  0.1874 -0.1819 -0.0138
  195ccc     O2 8390   7.930   3.464   0.392 -1.0981 -0.7446  0.2124
  195ccc    H13 8391   7.635   3.132  -0.047 -3.2842  1.0185  2.4945
  195ccc    H14 8392   7.771   3.084   0.055 -0.7155 -1.8443 -2.6593
  195ccc     C9 8393   7.785   3.263  -0.065  0.4068 -0.9686  0.1278
  195ccc    H15 8394   7.808   3.208  -0.157  0.9366  0.7102 -0.7741
  195ccc    H16 8395   7.881   3.291  -0.022 -1.2701  1.4235  2.6160
  195ccc    C10 8396   7.703   3.393  -0.113 -0.9445  0.1252 -0.0253
  195ccc     O4 8397   7.588   3.408  -0.144  0.1752 -0.7794  0.4713
  195ccc    C11 8398   8.264   3.070   0.541 -0.1400 -0.2455  0.2966
  195ccc    C12 8399   8.324   3.153   0.424  0.5818  0.2128 -0.2308
  195ccc    H17 8400   8.177   3.019   0.499  0.7296 -1.8972  0.4090
  195ccc    C13 8401   8.302   3.323   0.425 -0.1783 -0.7137 -0.0850
  195ccc    C14 8402   8.150   3.331   0.504 -0.0125  0.4304  0.2086
  195ccc    C15 8403   8.129   3.249   0.636  0.4185  0.2666  0.3864
  195ccc    H18 8404   8.111   3.430   0.531  1.2783  1.3089 -1.0184
  195ccc    H19 8405   8.248   3.310   0.331  1.4441  0.0175 -1.1730
  195ccc    H20 8406   8.033   3.197   0.628 -0.0429  1.1241  0.2515
  195ccc     O1 8407   8.128   3.323   0.753  0.7012  0.2154  0.1480
  195ccc     O6 8408   8.459   3.502   0.402 -0.3016  0.2078 -0.4930
  195ccc    C16 8409   8.358   2.955   0.587 -0.1293  0.5938  0.2837
  195ccc    H21 8410   8.408   3.576   0.439  0.3065  0.4955 -0.2220
  195ccc    H22 8411   8.073   3.190   0.372 -1.3206  0.2178 -1.7085
  195ccc    H23 8412   8.448   2.989   0.641  0.2963  0.6136 -0.4229
  195ccc    H24 8413   8.396   2.909   0.495  1.6237  0.8934  0.8219
  195ccc     O7 8414   8.283   2.856   0.660  0.2216  0.3771 -0.0691
  195ccc    H25 8415   8.230   2.806   0.596  2.9218 -2.2748 -0.4772
  195ccc     O8 8416   8.240   3.157   0.656  0.6605 -0.6947 -0.3004
  195ccc    H26 8417   8.153   3.258   0.821  0.6297  1.7674  1.7068
  195ccc    H27 8418   8.431   3.126   0.432  0.9387  1.7144  0.4797
  195ccc     O9 8419   8.280   3.097   0.300 -0.1295 -0.3698  0.2418
  195ccc    H28 8420   8.328   3.014   0.283 -1.9482 -1.2424 -0.9513
  195ccc     N3 8421   8.045   3.278   0.416  0.6241 -0.0212  0.1766
  195ccc    C17 8422   8.132   3.725  -0.176  0.0951 -0.1525 -0.3735
  195ccc    C18 8423   8.073   3.730  -0.027 -0.0929  0.0032  0.2671
  195ccc    H29 8424   8.088   3.806  -0.235 -0.0761  0.1269  0.1333
  195ccc    C19 8425   7.921   3.683  -0.035  0.0451  0.9244  0.1460
  195ccc    C20 8426   7.913   3.545  -0.106 -0.8656  0.2905 -0.1880
  195ccc    C21 8427   7.974   3.553  -0.248  0.0539 -0.1431 -0.2274
  195ccc    H30 8428   7.969   3.471  -0.046 -2.0179  1.5548  2.6380
  195ccc    H31 8429   7.858   3.754  -0.089 -1.1293 -0.4371 -0.3302
  195ccc    H32 8430   7.913   3.619  -0.310 -1.5798  0.3056  1.7445
  195ccc    O10 8431   7.971   3.421  -0.299 -0.2019 -0.0254 -0.6005
  195ccc    O11 8432   7.872   3.665   0.099  0.1234 -0.1944  0.0727
  195ccc    C22 8433   8.289   3.744  -0.175 -0.2521 -0.0752 -0.0567
  195ccc    H33 8434   7.922   3.595   0.143  1.1855  0.6822  0.3038
  195ccc    H34 8435   7.711   3.583  -0.156  2.7242  0.6097 -1.1596
  195ccc    H35 8436   8.330   3.663  -0.113  1.4026 -0.0233 -0.9947
  195ccc    H36 8437   8.325   3.833  -0.123  1.5617 -0.7549 -0.0800
  195ccc    O12 8438   8.345   3.735  -0.307  0.3245 -0.1419 -0.3534
  195ccc    H37 8439   8.273   3.755  -0.369  0.1843 -0.6038 -0.3489
  195ccc    O13 8440   8.114   3.595  -0.239  0.2697 -0.0083 -0.3335
  195ccc    H38 8441   8.038   3.430  -0.369 -1.2858  2.2361 -1.4698
  195ccc    H39 8442   8.122   3.659   0.040  1.0712  0.9675  0.4764
  195ccc     O5 8443   8.069   3.871   0.005 -0.0983 -0.1471  0.2115
  195ccc    H40 8444   7.973   3.884   0.018 -0.3741 -1.2117 -0.6376
  195ccc     N4 8445   7.769   3.509  -0.115  0.4327 -0.6683  0.0135
  195ccc    H41 8446   7.567   3.303   0.088  4.1964  3.2785 -4.4301
  196ccc     N1 8447   7.378   3.145  -0.523 -0.1393 -0.1020 -0.3864
  196ccc     H4 8448   7.336   3.099  -0.603  0.5080  0.0844 -0.8367
  196ccc     C3 8449   7.447   3.275  -0.541 -0.0360  0.2146 -0.2285
  196ccc     H5 8450   7.527   3.287  -0.467 -0.2208 -1.4350  0.2962
  196ccc     C4 8451   7.357   3.400  -0.551  0.0509  0.2028  0.5804
  196ccc     H6 8452   7.497   3.261  -0.637 -1.7445 -1.0425 -0.9933
  196ccc     H7 8453   7.321   3.396  -0.654  2.6912  0.2781 -0.4390
  196ccc     H8 8454   7.423   3.487  -0.536  1.1186 -0.8873  2.6056
  196ccc     N2 8455   7.230   3.410  -0.467 -0.0053 -0.0542  0.0188
  196ccc     C5 8456   7.135   3.513  -0.515 -0.1465  0.9946 -0.7517
  196ccc     C6 8457   7.261   3.439  -0.321  0.1423 -0.3140  0.1315
  196ccc     H9 8458   7.165   3.445  -0.267  0.5233 -1.2940  0.9571
  196ccc     C7 8459   7.333   3.575  -0.288 -0.1482  0.2800  0.0065
  196ccc    H10 8460   7.323   3.359  -0.278  2.0222  2.0124  2.0368
  196ccc    H11 8461   7.284   3.665  -0.327 -0.6696 -0.4132 -0.9882
  196ccc    H12 8462   7.429   3.585  -0.340 -1.2038  0.4169 -2.0402
  196ccc     C8 8463   7.345   3.607  -0.137 -0.7950 -0.2177  0.4591
  196ccc     O2 8464   7.293   3.533  -0.052 -0.2572  0.0434  0.6382
  196ccc    H13 8465   7.165   3.618  -0.501 -1.1923  1.1328  0.7316
  196ccc    H14 8466   7.050   3.512  -0.445  1.0287  0.6474  0.7453
  196ccc     C9 8467   7.077   3.494  -0.654 -0.0557 -0.2831  0.3868
  196ccc    H15 8468   7.042   3.391  -0.666 -1.7374  0.4059 -1.0211
  196ccc    H16 8469   7.154   3.514  -0.729 -0.8100 -0.0642 -0.3392
  196ccc    C10 8470   6.962   3.591  -0.680 -0.0760  0.0623  0.4402
  196ccc     O4 8471   6.937   3.682  -0.600 -0.1517  0.3363 -0.0572
  196ccc    C11 8472   7.611   3.850   0.257 -0.0200  0.8121 -0.2031
  196ccc    C12 8473   7.506   3.945   0.199  0.1970  0.2778 -0.4426
  196ccc    H17 8474   7.710   3.853   0.211  0.5242 -1.7699  0.6182
  196ccc    C13 8475   7.464   3.905   0.054 -0.4146 -0.2076  0.6271
  196ccc    C14 8476   7.424   3.757   0.042 -0.2494  0.2273  0.0871
  196ccc    C15 8477   7.533   3.671   0.101  0.2006  0.9886 -0.0892
  196ccc    H18 8478   7.332   3.738   0.099 -0.9678 -1.3929 -1.5164
  196ccc    H19 8479   7.554   3.913  -0.008 -1.2028  0.2348 -0.5135
  196ccc    H20 8480   7.627   3.682   0.045  1.1914  1.4374  1.5910
  196ccc     O1 8481   7.510   3.532   0.105 -0.4433  0.2080 -0.2687
  196ccc     O6 8482   7.361   3.991   0.008 -0.2726  0.2288  0.7149
  196ccc    C16 8483   7.637   3.866   0.407 -0.1245  0.3122  0.2278
  196ccc    H21 8484   7.307   4.017   0.085 -1.0955  0.6051  0.0127
  196ccc    H22 8485   7.454   3.777  -0.166  2.6596 -2.1133 -0.5423
  196ccc    H23 8486   7.670   3.971   0.411  2.1837 -0.2924 -1.0760
  196ccc    H24 8487   7.724   3.802   0.426 -0.7203 -0.8181 -0.7353
  196ccc     O7 8488   7.532   3.830   0.496  0.3223 -0.2108  0.2541
  196ccc    H25 8489   7.485   3.914   0.509  1.7850  0.8969 -1.1844
  196ccc     O8 8490   7.560   3.712   0.236 -0.4653  0.7750  0.1863
  196ccc    H26 8491   7.430   3.533   0.051 -0.3074  0.7573 -0.4720
  196ccc    H27 8492   7.415   3.941   0.260 -1.3141  2.7552 -2.3595
  196ccc     O9 8493   7.562   4.074   0.210 -0.0087 -0.7963  0.1687
  196ccc    H28 8494   7.501   4.132   0.161  0.3845  1.8642  2.5173
  196ccc     N3 8495   7.412   3.716  -0.097 -0.1953 -0.0620 -0.3093
  196ccc    C17 8496   6.488   3.762  -0.776  0.7420 -0.2583 -0.0245
  196ccc    C18 8497   6.601   3.840  -0.849 -0.0844  0.2479  0.0496
  196ccc    H29 8498   6.486   3.807  -0.676  0.6428  0.2216 -0.2397
  196ccc    C19 8499   6.735   3.782  -0.807 -0.3367 -0.0082 -1.0134
  196ccc    C20 8500   6.749   3.628  -0.806 -0.3414  0.0553  0.5067
  196ccc    C21 8501   6.643   3.581  -0.707 -0.0282 -0.4583  0.2200
  196ccc    H30 8502   6.714   3.596  -0.905  0.9972  1.7898 -0.5720
  196ccc    H31 8503   6.761   3.830  -0.712  0.6696 -0.2766 -1.1429
  196ccc    H32 8504   6.659   3.627  -0.609 -2.0297  0.2426  0.2636
  196ccc    O10 8505   6.639   3.449  -0.700 -0.1508 -0.1421  0.1077
  196ccc    O11 8506   6.825   3.832  -0.906  0.3360 -0.1066 -0.7009
  196ccc    C22 8507   6.350   3.767  -0.836  0.2485  0.5345  0.3089
  196ccc    H33 8508   6.910   3.784  -0.902  1.6307  1.9988 -0.9289
  196ccc    H34 8509   6.891   3.492  -0.853  1.1757 -0.2697  0.2267
  196ccc    H35 8510   6.317   3.868  -0.865  0.5729  0.0101 -2.0673
  196ccc    H36 8511   6.281   3.723  -0.763 -0.3371  0.8420 -0.0448
  196ccc    O12 8512   6.338   3.682  -0.954  0.0231  0.2845 -0.5676
  196ccc    H37 8513   6.396   3.604  -0.948  1.1343  1.1625  0.8189
  196ccc    O13 8514   6.516   3.622  -0.757 -0.0154  0.1173  0.2439
  196ccc    H38 8515   6.583   3.429  -0.623 -0.6304  2.4485  0.5294
  196ccc    H39 8516   6.591   3.824  -0.957  0.7325 -2.8736  0.3260
  196ccc     O5 8517   6.593   3.975  -0.809 -0.5057  0.2146  0.4387
  196ccc    H40 8518   6.530   4.028  -0.860  0.1026 -0.6829 -1.3603
  196ccc     N4 8519   6.885   3.571  -0.790 -0.2624 -0.3779  0.2573
  196ccc    H41 8520   7.181   3.321  -0.479  0.4062 -0.0271 -2.3622
  197ccc     N1 8521   7.908   2.860  -0.237  0.0535 -0.3964  0.2445
  197ccc     H4 8522   7.955   2.772  -0.255  1.8704  0.4035  0.8434
  197ccc     C3 8523   7.987   2.978  -0.244  0.2567 -0.1691 -0.0168
  197ccc     H5 8524   7.964   3.019  -0.343 -2.5800 -0.0362  0.5872
  197ccc     C4 8525   8.139   2.954  -0.224  1.0788 -0.1738 -0.2411
  197ccc     H6 8526   7.961   3.056  -0.171 -0.7170  1.1194 -1.6520
  197ccc     H7 8527   8.170   2.872  -0.291  1.7383  1.0581 -1.4947
  197ccc     H8 8528   8.162   2.930  -0.119  2.2816  0.0963 -0.4318
  197ccc     N2 8529   8.233   3.076  -0.256  0.0732 -0.7363 -1.0765
  197ccc     C5 8530   8.382   3.049  -0.251 -0.4551  0.4982 -0.3855
  197ccc     C6 8531   8.200   3.189  -0.158 -0.4531 -0.5378  0.2027
  197ccc     H9 8532   8.265   3.271  -0.191 -1.8243  0.5089  0.0539
  197ccc     C7 8533   8.216   3.166  -0.006 -0.2177 -0.3851 -0.5197
  197ccc    H10 8534   8.102   3.231  -0.182 -0.2808  0.2532  0.8421
  197ccc    H11 8535   8.307   3.109   0.011  0.2537 -0.0423 -1.7841
  197ccc    H12 8536   8.133   3.101   0.025  1.5255 -2.4665 -0.0153
  197ccc     C8 8537   8.216   3.294   0.072 -0.9457  0.0066 -0.0394
  197ccc     O2 8538   8.122   3.349   0.129 -0.0015  0.4057 -0.6964
  197ccc    H13 8539   8.399   2.953  -0.303  1.6803  1.5255 -1.7676
  197ccc    H14 8540   8.412   3.028  -0.148 -0.2144 -0.5333 -0.6528
  197ccc     C9 8541   8.494   3.143  -0.305  0.0225 -0.4584  0.0085
  197ccc    H15 8542   8.461   3.199  -0.393 -1.3165 -0.7715  0.2904
  197ccc    H16 8543   8.573   3.079  -0.346 -1.9943 -2.5448 -0.8024
  197ccc    C10 8544   8.561   3.232  -0.198 -0.2002  0.9789 -0.0841
  197ccc     O4 8545   8.531   3.239  -0.082  0.4610 -0.1626  0.4616
  197ccc    C11 8546   8.402   3.435   0.610 -1.5755 -0.1856  0.1090
  197ccc    C12 8547   8.537   3.319   0.507  0.1826 -0.6584 -0.1794
  197ccc    H17 8548   8.344   3.372   0.679 -1.2674 -2.8692 -1.9231
  197ccc    C13 8549   8.514   3.306   0.306 -0.8938  0.3825  0.0530
  197ccc    C14 8550   8.383   3.420   0.209 -0.9983  0.4503  0.1473
  197ccc    C15 8551   8.251   3.535   0.318  0.6349  0.1838 -0.5614
  197ccc    H18 8552   8.448   3.493   0.158  1.9230 -0.4888  2.2758
  197ccc    H19 8553   8.510   3.201   0.274 -2.4863  0.2089  0.7503
  197ccc    H20 8554   8.149   3.499   0.300  0.4981 -0.2945  1.0936
  197ccc     O1 8555   8.252   3.666   0.269 -0.2365 -0.2082  0.0533
  197ccc     O6 8556   8.636   3.353   0.245 -0.7579  0.0973  0.1591
  197ccc    C16 8557   8.485   3.531   0.695  0.2149 -0.3090  0.0374
  197ccc    H21 8558   8.654   3.440   0.283  0.5919 -0.1301  0.0824
  197ccc    H22 8559   8.417   3.312   0.041  1.1434  0.8854  0.8950
  197ccc    H23 8560   8.568   3.581   0.643 -0.6076  0.6282 -0.4186
  197ccc    H24 8561   8.535   3.474   0.774 -0.9958 -0.2457  0.8657
  197ccc     O7 8562   8.403   3.634   0.759  0.3221  0.3525  0.2390
  197ccc    H25 8563   8.465   3.679   0.819  1.6745 -1.3274  0.1854
  197ccc     O8 8564   8.278   3.544   0.505  0.4977  0.6703  0.0754
  197ccc    H26 8565   8.177   3.714   0.307 -0.3764 -0.1094 -0.3432
  197ccc    H27 8566   8.629   3.379   0.512  0.9893 -1.8652 -0.0644
  197ccc     O9 8567   8.595   3.198   0.568  0.0650  0.1919  0.3848
  197ccc    H28 8568   8.685   3.190   0.531  0.2185 -0.5497  0.9104
  197ccc     N3 8569   8.335   3.349   0.088  0.4743  0.6348 -0.0452
  197ccc    C17 8570   8.879   3.528   0.054  0.5834 -0.5567  0.3778
  197ccc    C18 8571   8.961   3.476  -0.070 -0.7800  0.4278  1.0242
  197ccc    H29 8572   8.859   3.441   0.119  0.5670 -0.2530  0.7827
  197ccc    C19 8573   8.878   3.375  -0.149 -0.2821  0.1814 -0.1542
  197ccc    C20 8574   8.730   3.422  -0.179 -0.2329  0.1262 -1.0727
  197ccc    C21 8575   8.668   3.484  -0.051  0.0886 -0.5211 -0.4212
  197ccc    H30 8576   8.740   3.500  -0.255  1.7316  1.2334  0.2337
  197ccc    H31 8577   8.884   3.282  -0.090  1.0325 -1.3861 -2.6051
  197ccc    H32 8578   8.646   3.405   0.021 -3.5647  0.5339 -0.1352
  197ccc    O10 8579   8.545   3.551  -0.074 -0.5952  0.2947  0.3128
  197ccc    O11 8580   8.945   3.346  -0.274  0.0942 -0.3394  0.0197
  197ccc    C22 8581   8.946   3.624   0.149 -0.3913 -0.2901  0.7402
  197ccc    H33 8582   9.033   3.314  -0.245 -0.4578 -1.2393  0.7505
  197ccc    H34 8583   8.714   3.278  -0.328  1.9110  0.4561  0.3928
  197ccc    H35 8584   9.030   3.576   0.200 -0.1117  1.7222  2.3118
  197ccc    H36 8585   8.882   3.656   0.232  0.1173  3.3824 -0.1253
  197ccc    O12 8586   8.987   3.739   0.076  0.8762 -0.4865 -0.4329
  197ccc    H37 8587   9.083   3.731   0.086  0.8880  0.3845  0.2363
  197ccc    O13 8588   8.755   3.580   0.011  0.5082  0.0823  0.4131
  197ccc    H38 8589   8.541   3.605   0.008 -0.9812  0.3537  0.2540
  197ccc    H39 8590   8.977   3.570  -0.124 -1.7687 -0.4658 -0.9043
  197ccc     O5 8591   9.085   3.405  -0.031  0.1764 -0.6263 -0.4083
  197ccc    H40 8592   9.158   3.416  -0.093  0.8024 -1.7601  0.1067
  197ccc     N4 8593   8.663   3.304  -0.244  0.4580 -0.8759 -0.0171
  197ccc    H41 8594   8.213   3.114  -0.350  1.3782 -0.0081 -1.0893
  198ccc     N1 8595   6.656   2.322   1.849 -0.4641 -0.1054  0.8250
  198ccc     H4 8596   6.594   2.341   1.927 -0.0331  1.8251  0.7416
  198ccc     C3 8597   6.797   2.369   1.841  0.8069 -0.6270 -0.4396
  198ccc     H5 8598   6.859   2.287   1.803  1.5956 -1.2187  1.9475
  198ccc     C4 8599   6.851   2.396   1.984 -0.3042  0.6206  0.5256
  198ccc     H6 8600   6.802   2.462   1.782  0.1454 -0.6444 -0.5271
  198ccc     H7 8601   6.851   2.303   2.042 -0.3991  0.0836 -0.3231
  198ccc     H8 8602   6.784   2.465   2.037 -0.7815  1.9352 -1.6537
  198ccc     N2 8603   6.992   2.455   2.001  0.4572  0.1577  0.1407
  198ccc     C5 8604   7.041   2.425   2.144  0.5740 -0.0589 -0.4279
  198ccc     C6 8605   6.985   2.605   1.980 -0.0385  0.6195 -0.4438
  198ccc     H9 8606   6.960   2.616   1.874 -0.8021  0.7425 -0.2573
  198ccc     C7 8607   7.114   2.683   2.018 -0.9462 -0.2943 -0.1726
  198ccc    H10 8608   6.899   2.638   2.040  0.2539  1.0561 -0.2562
  198ccc    H11 8609   7.116   2.698   2.127  1.3322 -0.4420 -0.1577
  198ccc    H12 8610   7.201   2.622   1.990 -1.2173 -1.1842  0.8403
  198ccc     C8 8611   7.125   2.823   1.959  0.3017 -0.2713  0.3575
  198ccc     O2 8612   7.070   2.856   1.854 -0.0064 -0.1931 -0.0581
  198ccc    H13 8613   7.142   2.468   2.150  0.1308  0.8266  1.2424
  198ccc    H14 8614   7.059   2.317   2.151  2.8279  0.0692 -2.5678
  198ccc     C9 8615   6.958   2.464   2.265 -0.1016 -0.4345  0.2868
  198ccc    H15 8616   6.855   2.424   2.267 -0.1899 -0.2288  2.7379
  198ccc    H16 8617   6.951   2.574   2.262  1.4488 -0.3281 -2.4978
  198ccc    C10 8618   7.028   2.399   2.387  0.4876 -0.2816  0.4688
  198ccc     O4 8619   7.101   2.305   2.380  0.0077  0.3250 -0.0657
  198ccc    C11 8620   7.437   3.267   1.938  0.5879 -0.2530 -0.4170
  198ccc    C12 8621   7.427   3.179   1.813  0.6086 -0.2867  0.0295
  198ccc    H17 8622   7.507   3.211   2.002 -0.0811 -0.8244 -0.1779
  198ccc    C13 8623   7.378   3.039   1.870 -0.5705  0.0237  0.0712
  198ccc    C14 8624   7.246   3.047   1.953 -0.7172  0.1896  0.2652
  198ccc    C15 8625   7.256   3.163   2.057  0.1665 -0.3116 -0.1374
  198ccc    H18 8626   7.174   3.084   1.879  0.5522  1.4343 -0.4068
  198ccc    H19 8627   7.450   3.002   1.945 -0.0419  0.7429 -0.0738
  198ccc    H20 8628   7.318   3.129   2.141  0.8032  1.1450  0.0000
  198ccc     O1 8629   7.117   3.187   2.101 -0.5898 -0.2285 -0.1755
  198ccc     O6 8630   7.353   2.946   1.760  0.6660  0.0719  0.2050
  198ccc    C16 8631   7.510   3.397   1.887  0.3172  0.2176 -0.0799
  198ccc    H21 8632   7.340   2.866   1.814 -0.2645  1.8813  2.8561
  198ccc    H22 8633   7.251   2.901   2.109 -0.3783 -1.9971 -0.0760
  198ccc    H23 8634   7.447   3.428   1.803  0.1466  1.5850  0.5252
  198ccc    H24 8635   7.602   3.374   1.831 -1.0603 -1.4958 -1.7629
  198ccc     O7 8636   7.526   3.502   1.989  0.6232  0.0123  0.2648
  198ccc    H25 8637   7.526   3.587   1.943 -1.2879  1.6758  3.0570
  198ccc     O8 8638   7.306   3.286   1.997  0.4785  0.3912 -0.2824
  198ccc    H26 8639   7.132   3.249   2.174 -1.5145 -0.6560  0.3907
  198ccc    H27 8640   7.353   3.214   1.741  0.2247  0.5329  0.7993
  198ccc     O9 8641   7.558   3.160   1.747 -0.0880 -0.5445  0.3074
  198ccc    H28 8642   7.560   3.072   1.708  2.5565 -2.2160  3.6799
  198ccc     N3 8643   7.206   2.917   2.018  0.1414  0.8675  0.0753
  198ccc    C17 8644   6.623   2.460   2.880  0.4837  0.1930 -0.2819
  198ccc    C18 8645   6.749   2.586   2.837  1.0331 -0.0131  0.4731
  198ccc    H29 8646   6.654   2.440   2.983  1.1349  1.8937 -0.1061
  198ccc    C19 8647   6.859   2.588   2.689  0.1390  0.5041 -0.0224
  198ccc    C20 8648   6.865   2.461   2.566  0.0856 -0.1915 -0.3829
  198ccc    C21 8649   6.766   2.309   2.574  0.0494 -0.8162 -1.2004
  198ccc    H30 8650   6.810   2.513   2.487  1.2915  1.6529 -0.0570
  198ccc    H31 8651   6.962   2.613   2.718  0.1809  2.0339 -1.3717
  198ccc    H32 8652   6.842   2.231   2.586 -0.4532 -1.1843 -0.2644
  198ccc    O10 8653   6.725   2.292   2.435 -0.3326 -0.0117  0.4908
  198ccc    O11 8654   6.835   2.709   2.621  0.2111 -0.5760  0.2428
  198ccc    C22 8655   6.472   2.509   2.885 -0.4275 -0.0451  0.3692
  198ccc    H33 8656   6.740   2.705   2.599  0.0047  1.5989  0.4994
  198ccc    H34 8657   7.056   2.399   2.581  0.9267 -0.1931  0.3177
  198ccc    H35 8658   6.438   2.530   2.783  0.2294 -2.6592 -0.4480
  198ccc    H36 8659   6.459   2.603   2.940 -0.6472  0.7375 -0.9755
  198ccc    O12 8660   6.388   2.410   2.942 -0.1191  0.2200 -0.2606
  198ccc    H37 8661   6.305   2.415   2.890 -0.2565  1.2184  0.0170
  198ccc    O13 8662   6.618   2.320   2.778  0.2689  0.4985  0.2438
  198ccc    H38 8663   6.647   2.349   2.423 -0.5782 -0.6910 -1.5407
  198ccc    H39 8664   6.683   2.673   2.827 -1.2794 -1.5247  1.5483
  198ccc     O5 8665   6.834   2.616   2.946 -0.4020  0.2147 -0.2994
  198ccc    H40 8666   6.870   2.705   2.932  1.2981 -0.5253 -0.8420
  198ccc     N4 8667   7.002   2.451   2.511  0.7646 -0.2724  0.3830
  198ccc    H41 8668   7.051   2.401   1.936 -0.3444 -0.8550  0.2180
  199ccc     N1 8669   6.071   1.981   2.061 -0.5029  0.5420 -0.3033
  199ccc     H4 8670   6.042   1.892   2.022 -0.2533  0.6984 -0.8542
  199ccc     C3 8671   6.123   1.999   2.198 -0.3484 -0.3187  0.4235
  199ccc     H5 8672   6.233   1.996   2.200 -0.2831  1.2161  0.8100
  199ccc     C4 8673   6.067   1.888   2.282  0.2859 -0.5528  0.0909
  199ccc     H6 8674   6.101   2.100   2.235 -0.7268  0.4261 -1.7094
  199ccc     H7 8675   6.098   1.793   2.237  0.9025 -0.3360  0.0484
  199ccc     H8 8676   5.958   1.895   2.295  0.3805  0.3239  0.4814
  199ccc     N2 8677   6.135   1.889   2.425 -0.1268 -0.3628 -0.0683
  199ccc     C5 8678   6.115   1.755   2.486 -0.1933  0.2213 -0.0100
  199ccc     C6 8679   6.079   2.002   2.516 -0.2773  0.4014  1.2463
  199ccc     H9 8680   6.049   2.081   2.446  1.9393  0.0251 -0.2370
  199ccc     C7 8681   6.178   2.067   2.618 -0.3163 -0.0659  0.0953
  199ccc    H10 8682   5.989   1.967   2.567 -0.6272  0.6243  0.7789
  199ccc    H11 8683   6.191   2.010   2.710 -0.6555  0.3391  0.3946
  199ccc    H12 8684   6.133   2.162   2.648 -0.3416  0.2905 -1.0230
  199ccc     C8 8685   6.308   2.111   2.552 -0.1868 -0.0671 -0.2785
  199ccc     O2 8686   6.329   2.100   2.436 -0.4130  0.2677 -0.7530
  199ccc    H13 8687   6.172   1.747   2.580 -3.1534 -1.2675  1.7930
  199ccc    H14 8688   6.153   1.686   2.410 -0.7222  1.6379 -1.6514
  199ccc     C9 8689   5.967   1.700   2.522 -0.5530  0.5533  0.3873
  199ccc    H15 8690   5.918   1.692   2.425  0.4393  1.6389 -0.2192
  199ccc    H16 8691   5.918   1.770   2.591 -0.5527  1.9162 -0.9411
  199ccc    C10 8692   5.972   1.553   2.570 -0.3060  0.3050  0.0815
  199ccc     O4 8693   6.072   1.487   2.567 -0.0262 -0.2896 -0.2020
  199ccc    C11 8694   6.830   2.355   2.790 -0.0737 -0.5954 -0.1499
  199ccc    C12 8695   6.802   2.178   2.786 -0.1885  0.6607 -0.6438
  199ccc    H17 8696   6.816   2.363   2.898 -2.4782  1.4257 -0.5091
  199ccc    C13 8697   6.661   2.111   2.693  0.6259 -0.4551  0.8124
  199ccc    C14 8698   6.536   2.196   2.590  0.4680 -0.4532  0.3343
  199ccc    C15 8699   6.525   2.383   2.579 -0.4502 -0.1186  0.1184
  199ccc    H18 8700   6.551   2.154   2.490 -1.1804  3.5013 -1.7806
  199ccc    H19 8701   6.596   2.080   2.776  0.3699  0.4858  0.9749
  199ccc    H20 8702   6.432   2.419   2.624 -1.1363 -0.8365 -0.6879
  199ccc     O1 8703   6.512   2.422   2.444 -0.3317  0.2017 -0.5316
  199ccc     O6 8704   6.704   1.994   2.624 -0.0729 -0.2860  0.3131
  199ccc    C16 8705   6.982   2.376   2.821  0.1284 -0.3411  0.4182
  199ccc    H21 8706   6.643   1.919   2.633 -0.4368 -0.1909 -1.1296
  199ccc    H22 8707   6.407   2.158   2.734  0.0968 -0.2752  0.2233
  199ccc    H23 8708   7.002   2.319   2.913 -0.4166 -0.1572  0.6546
  199ccc    H24 8709   7.002   2.479   2.853 -2.1516  0.4060 -0.4042
  199ccc     O7 8710   7.071   2.316   2.727 -0.2460  0.2222 -0.6392
  199ccc    H25 8711   7.132   2.254   2.771  1.3026  1.9428 -0.2246
  199ccc     O8 8712   6.654   2.479   2.651 -0.3204  0.0493  0.1235
  199ccc    H26 8713   6.489   2.517   2.447  3.2254  1.2468 -1.0989
  199ccc    H27 8714   6.896   2.144   2.741 -0.6819  0.5372 -1.6234
  199ccc     O9 8715   6.799   2.132   2.922  0.2582  0.0324  0.0809
  199ccc    H28 8716   6.776   2.037   2.927  3.7647 -0.9289  1.1568
  199ccc     N3 8717   6.408   2.146   2.633 -0.6282  0.4310  0.1174
  199ccc    C17 8718   5.435   1.508   2.541  0.4377  0.2656 -0.0869
  199ccc    C18 8719   5.498   1.577   2.667  0.1670  0.3187 -0.9936
  199ccc    H29 8720   5.404   1.406   2.568 -0.5203 -0.1104 -2.3474
  199ccc    C19 8721   5.652   1.544   2.698  0.8501  0.0317 -0.0698
  199ccc    C20 8722   5.723   1.547   2.562  0.2828  0.4658  0.1387
  199ccc    C21 8723   5.654   1.457   2.452 -0.1151  0.0173 -0.1027
  199ccc    H30 8724   5.727   1.652   2.531  2.4044  0.4873  0.3267
  199ccc    H31 8725   5.659   1.444   2.743  0.5400 -0.4267 -1.0207
  199ccc    H32 8726   5.644   1.353   2.485  0.6102  0.1839  0.6889
  199ccc    O10 8727   5.736   1.460   2.333  0.1933 -0.2956 -0.0317
  199ccc    O11 8728   5.716   1.637   2.791  0.2080  0.1975  0.1219
  199ccc    C22 8729   5.305   1.581   2.492  0.6492  0.0399  0.1537
  199ccc    H33 8730   5.680   1.621   2.880 -0.5782  3.0490  0.4001
  199ccc    H34 8731   5.854   1.393   2.604  1.0020 -0.1723  1.5753
  199ccc    H35 8732   5.226   1.569   2.567  1.1964 -2.2728  0.4245
  199ccc    H36 8733   5.268   1.527   2.404 -0.6363  1.7924 -0.4357
  199ccc    O12 8734   5.330   1.715   2.470 -0.2070  0.0873  0.1232
  199ccc    H37 8735   5.244   1.746   2.437  0.5983  0.9795 -1.2320
  199ccc    O13 8736   5.521   1.499   2.424 -0.4480  0.1387 -0.9089
  199ccc    H38 8737   5.739   1.551   2.299  2.8488  0.1844  1.2408
  199ccc    H39 8738   5.499   1.686   2.660  1.4599  0.4542  0.5471
  199ccc     O5 8739   5.421   1.548   2.781  0.0905 -0.3680  0.5758
  199ccc    H40 8740   5.349   1.613   2.777 -1.3986 -1.9090  1.0555
  199ccc     N4 8741   5.856   1.494   2.591  0.4870 -0.3847 -0.3585
  199ccc    H41 8742   6.235   1.909   2.411 -0.4100 -0.5139 -2.6650
  200ccc     N1 8743   6.943   1.894   1.781 -0.1514 -0.6399 -0.6839
  200ccc     H4 8744   6.950   1.795   1.763 -0.7182 -1.1889  1.7408
  200ccc     C3 8745   7.042   1.992   1.736 -0.2472 -0.2489 -0.0704
  200ccc     H5 8746   7.026   2.090   1.782  1.2073  0.4550 -0.9696
  200ccc     C4 8747   7.041   2.003   1.584  0.0292  0.1229 -0.3007
  200ccc     H6 8748   7.140   1.956   1.770  0.3928  1.4054 -0.0412
  200ccc     H7 8749   6.936   1.992   1.554 -0.2662  1.3799  0.1901
  200ccc     H8 8750   7.098   1.919   1.544  2.1867  0.7052  1.3418
  200ccc     N2 8751   7.101   2.125   1.517  1.1897  0.6185 -0.0035
  200ccc     C5 8752   7.230   2.169   1.574  0.1222  0.0578  0.0195
  200ccc     C6 8753   7.002   2.240   1.518  0.6115 -0.0216  0.6050
  200ccc     H9 8754   6.960   2.265   1.615 -0.4645  2.6257 -0.4566
  200ccc     C7 8755   6.873   2.233   1.438  0.3603 -0.2259 -0.0547
  200ccc    H10 8756   7.057   2.331   1.491  0.9388  0.2402  2.0704
  200ccc    H11 8757   6.812   2.145   1.466  3.3430 -2.3743  0.1735
  200ccc    H12 8758   6.889   2.224   1.330 -1.7687  2.1332 -0.6524
  200ccc     C8 8759   6.788   2.358   1.459 -0.5729  0.1342  0.6025
  200ccc     O2 8760   6.805   2.451   1.533 -0.6294  0.4644 -0.4021
  200ccc    H13 8761   7.208   2.199   1.678  1.2713 -0.5306  0.4598
  200ccc    H14 8762   7.256   2.255   1.512  0.7421  0.3594  0.6864
  200ccc     C9 8763   7.339   2.062   1.573  0.8383 -0.0316 -0.1707
  200ccc    H15 8764   7.349   2.012   1.475 -0.8814  0.0124 -0.3953
  200ccc    H16 8765   7.319   1.986   1.650 -1.6934  1.6160  0.9147
  200ccc    C10 8766   7.468   2.124   1.610  0.4476  0.4800  0.0514
  200ccc     O4 8767   7.479   2.209   1.694 -0.1821 -0.0476  0.2088
  200ccc    C11 8768   6.415   2.687   1.238  0.0321 -0.2517  0.1911
  200ccc    C12 8769   6.342   2.554   1.281 -0.1264 -0.0157 -0.7052
  200ccc    H17 8770   6.439   2.670   1.132 -0.7415  0.2209 -0.0747
  200ccc    C13 8771   6.441   2.433   1.298 -0.4272 -0.2771 -0.4560
  200ccc    C14 8772   6.581   2.477   1.365  0.3315  0.4344 -0.5206
  200ccc    C15 8773   6.641   2.593   1.278  0.3974  0.2092 -0.3186
  200ccc    H18 8774   6.554   2.520   1.462  2.4012 -2.5028  1.5559
  200ccc    H19 8775   6.465   2.403   1.196 -0.5033 -2.5713  0.1385
  200ccc    H20 8776   6.638   2.557   1.174 -0.4276 -1.2713  0.1840
  200ccc     O1 8777   6.766   2.639   1.323 -0.4283 -0.1282  0.4118
  200ccc     O6 8778   6.378   2.328   1.369  0.2394 -0.2495  0.0954
  200ccc    C16 8779   6.339   2.822   1.274 -0.3992  0.2350  0.2521
  200ccc    H21 8780   6.436   2.251   1.380  0.3700 -0.2342 -0.4501
  200ccc    H22 8781   6.663   2.286   1.310  0.1748 -1.8829  1.4020
  200ccc    H23 8782   6.327   2.823   1.383  0.9260 -1.8351  0.4724
  200ccc    H24 8783   6.237   2.807   1.235 -0.8904 -0.2665  1.6554
  200ccc     O7 8784   6.400   2.938   1.215  0.4169  0.3884  0.0184
  200ccc    H25 8785   6.376   3.016   1.268 -1.0943  1.4078 -1.9830
  200ccc     O8 8786   6.548   2.696   1.296 -0.1620 -0.6078 -0.2614
  200ccc    H26 8787   6.820   2.562   1.298 -3.8942 -2.3679 -0.8513
  200ccc    H27 8788   6.287   2.572   1.374  1.4009  2.7466 -0.2439
  200ccc     O9 8789   6.244   2.520   1.172  0.1816  0.0539 -0.2707
  200ccc    H28 8790   6.289   2.466   1.105 -3.7582 -2.7248 -0.9775
  200ccc     N3 8791   6.681   2.363   1.374  0.0491 -0.4386 -0.2206
  200ccc    C17 8792   8.004   2.077   1.625  0.9528  0.4175  0.4662
  200ccc    C18 8793   7.950   2.173   1.515  0.0766  1.0897 -0.2644
  200ccc    H29 8794   8.032   1.980   1.582 -2.2339  0.3469 -1.8185
  200ccc    C19 8795   7.813   2.122   1.472  0.5019  0.5823 -0.5726
  200ccc    C20 8796   7.719   2.107   1.595  0.0487  0.1664 -0.0026
  200ccc    C21 8797   7.786   2.008   1.692 -0.2361 -0.0656 -0.2408
  200ccc    H30 8798   7.715   2.206   1.642 -2.4390  0.4601 -0.7249
  200ccc    H31 8799   7.842   2.021   1.440  3.1103  1.1453 -0.1626
  200ccc    H32 8800   7.786   1.902   1.663 -0.9567 -1.0008  2.7424
  200ccc    O10 8801   7.720   2.022   1.819  0.3057  0.1984 -0.3830
  200ccc    O11 8802   7.747   2.194   1.365  0.0497  0.2527 -0.1444
  200ccc    C22 8803   8.136   2.133   1.688 -0.6583 -0.2200 -0.0442
  200ccc    H33 8804   7.682   2.135   1.324  0.7293  0.9405 -2.3585
  200ccc    H34 8805   7.573   2.018   1.474 -0.2160  2.2477 -1.1438
  200ccc    H35 8806   8.216   2.117   1.615 -0.8624 -2.1788  0.1211
  200ccc    H36 8807   8.167   2.071   1.773  1.0772 -2.9849 -2.5144
  200ccc    O12 8808   8.125   2.273   1.728  0.1709 -0.0403  0.0729
  200ccc    H37 8809   8.203   2.294   1.783  0.2071 -1.8834  0.8245
  200ccc    O13 8810   7.916   2.058   1.731 -0.6624 -0.2280 -0.2252
  200ccc    H38 8811   7.747   1.943   1.869 -0.5528  0.7252  0.9483
  200ccc    H39 8812   7.927   2.270   1.561  0.2170  2.4502 -2.8727
  200ccc     O5 8813   8.039   2.195   1.406  0.0670  0.7184 -0.1486
  200ccc    H40 8814   8.060   2.107   1.370  2.5875  0.7256  1.0881
  200ccc     N4 8815   7.578   2.077   1.557  0.0856  0.7138 -0.0301
  200ccc    H41 8816   7.113   2.100   1.418 -2.1230  1.7940 -0.8337
  201ccc     N1 8817   7.122   1.983   2.334  0.5262  0.1390 -0.2413
  201ccc     H4 8818   7.126   1.933   2.422  0.9193  1.0743  0.2834
  201ccc     C3 8819   7.248   2.019   2.257 -0.3136  0.2551  0.5556
  201ccc     H5 8820   7.252   1.972   2.157 -1.4315  2.4333 -0.5667
  201ccc     C4 8821   7.375   1.988   2.334 -0.0669 -0.2701  0.4386
  201ccc     H6 8822   7.237   2.127   2.240 -2.8386 -0.2728 -2.0581
  201ccc     H7 8823   7.441   1.926   2.273  0.9572 -0.3902  1.6418
  201ccc     H8 8824   7.342   1.924   2.417 -2.8370 -1.8908 -1.7133
  201ccc     N2 8825   7.459   2.113   2.391  0.9294 -0.0178 -0.0086
  201ccc     C5 8826   7.585   2.055   2.454  0.0463 -0.1500 -0.2472
  201ccc     C6 8827   7.383   2.193   2.505  0.4343  0.6297  0.2501
  201ccc     H9 8828   7.278   2.175   2.477  1.0833 -1.8793 -0.9263
  201ccc     C7 8829   7.418   2.344   2.519 -0.7362  0.6323  0.3064
  201ccc    H10 8830   7.401   2.148   2.603  0.5659  1.8683  0.8029
  201ccc    H11 8831   7.501   2.358   2.590 -1.4211  1.1682  1.0122
  201ccc    H12 8832   7.339   2.394   2.576 -0.1068  0.9391  0.9239
  201ccc     C8 8833   7.438   2.428   2.392  0.0013  0.4296  1.0479
  201ccc     O2 8834   7.380   2.408   2.285 -0.4807 -0.4534  0.3048
  201ccc    H13 8835   7.631   1.981   2.387  0.0825 -0.1528 -0.2193
  201ccc    H14 8836   7.538   1.990   2.529 -0.8720 -0.6805 -1.2449
  201ccc     C9 8837   7.696   2.134   2.522 -0.6887 -0.6287 -0.2167
  201ccc    H15 8838   7.773   2.075   2.572 -1.1790 -1.3944 -0.3404
  201ccc    H16 8839   7.651   2.199   2.598  1.3342  1.4676 -0.7284
  201ccc    C10 8840   7.772   2.221   2.428  0.4145  0.6601 -0.1702
  201ccc     O4 8841   7.774   2.209   2.306 -0.0937 -0.1091 -0.4731
  201ccc    C11 8842   7.685   2.865   2.178  0.7925 -0.2407 -0.0669
  201ccc    C12 8843   7.773   2.738   2.167  0.7472  0.1474 -0.7782
  201ccc    H17 8844   7.712   2.908   2.275  1.0036 -0.4597 -0.0266
  201ccc    C13 8845   7.733   2.634   2.281  0.1204 -1.0165  0.2038
  201ccc    C14 8846   7.575   2.610   2.284 -0.3809 -0.4596  0.4712
  201ccc    C15 8847   7.501   2.747   2.283 -0.3332  0.0390 -0.1685
  201ccc    H18 8848   7.560   2.555   2.191  0.6912  1.7547 -1.1186
  201ccc    H19 8849   7.762   2.685   2.373 -1.5265 -0.5677  0.4997
  201ccc    H20 8850   7.507   2.795   2.381 -1.6872  0.3560 -0.2203
  201ccc     O1 8851   7.371   2.724   2.245  0.2065 -0.1510  0.1838
  201ccc     O6 8852   7.803   2.508   2.269 -0.3791  0.4424  0.4362
  201ccc    C16 8853   7.711   2.980   2.081 -0.2748  0.2948 -0.3305
  201ccc    H21 8854   7.776   2.477   2.181 -0.7613  5.3574 -1.4699
  201ccc    H22 8855   7.585   2.531   2.487 -0.8916  2.0466  0.6366
  201ccc    H23 8856   7.816   3.011   2.097  0.7185 -1.9699 -1.9738
  201ccc    H24 8857   7.653   3.070   2.104 -0.8874 -0.3771  0.9108
  201ccc     O7 8858   7.709   2.952   1.943  0.4899 -0.3947  0.7163
  201ccc    H25 8859   7.753   3.025   1.895  1.5410 -0.3948  1.6561
  201ccc     O8 8860   7.546   2.831   2.179  0.1224 -0.2084 -0.2188
  201ccc    H26 8861   7.325   2.805   2.272  0.1716 -0.0873 -0.0614
  201ccc    H27 8862   7.749   2.699   2.067  0.1754  0.3166 -0.7143
  201ccc     O9 8863   7.905   2.766   2.181 -0.1696  0.1766 -0.6045
  201ccc    H28 8864   7.945   2.678   2.165 -1.3034 -0.7218  1.2359
  201ccc     N3 8865   7.532   2.522   2.401  0.0038  0.2229  0.2303
  201ccc    C17 8866   8.072   2.511   2.779 -0.1312 -0.0477  0.3615
  201ccc    C18 8867   7.941   2.577   2.736  0.4549  0.2282 -0.3950
  201ccc    H29 8868   8.152   2.524   2.705 -0.5551  2.0135  0.2240
  201ccc    C19 8869   7.867   2.518   2.611 -0.0258  0.0363 -0.5952
  201ccc    C20 8870   7.867   2.359   2.621  0.7035  0.0284  0.3946
  201ccc    C21 8871   8.004   2.307   2.665 -0.5476  0.1946 -0.1352
  201ccc    H30 8872   7.786   2.318   2.682  0.5521  0.2463  0.3394
  201ccc    H31 8873   7.915   2.552   2.519 -1.0372  0.1089 -1.1162
  201ccc    H32 8874   8.073   2.324   2.582  0.6092 -0.4836  0.6581
  201ccc    O10 8875   7.982   2.170   2.701 -0.0172 -0.4520 -0.1953
  201ccc    O11 8876   7.737   2.566   2.609 -0.5732  0.5242  0.3253
  201ccc    C22 8877   8.120   2.551   2.918 -0.2098  0.5494 -0.3901
  201ccc    H33 8878   7.753   2.652   2.652 -0.8176  1.1475 -0.7892
  201ccc    H34 8879   7.878   2.394   2.417  0.2305 -1.7030 -0.3294
  201ccc    H35 8880   8.149   2.657   2.921  0.5714  0.3746 -1.3576
  201ccc    H36 8881   8.210   2.495   2.948 -2.1231 -1.0449  3.0178
  201ccc    O12 8882   8.035   2.528   3.027  0.1002 -0.6961 -0.2425
  201ccc    H37 8883   7.997   2.438   3.016 -0.7467 -0.0795 -3.3026
  201ccc    O13 8884   8.044   2.371   2.783 -0.1854 -0.1595  0.0148
  201ccc    H38 8885   8.061   2.146   2.752 -0.7346 -2.3237  0.0895
  201ccc    H39 8886   7.870   2.572   2.819 -0.2542  0.7236 -0.9699
  201ccc     O5 8887   7.966   2.711   2.696 -0.0161 -0.1738  0.3586
  201ccc    H40 8888   7.951   2.777   2.766  1.4858 -0.0631  0.6099
  201ccc     N4 8889   7.840   2.322   2.479 -0.6821 -0.8836  0.0848
  201ccc    H41 8890   7.490   2.179   2.318  0.1019 -1.1313 -1.4006
  202ccc     N1 8891   8.417   3.083   0.998  0.0384 -0.1558  0.1482
  202ccc     H4 8892   8.471   3.001   1.023 -1.1843 -0.9841  0.1885
  202ccc     C3 8893   8.484   3.222   0.996  0.4412  0.1261 -1.0488
  202ccc     H5 8894   8.485   3.277   0.902  0.4914  2.1303  0.0807
  202ccc     C4 8895   8.630   3.208   1.040  0.4338  0.0488  0.0016
  202ccc     H6 8896   8.439   3.290   1.069  2.0530 -0.8783  0.9833
  202ccc     H7 8897   8.678   3.307   1.038  0.1485  0.1794 -0.4799
  202ccc     H8 8898   8.675   3.145   0.963 -0.2680  0.4754 -0.7795
  202ccc     N2 8899   8.651   3.157   1.185  0.0302 -0.4934  0.0457
  202ccc     C5 8900   8.605   3.266   1.286 -0.0114  0.5478  0.2376
  202ccc     C6 8901   8.796   3.107   1.213 -0.7285  0.4312 -0.4698
  202ccc     H9 8902   8.822   3.109   1.319  1.8439 -0.0242 -1.0366
  202ccc     C7 8903   8.913   3.176   1.133 -0.7051 -0.4077  0.2224
  202ccc    H10 8904   8.794   3.003   1.178  1.1134  0.0489  0.4573
  202ccc    H11 8905   8.916   3.152   1.026  1.0359 -2.6123  0.6736
  202ccc    H12 8906   9.004   3.127   1.171  1.2401  0.8903 -2.4311
  202ccc     C8 8907   8.925   3.328   1.157  0.1955  0.7091 -0.8730
  202ccc     O2 8908   8.932   3.374   1.269 -0.2624 -0.0107 -0.3620
  202ccc    H13 8909   8.496   3.266   1.283 -0.0114 -0.5239 -0.5504
  202ccc    H14 8910   8.650   3.361   1.257  1.1690  0.1636  0.7552
  202ccc     C9 8911   8.649   3.245   1.432 -0.1723  0.6742 -0.7392
  202ccc    H15 8912   8.758   3.255   1.444  0.4231 -2.8902 -1.7450
  202ccc    H16 8913   8.625   3.142   1.462  1.1582  0.5405 -0.0577
  202ccc    C10 8914   8.580   3.349   1.527  0.2163  0.6257 -1.1825
  202ccc     O4 8915   8.491   3.421   1.494  0.0046  0.2277 -0.1435
  202ccc    C11 8916   8.820   3.793   1.165  0.0732  0.0085 -0.7059
  202ccc    C12 8917   8.964   3.774   1.125 -0.6543 -0.1323 -0.0690
  202ccc    H17 8918   8.817   3.748   1.265  0.9243  1.4903  0.0207
  202ccc    C13 8919   8.996   3.624   1.121 -0.7257 -0.0213  0.1027
  202ccc    C14 8920   8.892   3.549   1.037  0.2645  0.3743 -0.0816
  202ccc    C15 8921   8.749   3.578   1.084  0.2168 -0.4415  0.8037
  202ccc    H18 8922   8.902   3.567   0.929 -0.6154 -1.8038 -0.5819
  202ccc    H19 8923   8.986   3.590   1.225 -2.3481 -0.8777 -0.2909
  202ccc    H20 8924   8.733   3.544   1.187  3.3372 -1.1892  1.1620
  202ccc     O1 8925   8.653   3.533   0.990 -0.1073 -0.6645 -0.2440
  202ccc     O6 8926   9.131   3.601   1.078  0.4489  0.1104 -0.6037
  202ccc    C16 8927   8.780   3.939   1.180 -0.1549  0.3311 -0.0107
  202ccc    H21 8928   9.132   3.507   1.052 -1.7700 -0.4183  0.9443
  202ccc    H22 8929   8.905   3.358   0.954  1.6376 -1.6074  0.2407
  202ccc    H23 8930   8.781   3.996   1.086 -0.1156 -1.7097 -1.2933
  202ccc    H24 8931   8.857   3.984   1.243 -0.9157  1.2990  0.2530
  202ccc     O7 8932   8.656   3.944   1.241 -0.8295 -0.2015  0.2352
  202ccc    H25 8933   8.600   4.008   1.193  0.6448  1.4326  0.5999
  202ccc     O8 8934   8.731   3.720   1.080  0.2429  0.3169 -0.2726
  202ccc    H26 8935   8.608   3.617   0.971 -0.1616 -0.7395 -0.4439
  202ccc    H27 8936   8.976   3.819   1.025  2.4359  1.9043  1.1005
  202ccc     O9 8937   9.053   3.835   1.221  0.4792  0.3282  0.1556
  202ccc    H28 8938   9.141   3.801   1.200 -0.0448  0.2633 -2.1807
  202ccc     N3 8939   8.917   3.401   1.046 -0.3906 -0.1734 -0.0821
  202ccc    C17 8940   8.430   3.384   2.031 -1.1232 -0.0272  0.3725
  202ccc    C18 8941   8.558   3.471   2.001  0.6158  0.5204 -0.3988
  202ccc    H29 8942   8.457   3.281   2.059  0.6611  0.4103  0.3809
  202ccc    C19 8943   8.637   3.417   1.891 -0.0854 -0.3325  0.0588
  202ccc    C20 8944   8.555   3.403   1.765 -0.1798  0.2506 -0.6417
  202ccc    C21 8945   8.425   3.314   1.798 -0.0867 -0.4298  0.5905
  202ccc    H30 8946   8.533   3.505   1.731  0.3862  0.4855 -0.3039
  202ccc    H31 8947   8.675   3.317   1.916 -2.0377 -1.8977 -2.6408
  202ccc    H32 8948   8.452   3.214   1.834  2.0421 -0.4025 -0.7665
  202ccc    O10 8949   8.337   3.311   1.689  0.3936 -0.7877  0.1434
  202ccc    O11 8950   8.739   3.514   1.863 -0.4258 -0.2085 -0.4511
  202ccc    C22 8951   8.330   3.448   2.132  0.5541 -0.0104  0.1907
  202ccc    H33 8952   8.802   3.497   1.935 -2.5306 -2.4663  1.0371
  202ccc    H34 8953   8.677   3.260   1.676  0.9562  0.2613 -1.2191
  202ccc    H35 8954   8.267   3.512   2.070 -0.6464  0.5340  1.9117
  202ccc    H36 8955   8.386   3.508   2.205 -0.9385  0.0249  1.3434
  202ccc    O12 8956   8.254   3.356   2.211 -0.4207  0.1186  0.7560
  202ccc    H37 8957   8.305   3.318   2.285  1.6982  1.0410 -0.1458
  202ccc    O13 8958   8.355   3.376   1.904  0.1471 -0.0831 -0.0841
  202ccc    H38 8959   8.315   3.220   1.662  4.2282 -2.1878  1.1382
  202ccc    H39 8960   8.525   3.570   1.969  0.1734 -0.2946 -2.6795
  202ccc     O5 8961   8.624   3.461   2.129 -0.3825  0.6496  0.3896
  202ccc    H40 8962   8.673   3.544   2.140 -0.0195  0.4865  0.0019
  202ccc     N4 8963   8.627   3.345   1.653  0.1649  0.2152  0.2114
  202ccc    H41 8964   8.597   3.070   1.185  1.7036 -1.6345 -2.1441
  203ccc     N1 8965   8.240   2.339   0.930  0.3996 -0.1892 -0.0092
  203ccc     H4 8966   8.324   2.353   0.876  2.1362  1.1580  2.7756
  203ccc     C3 8967   8.215   2.207   0.991 -0.1451  0.0451  0.2556
  203ccc     H5 8968   8.117   2.170   0.958  0.3540 -0.1171 -1.0945
  203ccc     C4 8969   8.227   2.205   1.142 -0.7669  0.2946  0.0064
  203ccc     H6 8970   8.290   2.139   0.947 -0.3351  0.8930 -1.4738
  203ccc     H7 8971   8.215   2.103   1.182  0.9377  0.4930  1.1082
  203ccc     H8 8972   8.145   2.265   1.183 -0.0147  0.0315  1.9986
  203ccc     N2 8973   8.359   2.250   1.201  0.4144 -1.0665 -0.0590
  203ccc     C5 8974   8.458   2.141   1.211  0.9961  1.0206 -0.1107
  203ccc     C6 8975   8.352   2.325   1.338 -0.0383 -0.6887 -0.1466
  203ccc     H9 8976   8.323   2.250   1.412 -2.3363  0.1184 -0.1414
  203ccc     C7 8977   8.275   2.464   1.361 -0.2732  0.2286 -0.1031
  203ccc    H10 8978   8.451   2.342   1.381 -1.5095  2.0960  2.4965
  203ccc    H11 8979   8.289   2.513   1.459 -1.4552  3.6890 -1.5244
  203ccc    H12 8980   8.166   2.451   1.356 -0.3642 -0.0507  1.8349
  203ccc     C8 8981   8.306   2.567   1.253 -0.3564 -0.5244 -0.5943
  203ccc     O2 8982   8.219   2.609   1.179  0.0424  0.2386 -0.3209
  203ccc    H13 8983   8.430   2.068   1.134 -0.1803 -0.3357  1.5283
  203ccc    H14 8984   8.444   2.082   1.303 -1.7916 -2.5141 -2.5665
  203ccc     C9 8985   8.608   2.185   1.186  0.3784  0.7732 -0.1535
  203ccc    H15 8986   8.642   2.256   1.262  2.1482  1.2946 -1.3628
  203ccc    H16 8987   8.621   2.240   1.092 -0.3718  1.0506 -0.0995
  203ccc    C10 8988   8.711   2.071   1.208  0.1634 -0.9546  0.0767
  203ccc     O4 8989   8.684   1.969   1.268 -0.2235 -0.0023  0.3333
  203ccc    C11 8990   8.736   2.740   0.990 -0.0067  0.0510  0.5708
  203ccc    C12 8991   8.644   2.629   0.951 -0.3408 -0.0143 -0.0451
  203ccc    H17 8992   8.805   2.697   1.064 -1.7536 -1.1023  1.6113
  203ccc    C13 8993   8.583   2.560   1.076 -0.5088 -0.1994  0.1858
  203ccc    C14 8994   8.497   2.666   1.144  0.3635 -0.3325  0.8142
  203ccc    C15 8995   8.581   2.789   1.174  0.1878 -0.5888 -0.4460
  203ccc    H18 8996   8.416   2.683   1.072 -1.0348 -3.2994  1.5286
  203ccc    H19 8997   8.663   2.514   1.135 -0.5724 -0.9149 -0.2662
  203ccc    H20 8998   8.661   2.770   1.247  1.2161 -0.5195 -1.5353
  203ccc     O1 8999   8.510   2.907   1.219 -0.8056  0.6969 -0.0546
  203ccc     O6 9000   8.496   2.451   1.033  0.3813 -0.1680 -0.7453
  203ccc    C16 9001   8.814   2.800   0.869  0.0031  0.2863  0.1668
  203ccc    H21 9002   8.492   2.449   0.936 -0.3095  1.4114 -0.7852
  203ccc    H22 9003   8.506   2.579   1.323  2.0113  0.7180 -2.6424
  203ccc    H23 9004   8.744   2.850   0.801  0.1500  1.8953  1.1390
  203ccc    H24 9005   8.870   2.716   0.826 -3.0331 -2.9846  2.0560
  203ccc     O7 9006   8.899   2.909   0.909 -0.6025  0.1214 -0.1446
  203ccc    H25 9007   8.958   2.867   0.975  0.6446 -0.4003 -1.5410
  203ccc     O8 9008   8.644   2.834   1.052  0.3741  0.0876 -0.0238
  203ccc    H26 9009   8.514   2.899   1.316 -1.0084 -0.8598 -0.1567
  203ccc    H27 9010   8.559   2.668   0.893  0.0570  0.4464 -0.3329
  203ccc     O9 9011   8.714   2.538   0.869 -0.3348 -0.2439  0.3316
  203ccc    H28 9012   8.711   2.559   0.774 -0.7609 -1.2117  0.1203
  203ccc     N3 9013   8.432   2.612   1.262 -0.3564  0.6412 -0.0066
  203ccc    C17 9014   9.004   1.694   1.153  0.2092 -0.2888 -0.3239
  203ccc    C18 9015   8.959   1.729   1.008  0.4478  0.6828  0.1014
  203ccc    H29 9016   8.917   1.669   1.214 -0.8496 -1.0651 -2.0911
  203ccc    C19 9017   8.854   1.850   1.023 -1.0442  0.0249 -0.3526
  203ccc    C20 9018   8.918   1.968   1.099  0.2369  0.7789  0.2646
  203ccc    C21 9019   8.991   1.927   1.228 -0.5471 -0.2380 -0.6938
  203ccc    H30 9020   8.998   2.012   1.039 -0.1084  2.3616  0.9265
  203ccc    H31 9021   8.763   1.824   1.079 -2.0754 -0.1110 -2.0115
  203ccc    H32 9022   8.917   1.927   1.308 -1.9611  0.4845 -1.9413
  203ccc    O10 9023   9.097   2.019   1.253 -0.0140  0.0427  0.2191
  203ccc    O11 9024   8.813   1.897   0.891 -0.0194  0.4854  0.2765
  203ccc    C22 9025   9.105   1.573   1.155 -0.3663  0.0502  0.3743
  203ccc    H33 9026   8.735   1.951   0.911 -1.0597 -1.6296  2.4262
  203ccc    H34 9027   8.830   2.154   1.065  0.2826 -1.2739 -0.6232
  203ccc    H35 9028   9.185   1.594   1.083  0.6134 -1.5900  0.9214
  203ccc    H36 9029   9.054   1.483   1.120  0.3790  1.0854 -3.8680
  203ccc    O12 9030   9.169   1.553   1.282 -0.2686  0.2391 -0.0879
  203ccc    H37 9031   9.177   1.645   1.310  0.0988  0.9410 -2.3281
  203ccc    O13 9032   9.065   1.807   1.216 -0.7621 -0.8394 -0.3922
  203ccc    H38 9033   9.167   1.958   1.281  0.7641  0.6562 -0.3408
  203ccc    H39 9034   9.051   1.760   0.958  3.4074 -0.8669  4.1161
  203ccc     O5 9035   8.896   1.609   0.952 -0.2363 -0.3546  0.0419
  203ccc    H40 9036   8.887   1.612   0.855 -1.2613  0.4649  0.1446
  203ccc     N4 9037   8.818   2.076   1.130 -0.1797 -0.6011  0.1080
  203ccc    H41 9038   8.402   2.316   1.134 -3.4107  0.4418 -1.3437
  204ccc     N1 9039   8.213   2.604   2.276  0.2067  0.1938 -0.1520
  204ccc     H4 9040   8.299   2.630   2.228  1.0525 -3.0636 -0.6324
  204ccc     C3 9041   8.162   2.706   2.374  0.1560  0.4572 -0.0987
  204ccc     H5 9042   8.062   2.743   2.348  0.4979  1.4601 -0.0312
  204ccc     C4 9043   8.260   2.825   2.379 -0.0130  0.2757  0.2716
  204ccc     H6 9044   8.153   2.658   2.472  0.4385  3.3170  1.4343
  204ccc     H7 9045   8.286   2.844   2.274  0.6294 -2.7937 -0.2362
  204ccc     H8 9046   8.350   2.799   2.436  0.3183  0.6728 -0.0639
  204ccc     N2 9047   8.224   2.961   2.442 -0.1374  0.5248  0.1609
  204ccc     C5 9048   8.184   2.955   2.589 -0.4223  0.5109  0.3678
  204ccc     C6 9049   8.110   3.031   2.362 -0.3360  0.5155 -0.4034
  204ccc     H9 9050   8.021   2.968   2.357 -1.1496  1.3737  1.9155
  204ccc     C7 9051   8.145   3.048   2.207  0.3430 -0.2382  0.0293
  204ccc    H10 9052   8.075   3.126   2.405 -2.6744 -0.6220  0.3321
  204ccc    H11 9053   8.143   2.952   2.155 -2.7828 -0.3497  0.1304
  204ccc    H12 9054   8.238   3.105   2.199 -0.2130  0.9269  1.4091
  204ccc     C8 9055   8.038   3.131   2.148  0.2824  0.1399  0.5866
  204ccc     O2 9056   7.949   3.185   2.215  0.0435 -0.1551  0.3059
  204ccc    H13 9057   8.099   2.886   2.599 -0.9612  0.9851 -0.7457
  204ccc    H14 9058   8.149   3.055   2.614 -1.1940 -0.3014  2.8547
  204ccc     C9 9059   8.303   2.930   2.684 -0.0952  0.7137  0.6378
  204ccc    H15 9060   8.383   3.005   2.673  0.7981 -0.0255  1.9075
  204ccc    H16 9061   8.339   2.828   2.670  0.1839  0.7621  0.9970
  204ccc    C10 9062   8.271   2.935   2.831  0.3658  0.5421  0.6944
  204ccc     O4 9063   8.164   2.931   2.883  0.0236  0.3122 -0.8465
  204ccc    C11 9064   7.946   3.456   1.727  0.8794  0.2434 -0.0471
  204ccc    C12 9065   7.911   3.306   1.697 -0.0224  0.4745  0.6533
  204ccc    H17 9066   8.051   3.480   1.705  1.4888  0.0118  2.3327
  204ccc    C13 9067   7.998   3.213   1.785  0.3317  0.4190  1.1063
  204ccc    C14 9068   7.988   3.252   1.935  0.0890  0.4318  0.4313
  204ccc    C15 9069   8.020   3.401   1.958  0.2788 -0.3721 -0.3240
  204ccc    H18 9070   7.883   3.249   1.965  0.3116 -0.6888  1.1408
  204ccc    H19 9071   8.103   3.213   1.753  0.7659 -0.7549  2.4532
  204ccc    H20 9072   8.128   3.422   1.948  0.8992 -1.5581  2.8358
  204ccc     O1 9073   7.989   3.446   2.090  0.7015  0.0894 -0.3476
  204ccc     O6 9074   7.933   3.090   1.782  0.3988 -0.5089  0.2724
  204ccc    C16 9075   7.839   3.553   1.657  0.9537 -0.0596 -0.3637
  204ccc    H21 9076   7.968   3.033   1.712 -0.9970  1.4460 -2.2112
  204ccc    H22 9077   8.155   3.137   1.976  0.4059 -0.3221 -0.3512
  204ccc    H23 9078   7.744   3.555   1.712  1.6944  2.4927  1.0198
  204ccc    H24 9079   7.820   3.509   1.558  0.2574 -1.6388  0.4333
  204ccc     O7 9080   7.896   3.683   1.644 -0.4426 -0.5010 -0.6977
  204ccc    H25 9081   7.830   3.731   1.591 -0.1819 -0.5708 -1.0890
  204ccc     O8 9082   7.927   3.473   1.867 -0.5727 -0.4438 -0.1452
  204ccc    H26 9083   8.044   3.407   2.160 -0.6959  1.1586  1.4269
  204ccc    H27 9084   7.807   3.286   1.728 -0.5679  2.1861  0.0350
  204ccc     O9 9085   7.935   3.277   1.552  0.5056 -0.7896 -0.4010
  204ccc    H28 9086   7.954   3.183   1.537 -1.0496 -1.1910  0.0250
  204ccc     N3 9087   8.065   3.162   2.016  0.1682 -0.1095 -1.0002
  204ccc    C17 9088   8.767   2.781   2.978 -0.0373  0.5583 -0.1316
  204ccc    C18 9089   8.654   2.675   2.931  0.5001 -0.2031 -0.7279
  204ccc    H29 9090   8.760   2.790   3.087  0.2661 -1.1988  0.0652
  204ccc    C19 9091   8.514   2.738   2.937 -0.6787 -0.3394 -0.5635
  204ccc    C20 9092   8.510   2.879   2.874 -0.2246 -0.3134  0.2174
  204ccc    C21 9093   8.621   2.966   2.944 -0.1794  0.3526  0.3447
  204ccc    H30 9094   8.539   2.877   2.768 -0.4132  1.6884  0.0884
  204ccc    H31 9095   8.498   2.745   3.046  0.3707  1.8092 -0.4886
  204ccc    H32 9096   8.601   2.989   3.049  0.5552  1.0951  0.3397
  204ccc    O10 9097   8.640   3.088   2.876 -0.2961  0.4300 -0.1384
  204ccc    O11 9098   8.419   2.654   2.875  0.1272  0.0267 -0.4217
  204ccc    C22 9099   8.908   2.737   2.934 -0.0061  0.0749 -0.4926
  204ccc    H33 9100   8.429   2.564   2.910 -0.6159 -1.2225 -3.1519
  204ccc    H34 9101   8.367   2.952   3.005  1.6465 -0.1546 -0.1467
  204ccc    H35 9102   8.943   2.644   2.981  0.0613 -0.8480 -2.2761
  204ccc    H36 9103   8.973   2.821   2.960  1.6345 -0.7108 -1.8695
  204ccc    O12 9104   8.919   2.726   2.793 -0.9704 -0.4752  0.7342
  204ccc    H37 9105   9.015   2.726   2.777 -1.1454  1.0724 -0.5527
  204ccc    O13 9106   8.752   2.914   2.922 -0.2998 -0.7183  0.1823
  204ccc    H38 9107   8.713   3.077   2.813 -1.2797  2.4134 -1.7445
  204ccc    H39 9108   8.679   2.653   2.826  2.1744 -5.2963  0.4493
  204ccc     O5 9109   8.662   2.552   3.007 -0.0415 -0.0822  0.2708
  204ccc    H40 9110   8.730   2.492   2.974 -0.9299 -0.8291 -0.2565
  204ccc     N4 9111   8.377   2.938   2.905  0.4814 -0.7775 -0.1956
  204ccc    H41 9112   8.306   3.023   2.432 -0.4160  0.6325 -1.7886
  205ccc     N1 9113   8.066   1.862   2.565  0.1894 -0.3778 -0.1771
  205ccc     H4 9114   8.152   1.903   2.598 -0.4315  0.5739  0.3043
  205ccc     C3 9115   8.020   1.739   2.631 -0.2225  0.0721  0.6824
  205ccc     H5 9116   7.912   1.746   2.649 -0.5076 -0.0561 -0.8060
  205ccc     C4 9117   8.092   1.700   2.758  0.6539 -0.5320 -0.1195
  205ccc     H6 9118   8.040   1.654   2.564  2.9986  0.8848  0.4497
  205ccc     H7 9119   8.197   1.723   2.736 -0.0774  2.9225 -0.5011
  205ccc     H8 9120   8.078   1.593   2.778 -1.0150 -0.2179  0.4598
  205ccc     N2 9121   8.055   1.774   2.889  0.4210 -0.5112  0.6237
  205ccc     C5 9122   8.169   1.795   2.990  0.5279 -0.0894  0.0333
  205ccc     C6 9123   7.935   1.705   2.951 -0.0074  0.1851  0.1654
  205ccc     H9 9124   7.876   1.650   2.877 -0.4621  0.3475  0.4010
  205ccc     C7 9125   7.837   1.795   3.032  0.6358 -0.4657 -0.1555
  205ccc    H10 9126   7.981   1.632   3.019  0.9423  0.0503 -0.6033
  205ccc    H11 9127   7.885   1.846   3.116 -2.5721  2.2607  0.2690
  205ccc    H12 9128   7.749   1.739   3.066  0.0072  0.8567  0.4721
  205ccc     C8 9129   7.792   1.913   2.943 -0.4120  0.2452  0.1423
  205ccc     O2 9130   7.775   1.907   2.821 -0.0737 -0.5674 -0.4622
  205ccc    H13 9131   8.196   1.696   3.028  0.9561 -0.7574 -1.8597
  205ccc    H14 9132   8.134   1.855   3.074  0.4268 -0.6397  0.3921
  205ccc     C9 9133   8.289   1.868   2.930  0.4043  0.2065  0.5934
  205ccc    H15 9134   8.333   1.818   2.843  1.3659  1.1009  0.5318
  205ccc    H16 9135   8.368   1.877   3.005 -0.2532 -1.1029  1.4754
  205ccc    C10 9136   8.258   2.013   2.884 -0.9435 -0.3776 -0.2376
  205ccc     O4 9137   8.142   2.060   2.875 -0.4954 -0.3029  0.0960
  205ccc    C11 9138   7.526   2.377   2.919 -0.2876  0.4541 -0.3659
  205ccc    C12 9139   7.667   2.405   2.980 -0.3448  0.2722 -0.1052
  205ccc    H17 9140   7.463   2.346   3.003  1.0956 -0.5289  0.3546
  205ccc    C13 9141   7.722   2.275   3.052 -0.0572 -0.2511  0.2396
  205ccc    C14 9142   7.713   2.155   2.956  0.1652  0.2481  0.1106
  205ccc    C15 9143   7.566   2.141   2.915 -0.6992  0.6308 -0.1873
  205ccc    H18 9144   7.771   2.177   2.865 -2.4278  1.5471 -1.3413
  205ccc    H19 9145   7.663   2.253   3.142  0.5477 -2.6781  0.1096
  205ccc    H20 9146   7.508   2.123   3.006  0.5545  1.0152  0.6976
  205ccc     O1 9147   7.547   2.042   2.817 -0.6629 -0.2180  0.1135
  205ccc     O6 9148   7.851   2.301   3.091 -0.2899 -0.4434 -0.7134
  205ccc    C16 9149   7.452   2.503   2.859  0.3674  0.4750  0.3656
  205ccc    H21 9150   7.884   2.228   3.146 -0.5998 -0.1681 -0.1533
  205ccc    H22 9151   7.733   2.017   3.108 -3.6850  2.4976 -0.6198
  205ccc    H23 9152   7.509   2.534   2.770 -0.1461 -1.9497 -0.8889
  205ccc    H24 9153   7.451   2.583   2.934  0.7471 -0.4252  1.3576
  205ccc     O7 9154   7.318   2.455   2.829 -0.1440  0.2250 -0.1700
  205ccc    H25 9155   7.273   2.441   2.915 -1.2092  1.1151 -0.5583
  205ccc     O8 9156   7.525   2.257   2.844 -0.3031  0.1298  0.5948
  205ccc    H26 9157   7.635   1.999   2.819 -0.6913 -0.3378 -0.6674
  205ccc    H27 9158   7.738   2.449   2.908  0.1349 -0.3727 -0.0382
  205ccc     O9 9159   7.641   2.503   3.078 -0.0537  0.0508  0.0809
  205ccc    H28 9160   7.667   2.468   3.165  0.2960 -1.8301 -0.7248
  205ccc     N3 9161   7.759   2.031   3.011 -0.5017  0.5634 -0.1963
  205ccc    C17 9162   8.517   2.411   2.620 -0.2815  0.0585  0.3124
  205ccc    C18 9163   8.417   2.319   2.550 -0.5417 -0.4096  0.1077
  205ccc    H29 9164   8.619   2.371   2.614 -0.5279 -0.4219 -0.9726
  205ccc    C19 9165   8.410   2.189   2.627 -0.5876  0.7094 -0.4561
  205ccc    C20 9166   8.372   2.213   2.777 -0.5087  0.7353  0.1167
  205ccc    C21 9167   8.474   2.308   2.834  0.4707 -0.2730 -0.8832
  205ccc    H30 9168   8.275   2.264   2.778 -1.1320 -0.4384 -0.0012
  205ccc    H31 9169   8.508   2.144   2.613 -0.2494  0.1756  2.9024
  205ccc    H32 9170   8.572   2.263   2.851  1.1732  1.1764 -0.8978
  205ccc    O10 9171   8.430   2.347   2.967  0.0001 -0.0774  0.1792
  205ccc    O11 9172   8.317   2.093   2.572  0.0805  0.1205 -0.5071
  205ccc    C22 9173   8.511   2.550   2.560  0.5377  0.1754  0.1229
  205ccc    H33 9174   8.366   2.009   2.578  0.0190 -0.1733 -3.2010
  205ccc    H34 9175   8.459   2.035   2.843  0.7996  1.6524  0.7585
  205ccc    H35 9176   8.534   2.544   2.453 -3.3048 -1.6190 -0.7548
  205ccc    H36 9177   8.599   2.599   2.605  1.2109 -2.1133  1.4479
  205ccc    O12 9178   8.382   2.605   2.599  0.0627 -0.2139 -0.3939
  205ccc    H37 9179   8.387   2.595   2.696 -0.5710 -1.0344 -0.4263
  205ccc    O13 9180   8.480   2.425   2.758  0.4658  0.2625  0.5020
  205ccc    H38 9181   8.437   2.267   3.022 -0.1481  0.1872  0.5872
  205ccc    H39 9182   8.320   2.370   2.549 -0.2888  0.0994 -1.2313
  205ccc     O5 9183   8.460   2.288   2.410  0.6878 -0.4057 -0.1451
  205ccc    H40 9184   8.528   2.219   2.398  0.3072 -0.6345 -1.0486
  205ccc     N4 9185   8.369   2.083   2.853  0.0516  0.5380 -0.3712
  205ccc    H41 9186   8.030   1.866   2.851  3.0997  0.5392  1.1780
  206ccc     N1 9187   8.102   5.245   2.042 -0.2188  0.3873 -0.4520
  206ccc     H4 9188   8.144   5.177   2.104 -0.1581 -0.9541 -1.8939
  206ccc     C3 9189   8.095   5.217   1.894  0.5938  0.1050 -0.6736
  206ccc     H5 9190   7.989   5.206   1.868  0.1402 -0.9761  1.4873
  206ccc     C4 9191   8.173   5.089   1.847  0.8763 -0.8132 -0.3969
  206ccc     H6 9192   8.124   5.310   1.844 -3.7916  1.3200 -1.3547
  206ccc     H7 9193   8.146   5.055   1.746 -0.4730 -0.4063 -0.1938
  206ccc     H8 9194   8.140   5.009   1.914 -1.3339  1.2958  1.2047
  206ccc     N2 9195   8.332   5.101   1.863  0.6791 -0.3848 -0.3576
  206ccc     C5 9196   8.395   5.157   1.734  0.6715  0.4793 -0.0703
  206ccc     C6 9197   8.388   4.972   1.912  0.6312  0.1909  0.1316
  206ccc     H9 9198   8.493   4.989   1.937  1.0762 -0.8095 -0.9201
  206ccc     C7 9199   8.376   4.850   1.822  0.2013 -0.0867  0.1463
  206ccc    H10 9200   8.339   4.949   2.007 -1.0781 -0.7362 -0.9159
  206ccc    H11 9201   8.401   4.881   1.720 -2.0986  0.0424 -0.4299
  206ccc    H12 9202   8.272   4.817   1.811 -0.4964  2.3506 -1.1573
  206ccc     C8 9203   8.471   4.737   1.866 -0.2596  0.4280  0.8619
  206ccc     O2 9204   8.561   4.749   1.953  0.0794 -0.7849 -0.4969
  206ccc    H13 9205   8.338   5.249   1.713 -0.9157  0.4837  3.4160
  206ccc    H14 9206   8.374   5.083   1.656 -2.7588  2.1459 -0.9303
  206ccc     C9 9207   8.543   5.183   1.751  0.0951  0.4204 -0.0864
  206ccc    H15 9208   8.599   5.090   1.762  1.6266  0.9469 -2.4727
  206ccc    H16 9209   8.555   5.241   1.843 -1.1445  0.1543  0.2621
  206ccc    C10 9210   8.602   5.242   1.628  0.4178  0.1085  0.3213
  206ccc     O4 9211   8.544   5.281   1.531  0.2476  0.1408 -0.4150
  206ccc    C11 9212   8.364   4.236   2.005 -1.1260  0.0033 -0.1053
  206ccc    C12 9213   8.480   4.235   1.905 -0.2791  0.6756  0.5445
  206ccc    H17 9214   8.269   4.225   1.951 -1.3930  0.9317  0.1648
  206ccc    C13 9215   8.470   4.365   1.819 -0.4956 -0.9552 -0.0656
  206ccc    C14 9216   8.457   4.493   1.901  0.5303 -0.0114  0.1318
  206ccc    C15 9217   8.343   4.480   2.006 -0.2659  0.3658 -0.3251
  206ccc    H18 9218   8.550   4.502   1.959 -0.4449  1.3277  1.5639
  206ccc    H19 9219   8.380   4.353   1.757 -0.3594  1.0611 -0.7036
  206ccc    H20 9220   8.242   4.476   1.964 -0.9061  1.0726  1.0851
  206ccc     O1 9221   8.349   4.580   2.109 -0.9770 -0.2365  0.3450
  206ccc     O6 9222   8.583   4.378   1.732 -0.0031 -0.2076  0.5091
  206ccc    C16 9223   8.378   4.119   2.103 -0.0134  0.2475  0.7811
  206ccc    H21 9224   8.562   4.450   1.670 -2.2406 -1.2027  0.0187
  206ccc    H22 9225   8.346   4.610   1.766 -0.2215 -1.1307 -0.2324
  206ccc    H23 9226   8.453   4.140   2.180 -0.4973  0.5580  1.1762
  206ccc    H24 9227   8.408   4.026   2.054  0.0815  1.4466 -1.5647
  206ccc     O7 9228   8.259   4.091   2.169  0.0886  0.1626  0.1703
  206ccc    H25 9229   8.229   4.173   2.213  0.5131 -0.1276  1.0260
  206ccc     O8 9230   8.362   4.355   2.084 -0.2067 -0.4196 -0.0601
  206ccc    H26 9231   8.423   4.546   2.163 -0.2084 -0.0320 -0.5481
  206ccc    H27 9232   8.573   4.238   1.964 -0.5536  0.0475  1.0200
  206ccc     O9 9233   8.482   4.124   1.817  0.7623  0.0493 -0.4537
  206ccc    H28 9234   8.543   4.155   1.748 -0.7206  2.2044 -0.8959
  206ccc     N3 9235   8.428   4.617   1.826 -0.3482  0.3925 -0.1806
  206ccc    C17 9236   9.126   5.122   1.697  0.3168  0.1414  0.7227
  206ccc    C18 9237   9.079   5.238   1.789  0.1599 -0.2170 -0.4815
  206ccc    H29 9238   9.153   5.157   1.597  1.5052  0.5512  1.1647
  206ccc    C19 9239   8.952   5.301   1.736 -0.3381  0.2906  0.0245
  206ccc    C20 9240   8.843   5.196   1.701  0.4695 -0.3447  0.2942
  206ccc    C21 9241   8.898   5.077   1.618  0.0988  0.2048 -0.0490
  206ccc    H30 9242   8.802   5.154   1.794 -1.4634  0.2408 -0.2551
  206ccc    H31 9243   8.981   5.348   1.641 -0.0822 -2.1466 -1.1712
  206ccc    H32 9244   8.934   5.114   1.521  4.4745 -0.3563  1.1358
  206ccc    O10 9245   8.807   4.970   1.602 -0.0198 -0.4971  0.1394
  206ccc    O11 9246   8.892   5.405   1.815 -0.1268 -0.4519 -0.1856
  206ccc    C22 9247   9.252   5.057   1.750  1.2659  0.0303 -0.3291
  206ccc    H33 9248   8.825   5.437   1.752  0.5863 -0.0363 -0.7503
  206ccc    H34 9249   8.774   5.309   1.550 -0.6745 -0.7211 -1.0578
  206ccc    H35 9250   9.247   5.045   1.859  1.0458 -0.6206 -0.4091
  206ccc    H36 9251   9.342   5.119   1.741  3.0983 -2.0102  2.4447
  206ccc    O12 9252   9.284   4.929   1.697  0.2919 -0.0461 -0.5050
  206ccc    H37 9253   9.365   4.911   1.748 -1.0771  0.1382  1.8623
  206ccc    O13 9254   9.020   5.029   1.683 -0.3501 -0.8276 -0.3339
  206ccc    H38 9255   8.802   4.906   1.675  0.1691 -1.2483 -0.4987
  206ccc    H39 9256   9.059   5.197   1.889 -0.8876 -0.3486 -0.7313
  206ccc     O5 9257   9.181   5.339   1.802  0.0255 -0.3119 -0.3965
  206ccc    H40 9258   9.179   5.358   1.897 -0.0743 -1.8667 -0.0767
  206ccc     N4 9259   8.732   5.268   1.633  0.4426  0.2237  0.0215
  206ccc    H41 9260   8.349   5.171   1.937 -1.7054  0.1161 -0.1843
  207ccc     N1 9261   8.308   5.560   2.601  0.4356  0.0934  0.4967
  207ccc     H4 9262   8.234   5.619   2.637  1.4405  0.6481  1.6948
  207ccc     C3 9263   8.346   5.442   2.684 -0.2634 -0.9153  0.5292
  207ccc     H5 9264   8.284   5.426   2.773 -0.0724 -1.7854  0.5161
  207ccc     C4 9265   8.498   5.461   2.730 -0.3207 -0.1325  0.1896
  207ccc     H6 9266   8.339   5.351   2.623 -0.7466  0.4351 -1.5429
  207ccc     H7 9267   8.568   5.463   2.645 -1.7554  1.9643 -1.0363
  207ccc     H8 9268   8.532   5.380   2.796  0.1832  1.1411  1.5600
  207ccc     N2 9269   8.522   5.592   2.797  0.0400  0.3837 -0.5708
  207ccc     C5 9270   8.660   5.652   2.766  0.0259 -0.2838 -0.0373
  207ccc     C6 9271   8.499   5.570   2.952  0.0359 -0.1039  0.2335
  207ccc     H9 9272   8.418   5.496   2.947 -0.3643  0.3502 -0.1785
  207ccc     C7 9273   8.445   5.691   3.029 -0.4618  0.4382  0.4748
  207ccc    H10 9274   8.584   5.524   3.003 -0.2377 -1.8813 -0.8284
  207ccc    H11 9275   8.371   5.745   2.968  0.6031 -1.0699 -2.3479
  207ccc    H12 9276   8.517   5.765   3.065 -1.6449  1.2323  1.2715
  207ccc     C8 9277   8.362   5.647   3.147  0.2404 -0.3004 -0.2956
  207ccc     O2 9278   8.271   5.565   3.145  0.6983 -0.2184  0.2345
  207ccc    H13 9279   8.654   5.676   2.659 -1.7323 -0.8310 -0.1034
  207ccc    H14 9280   8.737   5.575   2.770  0.9598  0.6550  1.0918
  207ccc     C9 9281   8.709   5.770   2.852 -0.0217 -0.0343  0.2752
  207ccc    H15 9282   8.739   5.734   2.951  0.8559  0.4028  0.1807
  207ccc    H16 9283   8.634   5.850   2.865  1.1474  1.6788 -2.4969
  207ccc    C10 9284   8.826   5.851   2.795  0.1396 -0.4431 -0.0885
  207ccc     O4 9285   8.882   5.842   2.687 -0.0661 -0.4225  0.6316
  207ccc    C11 9286   8.328   5.718   3.690  0.2815  0.8465 -0.2944
  207ccc    C12 9287   8.278   5.850   3.618  0.2036  0.2943  0.1680
  207ccc    H17 9288   8.437   5.715   3.707  0.5087 -0.6148 -1.7964
  207ccc    C13 9289   8.333   5.843   3.468  0.0975 -0.7090  0.3418
  207ccc    C14 9290   8.298   5.717   3.385 -0.4755  1.0746 -0.1365
  207ccc    C15 9291   8.337   5.598   3.473 -0.4917  0.2626 -0.0671
  207ccc    H18 9292   8.192   5.709   3.358 -0.6163 -2.5103  0.9307
  207ccc    H19 9293   8.441   5.853   3.484 -0.0086  0.1583  0.5888
  207ccc    H20 9294   8.445   5.588   3.486 -0.6971 -2.6919 -0.0055
  207ccc     O1 9295   8.288   5.472   3.432  0.4022  0.1643  0.3200
  207ccc     O6 9296   8.290   5.952   3.387 -0.8119  0.3673  0.4391
  207ccc    C16 9297   8.253   5.692   3.819  0.3321 -0.1404 -0.1615
  207ccc    H21 9298   8.342   6.028   3.419  1.7914 -1.1671  0.0609
  207ccc    H22 9299   8.458   5.781   3.260  0.3397 -0.5843 -1.6100
  207ccc    H23 9300   8.152   5.664   3.786  1.0880 -3.4711  0.0125
  207ccc    H24 9301   8.240   5.786   3.874 -1.6570  0.2814 -1.2476
  207ccc     O7 9302   8.314   5.585   3.889 -1.1239  1.0089 -0.0877
  207ccc    H25 9303   8.308   5.503   3.837 -1.6032  0.6372  0.5438
  207ccc     O8 9304   8.281   5.612   3.603 -0.1804 -0.6153  0.2345
  207ccc    H26 9305   8.295   5.421   3.514  0.3297 -0.0838  0.1753
  207ccc    H27 9306   8.169   5.843   3.627 -0.0359  0.1984 -2.2616
  207ccc     O9 9307   8.310   5.969   3.686  0.0919  0.2539  0.3801
  207ccc    H28 9308   8.407   5.961   3.696  0.2585  0.7229 -0.6709
  207ccc     N3 9309   8.374   5.724   3.256 -0.2278  0.0856 -0.0571
  207ccc    C17 9310   8.861   6.153   3.251 -0.0486  0.0289  0.0194
  207ccc    C18 9311   8.757   6.196   3.139 -0.2444  0.1759 -0.1540
  207ccc    H29 9312   8.951   6.213   3.235 -0.3966  0.4559 -0.3946
  207ccc    C19 9313   8.803   6.161   2.998  0.2838  0.4197  0.1237
  207ccc    C20 9314   8.830   6.006   2.999  0.6692 -0.3489 -0.1087
  207ccc    C21 9315   8.937   5.971   3.109  0.2582  0.0150 -0.4102
  207ccc    H30 9316   8.735   5.961   3.032 -0.0094  0.2023 -1.2564
  207ccc    H31 9317   8.897   6.208   2.969 -0.0660  0.9283 -0.1953
  207ccc    H32 9318   9.027   6.030   3.089 -0.0456 -0.0889 -2.2392
  207ccc    O10 9319   8.958   5.832   3.137 -0.2499 -0.4858  0.2604
  207ccc    O11 9320   8.714   6.214   2.901 -0.1774 -0.3289 -0.0727
  207ccc    C22 9321   8.805   6.157   3.395 -0.6484 -0.0035 -0.2155
  207ccc    H33 9322   8.762   6.211   2.817 -1.2485 -0.5493 -0.7055
  207ccc    H34 9323   8.957   5.990   2.831  1.3066 -1.8891  0.7240
  207ccc    H35 9324   8.801   6.258   3.437 -0.8901 -0.7365  1.5886
  207ccc    H36 9325   8.862   6.081   3.450 -2.6908 -1.8019 -0.4639
  207ccc    O12 9326   8.673   6.105   3.386  0.1669  0.2809  0.0735
  207ccc    H37 9327   8.688   6.009   3.380  0.2360  0.2906  0.0817
  207ccc    O13 9328   8.890   6.012   3.236  1.1497 -0.1328 -0.0492
  207ccc    H38 9329   8.929   5.820   3.229  1.2955  3.7621  1.5345
  207ccc    H39 9330   8.658   6.151   3.149  0.0764 -0.3956  0.5944
  207ccc     O5 9331   8.748   6.338   3.135 -0.1219 -0.0470  0.3475
  207ccc    H40 9332   8.710   6.365   3.220 -1.2871 -0.7096  0.0405
  207ccc     N4 9333   8.873   5.947   2.868 -0.1609 -0.3340 -0.6099
  207ccc    H41 9334   8.453   5.661   2.765 -0.4582  0.3016  0.2835
  208ccc     N1 9335   8.979   5.694   1.521 -0.1461  0.0877  0.2123
  208ccc     H4 9336   9.025   5.763   1.463  0.4928 -1.1799 -0.8292
  208ccc     C3 9337   9.025   5.670   1.659 -0.2997  0.8349  0.4564
  208ccc     H5 9338   8.941   5.642   1.725  1.3783 -1.2699  1.8353
  208ccc     C4 9339   9.104   5.786   1.721 -0.2163 -0.1990  0.4670
  208ccc     H6 9340   9.086   5.579   1.652  0.5152  1.4597 -1.0733
  208ccc     H7 9341   9.034   5.868   1.740  1.0587  0.9086  0.4911
  208ccc     H8 9342   9.171   5.830   1.646 -0.7908 -0.7317 -0.3894
  208ccc     N2 9343   9.179   5.757   1.849  0.3855  0.1351  0.9347
  208ccc     C5 9344   9.313   5.699   1.804  0.2044  0.6346 -0.6744
  208ccc     C6 9345   9.108   5.659   1.947 -0.2917 -0.0742  0.7423
  208ccc     H9 9346   9.094   5.564   1.895 -0.6387  0.8728 -0.9561
  208ccc     C7 9347   8.973   5.706   2.013 -0.0705 -0.0951 -0.0358
  208ccc    H10 9348   9.181   5.640   2.027  0.7510 -1.1621 -0.4407
  208ccc    H11 9349   8.886   5.689   1.948 -0.9526 -1.3005  1.3945
  208ccc    H12 9350   8.974   5.812   2.040 -2.0683 -0.1329  0.3636
  208ccc     C8 9351   8.951   5.630   2.143  0.0762 -0.0607 -0.3081
  208ccc     O2 9352   8.953   5.507   2.149 -0.0256 -0.6802 -0.0055
  208ccc    H13 9353   9.360   5.780   1.748 -2.1718  2.8697  0.3450
  208ccc    H14 9354   9.297   5.619   1.730 -1.1741 -0.4810  0.7538
  208ccc     C9 9355   9.422   5.654   1.905 -0.1860 -0.3467  0.2168
  208ccc    H15 9356   9.384   5.571   1.965  0.1148 -0.7689 -0.1719
  208ccc    H16 9357   9.437   5.734   1.979 -0.9180  0.8948 -0.9157
  208ccc    C10 9358   9.546   5.617   1.828 -0.4284 -0.1812 -0.2901
  208ccc     O4 9359   9.561   5.508   1.777 -0.2131 -0.0471 -0.3780
  208ccc    C11 9360   8.964   5.443   2.597  0.7167  1.0301  0.5800
  208ccc    C12 9361   9.084   5.541   2.576  0.6230 -0.2232  0.4803
  208ccc    H17 9362   8.981   5.347   2.546  0.5931  0.6513  1.2383
  208ccc    C13 9363   9.081   5.601   2.435  0.2851 -0.3515 -0.5940
  208ccc    C14 9364   8.942   5.655   2.397  0.4446 -0.7096  0.2725
  208ccc    C15 9365   8.841   5.538   2.421  0.0326 -0.2666 -0.2064
  208ccc    H18 9366   8.916   5.737   2.465  2.9321  1.6033 -1.3395
  208ccc    H19 9367   9.094   5.506   2.381  1.6752 -1.9434  2.3397
  208ccc    H20 9368   8.875   5.457   2.355  1.9189 -0.4501  0.8941
  208ccc     O1 9369   8.707   5.577   2.390  0.0294 -1.2090  0.1330
  208ccc     O6 9370   9.173   5.706   2.417  0.4174 -0.1076 -0.0820
  208ccc    C16 9371   8.940   5.418   2.748  0.2720  0.6684  0.4383
  208ccc    H21 9372   9.255   5.669   2.379  0.4765 -0.3568  0.2842
  208ccc    H22 9373   8.968   5.801   2.242 -0.3060  0.1934  0.4371
  208ccc    H23 9374   8.928   5.517   2.794 -1.7410  1.9361 -2.5738
  208ccc    H24 9375   9.032   5.367   2.781  0.2006  0.8976  0.9983
  208ccc     O7 9376   8.825   5.330   2.770 -0.0264 -0.3341  0.6302
  208ccc    H25 9377   8.860   5.239   2.764  2.2415  0.5516 -0.8881
  208ccc     O8 9378   8.841   5.501   2.562 -0.4977 -0.2472  0.5967
  208ccc    H26 9379   8.692   5.661   2.435  1.2957 -0.2425 -1.1746
  208ccc    H27 9380   9.065   5.621   2.648 -2.3365 -1.0651  0.7757
  208ccc     O9 9381   9.195   5.463   2.596 -0.2943  0.8597  0.3119
  208ccc    H28 9382   9.261   5.534   2.597 -1.1122  1.6364  1.3017
  208ccc     N3 9383   8.930   5.707   2.249 -0.7135  0.2725 -0.4479
  208ccc    C17 9384   9.846   6.073   1.936 -0.0369  0.1707  0.1343
  208ccc    C18 9385   9.734   6.102   1.834  0.4884  0.0289  0.4601
  208ccc    H29 9386   9.938   6.058   1.879 -1.7215 -2.0388 -2.2070
  208ccc    C19 9387   9.677   5.967   1.775 -0.0471 -0.1177 -0.0655
  208ccc    C20 9388   9.661   5.846   1.865  0.7208 -0.0990 -0.0832
  208ccc    C21 9389   9.789   5.835   1.953  0.1483  1.1369  0.5814
  208ccc    H30 9390   9.579   5.870   1.934  0.7144 -2.4244  0.8165
  208ccc    H31 9391   9.748   5.942   1.695 -0.2018  1.9161 -0.9069
  208ccc    H32 9392   9.869   5.796   1.889 -1.3505 -3.6843  1.2520
  208ccc    O10 9393   9.763   5.741   2.057  0.0508 -0.4391  0.1054
  208ccc    O11 9394   9.558   5.986   1.706 -0.0620  0.2101  0.2110
  208ccc    C22 9395   9.863   6.190   2.036 -0.6363  0.7971  0.5686
  208ccc    H33 9396   9.487   6.006   1.769 -2.5114 -0.6290 -2.0795
  208ccc    H34 9397   9.696   5.690   1.719  0.0023 -0.2461 -0.4709
  208ccc    H35 9398   9.905   6.281   1.992 -0.9349  2.3087  3.2468
  208ccc    H36 9399   9.937   6.154   2.109  1.1819 -0.4769 -1.7598
  208ccc    O12 9400   9.739   6.231   2.091  0.5366  0.1479 -0.1716
  208ccc    H37 9401   9.726   6.152   2.146  2.0887  0.2623  0.3943
  208ccc    O13 9402   9.818   5.957   2.023  0.1923 -0.3773  0.2306
  208ccc    H38 9403   9.716   5.784   2.130 -1.3652 -0.4257 -0.7793
  208ccc    H39 9404   9.644   6.147   1.878  2.2130  2.2549  1.9655
  208ccc     O5 9405   9.777   6.185   1.732  0.1175 -0.2074 -0.6855
  208ccc    H40 9406   9.705   6.249   1.717 -0.3867 -0.5956  0.0419
  208ccc     N4 9407   9.627   5.715   1.791  0.3162 -0.6105 -0.0438
  208ccc    H41 9408   9.191   5.844   1.904  2.6773  1.2071 -1.0714
  209ccc     N1 9409   8.857   5.155   1.037  0.3480 -0.4890  0.1516
  209ccc     H4 9410   8.866   5.212   0.955  1.9911  0.4981  0.9819
  209ccc     C3 9411   8.912   5.015   1.027  0.3269  0.4259 -0.0332
  209ccc     H5 9412   8.833   4.945   1.059 -0.2895 -1.6041 -5.0954
  209ccc     C4 9413   9.050   4.990   1.088  0.8022  0.5490 -0.0375
  209ccc     H6 9414   8.914   4.992   0.920 -0.9865 -0.4467  0.1005
  209ccc     H7 9415   9.063   5.046   1.181  1.5753  0.0452  0.1660
  209ccc     H8 9416   9.116   5.032   1.012 -1.9291  1.3467 -2.1681
  209ccc     N2 9417   9.095   4.850   1.103 -0.2050  0.1893 -0.3594
  209ccc     C5 9418   9.068   4.763   0.977 -0.2887  0.5210  0.0743
  209ccc     C6 9419   9.036   4.769   1.225 -0.1911  0.4385 -0.0579
  209ccc     H9 9420   8.927   4.770   1.220 -0.3542  1.3947  2.3221
  209ccc     C7 9421   9.073   4.830   1.368  0.5906  0.3763  0.0506
  209ccc    H10 9422   9.082   4.670   1.216 -1.2051 -0.1575  1.1055
  209ccc    H11 9423   9.015   4.922   1.379  0.0764  0.2763 -1.6092
  209ccc    H12 9424   9.180   4.851   1.379  1.0459 -0.4425 -2.2611
  209ccc     C8 9425   9.013   4.733   1.473  0.0958  0.1032  0.3160
  209ccc     O2 9426   8.944   4.638   1.443 -0.0423  0.8419  0.2976
  209ccc    H13 9427   8.963   4.731   0.974 -0.3288  0.5088  1.1231
  209ccc    H14 9428   9.108   4.662   0.991 -0.8442  0.3609  0.5942
  209ccc     C9 9429   9.126   4.814   0.843  0.0020 -0.1507  0.0666
  209ccc    H15 9430   9.235   4.820   0.860  0.0079  2.5217 -0.4616
  209ccc    H16 9431   9.082   4.910   0.814  1.6691  0.1570 -1.7086
  209ccc    C10 9432   9.121   4.710   0.727  0.2508  0.9453 -0.2509
  209ccc     O4 9433   9.069   4.598   0.737  0.3240 -0.2618  0.1987
  209ccc    C11 9434   8.937   4.436   1.867  0.5235 -0.1383  0.0898
  209ccc    C12 9435   9.083   4.420   1.821 -0.1839 -0.5159  0.1201
  209ccc    H17 9436   8.873   4.397   1.787 -0.6352  1.2612  0.2793
  209ccc    C13 9437   9.111   4.511   1.695 -0.6171 -0.3299  0.3780
  209ccc    C14 9438   9.045   4.651   1.707  0.4819 -0.4793  0.0168
  209ccc    C15 9439   8.892   4.637   1.744 -0.1581  0.5949  0.2075
  209ccc    H18 9440   9.074   4.703   1.799 -2.9109 -0.6998  1.3444
  209ccc    H19 9441   9.071   4.455   1.609  2.3849 -1.6972 -0.2552
  209ccc    H20 9442   8.845   4.581   1.662 -1.0032  0.6935  0.6119
  209ccc     O1 9443   8.829   4.755   1.768  0.1217 -0.1643 -0.2788
  209ccc     O6 9444   9.244   4.526   1.688 -0.5066  0.0451  0.1994
  209ccc    C16 9445   8.907   4.359   1.996  0.2850 -0.0289 -1.0323
  209ccc    H21 9446   9.264   4.596   1.623 -0.3893 -1.0484 -0.9890
  209ccc    H22 9447   9.102   4.839   1.629  0.4269  0.0953 -0.6815
  209ccc    H23 9448   8.976   4.386   2.077 -1.0501  0.3387  0.0286
  209ccc    H24 9449   8.905   4.252   1.974  0.2992  0.0053 -1.1945
  209ccc     O7 9450   8.783   4.411   2.045 -0.3745  0.6066  0.1278
  209ccc    H25 9451   8.790   4.506   2.026  0.6793  1.3653  3.6021
  209ccc     O8 9452   8.888   4.573   1.871 -0.6592 -0.0251 -0.8253
  209ccc    H26 9453   8.802   4.751   1.862 -1.8710  0.2717 -0.7763
  209ccc    H27 9454   9.156   4.446   1.899  0.3938 -0.1740 -0.5195
  209ccc     O9 9455   9.095   4.284   1.778 -0.0606  0.2750  0.2828
  209ccc    H28 9456   9.191   4.269   1.771 -0.0304 -3.7634  4.6047
  209ccc     N3 9457   9.063   4.750   1.596  0.1744 -0.2938  0.6229
  209ccc    C17 9458   9.175   4.412   0.338 -0.5765  0.4745  1.1781
  209ccc    C18 9459   9.077   4.531   0.309  0.0408  0.7348 -0.0188
  209ccc    H29 9460   9.122   4.363   0.420  0.3587 -0.2295  1.3639
  209ccc    C19 9461   9.069   4.625   0.431  0.4671 -0.5911  0.3611
  209ccc    C20 9462   9.207   4.656   0.488  0.1628  0.1609 -0.2178
  209ccc    C21 9463   9.291   4.525   0.515 -0.0944  0.1005  0.2447
  209ccc    H30 9464   9.261   4.712   0.410  0.9523  0.3862  0.4735
  209ccc    H31 9465   9.011   4.560   0.497 -0.5589 -0.5703 -0.4908
  209ccc    H32 9466   9.246   4.470   0.598  0.1681  0.4532  0.6209
  209ccc    O10 9467   9.427   4.549   0.551  0.8427 -0.1677  0.2434
  209ccc    O11 9468   9.005   4.739   0.386 -0.0106 -0.8090 -0.3508
  209ccc    C22 9469   9.205   4.319   0.218 -0.9886  0.1776 -0.5030
  209ccc    H33 9470   8.916   4.720   0.351 -1.2445  3.9114 -0.4859
  209ccc    H34 9471   9.277   4.791   0.633  0.1592  1.3334 -1.2512
  209ccc    H35 9472   9.119   4.262   0.182  0.3591 -1.7374 -0.8713
  209ccc    H36 9473   9.279   4.251   0.263  0.5356  2.7390  1.1102
  209ccc    O12 9474   9.281   4.383   0.120  0.2840  0.0203 -0.8346
  209ccc    H37 9475   9.368   4.403   0.160 -0.9591  2.8903  0.6956
  209ccc    O13 9476   9.301   4.459   0.382 -0.4973  0.5990 -0.0726
  209ccc    H38 9477   9.405   4.574   0.643 -0.5089  0.8097 -0.3028
  209ccc    H39 9478   9.107   4.588   0.220 -1.4460  1.1913 -0.2655
  209ccc     O5 9479   8.951   4.472   0.275  0.1026 -0.0442 -0.0888
  209ccc    H40 9480   8.905   4.548   0.234  2.4826  1.4767 -0.0964
  209ccc     N4 9481   9.191   4.739   0.614  0.3835  0.5553 -0.2265
  209ccc    H41 9482   9.195   4.848   1.127 -0.4927 -4.2585  1.4851
  210ccc     N1 9483   7.743   6.130   2.872  0.2643  0.2391 -0.5746
  210ccc     H4 9484   7.811   6.191   2.829  0.9177 -0.0279  0.0703
  210ccc     C3 9485   7.770   6.000   2.923  0.2577 -0.0771 -0.1115
  210ccc     H5 9486   7.724   5.991   3.022  2.1066  0.7448  0.8841
  210ccc     C4 9487   7.917   5.968   2.930 -0.0125  0.2533  0.2762
  210ccc     H6 9488   7.719   5.926   2.861 -2.1322  1.0957  0.3536
  210ccc     H7 9489   7.957   6.027   2.847  2.2758  0.3477  1.3759
  210ccc     H8 9490   7.934   5.860   2.925 -1.1911 -0.0856  2.4186
  210ccc     N2 9491   7.990   6.021   3.051  0.3482  0.6840 -0.2702
  210ccc     C5 9492   8.140   5.999   3.036  0.3731 -0.1686  0.1051
  210ccc     C6 9493   7.939   5.950   3.178  0.6948 -0.3268 -0.0829
  210ccc     H9 9494   7.975   6.010   3.263 -0.4055  0.1779  0.0512
  210ccc     C7 9495   7.975   5.803   3.204  0.1737 -0.2316 -0.0874
  210ccc    H10 9496   7.831   5.968   3.188  1.0585  1.8947  0.5122
  210ccc    H11 9497   7.951   5.784   3.309  2.9994 -0.3502  0.5971
  210ccc    H12 9498   8.084   5.797   3.191  0.1017  0.6643 -1.3249
  210ccc     C8 9499   7.913   5.704   3.107 -0.1226 -0.7587  0.3537
  210ccc     O2 9500   7.801   5.712   3.070  0.2223  0.0187 -0.2716
  210ccc    H13 9501   8.164   5.893   3.024  3.1614  0.2683  0.9769
  210ccc    H14 9502   8.190   6.030   3.129  1.4289  0.0168 -0.5066
  210ccc     C9 9503   8.213   6.082   2.927 -0.6574 -0.1760  0.4636
  210ccc    H15 9504   8.174   6.184   2.911  0.1461 -0.1530 -1.7161
  210ccc    H16 9505   8.216   6.028   2.831  1.1279 -0.0642  0.4249
  210ccc    C10 9506   8.365   6.092   2.951 -0.3593 -0.5667 -1.2290
  210ccc     O4 9507   8.443   5.998   2.957  0.3446  0.7035 -0.2021
  210ccc    C11 9508   7.832   5.441   2.687 -0.6564 -0.2056  0.4842
  210ccc    C12 9509   7.959   5.525   2.677 -0.5051  0.2035 -0.5355
  210ccc    H17 9510   7.750   5.514   2.693 -0.9373 -0.4855  0.1268
  210ccc    C13 9511   7.980   5.614   2.802  0.1740  0.9689  0.3359
  210ccc    C14 9512   7.970   5.529   2.932 -0.4638  0.2124  0.3300
  210ccc    C15 9513   7.835   5.451   2.930  0.2204  0.3510 -0.8129
  210ccc    H18 9514   8.043   5.448   2.923 -0.8009  0.0054 -0.7014
  210ccc    H19 9515   7.897   5.685   2.801  0.4031  1.2378  0.3687
  210ccc    H20 9516   7.746   5.515   2.929 -0.9750 -1.0836 -4.2151
  210ccc     O1 9517   7.836   5.360   3.046  0.3089 -0.1040  0.3865
  210ccc     O6 9518   8.109   5.682   2.802 -0.6376  0.0982  0.0944
  210ccc    C16 9519   7.805   5.357   2.557  0.0281 -0.0946  0.0208
  210ccc    H21 9520   8.103   5.749   2.732  2.1285 -0.0485 -0.3852
  210ccc    H22 9521   8.094   5.604   3.078 -0.5477  1.3728 -0.2221
  210ccc    H23 9522   7.892   5.290   2.552  0.1786 -0.0496  1.5952
  210ccc    H24 9523   7.806   5.422   2.469  0.6508  0.4711  0.4426
  210ccc     O7 9524   7.680   5.295   2.563  0.1285  0.4836 -0.0003
  210ccc    H25 9525   7.664   5.273   2.469 -0.8252 -0.3728  0.3464
  210ccc     O8 9526   7.835   5.368   2.808 -0.1748  0.2232 -0.0391
  210ccc    H26 9527   7.926   5.326   3.059 -0.2254 -1.2950  1.0909
  210ccc    H27 9528   8.042   5.454   2.667 -0.8951 -0.0934 -1.7016
  210ccc     O9 9529   7.954   5.605   2.563 -0.1703 -0.1612  0.1608
  210ccc    H28 9530   7.865   5.643   2.570 -0.0131  0.2103  0.1792
  210ccc     N3 9531   7.995   5.607   3.057 -0.6675 -0.7172 -0.1946
  210ccc    C17 9532   8.433   6.563   3.194 -0.2245 -0.1768 -0.3452
  210ccc    C18 9533   8.385   6.587   3.045  0.1074 -0.1580  0.4853
  210ccc    H29 9534   8.541   6.542   3.183 -0.5959 -2.4301 -0.2458
  210ccc    C19 9535   8.420   6.463   2.956 -0.3442  0.0007 -0.5430
  210ccc    C20 9536   8.367   6.327   3.016  1.2987 -0.3342  0.3322
  210ccc    C21 9537   8.396   6.317   3.171 -0.2911  0.4847  0.1765
  210ccc    H30 9538   8.258   6.334   3.006  1.2867  0.7531  1.0449
  210ccc    H31 9539   8.529   6.449   2.954 -0.2665  0.4450  0.2374
  210ccc    H32 9540   8.503   6.293   3.177  0.1474  1.9959 -0.9488
  210ccc    O10 9541   8.303   6.231   3.228  0.4255 -0.3071  0.4683
  210ccc    O11 9542   8.359   6.483   2.830  0.1339 -0.2341  0.0678
  210ccc    C22 9543   8.408   6.670   3.301 -0.3299  0.0848  1.1518
  210ccc    H33 9544   8.407   6.443   2.756  0.3315 -1.6653  0.9252
  210ccc    H34 9545   8.522   6.210   2.969  0.0594 -1.7168 -0.0277
  210ccc    H35 9546   8.308   6.661   3.346 -0.6999 -3.2128 -0.0714
  210ccc    H36 9547   8.405   6.769   3.255  2.3773  0.5323  1.7501
  210ccc    O12 9548   8.512   6.670   3.404 -0.0207  0.0282  0.2095
  210ccc    H37 9549   8.467   6.621   3.475 -1.7573  0.2358 -0.6894
  210ccc    O13 9550   8.372   6.443   3.239  0.1508 -0.2049 -0.0569
  210ccc    H38 9551   8.321   6.233   3.324 -2.2958 -0.4934  1.0584
  210ccc    H39 9552   8.275   6.584   3.044  0.0755 -3.6155  0.8416
  210ccc     O5 9553   8.447   6.708   2.994 -0.2442  0.1971 -0.0569
  210ccc    H40 9554   8.443   6.691   2.899 -1.9889 -0.3969  0.0720
  210ccc     N4 9555   8.422   6.209   2.950 -0.1621  0.7136  0.7071
  210ccc    H41 9556   7.972   6.122   3.061 -1.3013  0.4096 -0.1655
  211ccc     N1 9557   7.238   6.843   2.441 -0.0610  0.1311  0.0174
  211ccc     H4 9558   7.262   6.793   2.356  1.5988  2.7542 -1.2140
  211ccc     C3 9559   7.252   6.986   2.448  0.5395  0.4569  0.2698
  211ccc     H5 9560   7.148   7.021   2.461 -0.6315 -2.8852  0.7226
  211ccc     C4 9561   7.314   7.043   2.317 -0.1493 -0.2233  0.3192
  211ccc     H6 9562   7.314   7.012   2.534 -0.3515  2.5513  0.3405
  211ccc     H7 9563   7.268   7.008   2.224 -0.7171  2.8171 -0.6659
  211ccc     H8 9564   7.421   7.015   2.312 -0.7960 -2.9225  0.0270
  211ccc     N2 9565   7.296   7.192   2.320 -0.3753 -0.4463  0.5458
  211ccc     C5 9566   7.148   7.238   2.305 -0.2727 -0.6217 -0.1969
  211ccc     C6 9567   7.389   7.255   2.211  0.5274  0.2525  0.1423
  211ccc     H9 9568   7.444   7.180   2.152 -2.8280 -1.4260 -1.1692
  211ccc     C7 9569   7.508   7.340   2.262  0.3806  0.7740 -0.6790
  211ccc    H10 9570   7.328   7.321   2.147 -2.4626 -0.8844  1.6301
  211ccc    H11 9571   7.556   7.380   2.172 -1.6084  0.9388 -1.7197
  211ccc    H12 9572   7.580   7.273   2.309 -0.4486  0.1612 -0.2539
  211ccc     C8 9573   7.468   7.450   2.349  0.4048 -0.4941 -0.0718
  211ccc     O2 9574   7.395   7.540   2.319 -0.4920  0.4865 -0.4195
  211ccc    H13 9575   7.093   7.194   2.388  0.3727 -0.7515  0.1661
  211ccc    H14 9576   7.112   7.206   2.206 -1.5158  2.2703 -0.7962
  211ccc     C9 9577   7.120   7.385   2.330  0.2366 -0.0118 -0.0437
  211ccc    H15 9578   7.171   7.445   2.254  0.2841  0.7765  0.5921
  211ccc    H16 9579   7.149   7.414   2.432 -0.8704 -0.2341  0.3513
  211ccc    C10 9580   6.971   7.426   2.311  0.5188 -0.4773  0.2594
  211ccc     O4 9581   6.885   7.370   2.245 -0.0456  0.4057 -0.6882
  211ccc    C11 9582   7.453   7.639   2.867 -0.8098 -0.8034  0.3396
  211ccc    C12 9583   7.527   7.719   2.751 -0.3137  0.3069 -0.7623
  211ccc    H17 9584   7.529   7.574   2.912 -0.5497 -1.7407 -1.3800
  211ccc    C13 9585   7.577   7.622   2.642  0.1904  0.4578 -0.1736
  211ccc    C14 9586   7.461   7.534   2.590 -0.6522  0.7445 -0.6348
  211ccc    C15 9587   7.390   7.467   2.703 -0.5802  0.2777 -0.2542
  211ccc    H18 9588   7.384   7.601   2.550 -0.1452  2.1038  0.5615
  211ccc    H19 9589   7.648   7.549   2.681 -1.5273 -1.7628 -1.0034
  211ccc    H20 9590   7.451   7.384   2.741  0.8834  0.7467 -1.4680
  211ccc     O1 9591   7.268   7.398   2.646 -0.0103 -0.5185  0.7280
  211ccc     O6 9592   7.636   7.694   2.536 -0.3841 -0.0135 -0.8412
  211ccc    C16 9593   7.381   7.738   2.972  0.4408  0.1925  0.7696
  211ccc    H21 9594   7.674   7.625   2.479 -1.0613 -0.4256 -0.8187
  211ccc    H22 9595   7.554   7.365   2.516  0.4371  0.9470 -0.0456
  211ccc    H23 9596   7.452   7.807   3.019  1.8195 -0.6940  0.0677
  211ccc    H24 9597   7.348   7.667   3.049 -0.5748 -1.0821 -0.7871
  211ccc     O7 9598   7.276   7.818   2.913  0.8780 -0.0018 -0.4125
  211ccc    H25 9599   7.241   7.874   2.984 -0.3994 -0.8042 -0.3680
  211ccc     O8 9600   7.351   7.556   2.808 -0.0921  0.4193 -0.9510
  211ccc    H26 9601   7.195   7.462   2.637  0.4281 -0.3255 -3.0134
  211ccc    H27 9602   7.449   7.782   2.705 -2.3108 -0.3386  1.4877
  211ccc     O9 9603   7.630   7.809   2.806  0.1900 -0.5315  0.9539
  211ccc    H28 9604   7.648   7.853   2.721  1.0687 -1.9574  0.3723
  211ccc     N3 9605   7.490   7.435   2.480 -0.8959 -0.2593 -0.0982
  211ccc    C17 9606   7.066   7.908   2.531  0.8222  0.0718 -0.6244
  211ccc    C18 9607   7.071   7.783   2.627  0.4887 -0.4559  0.4888
  211ccc    H29 9608   6.958   7.927   2.536  0.2226 -3.1244  1.5921
  211ccc    C19 9609   6.986   7.670   2.566 -0.1408 -0.3825 -0.4358
  211ccc    C20 9610   7.011   7.649   2.416 -0.0279  0.2842  0.1590
  211ccc    C21 9611   7.000   7.782   2.333 -0.7128  0.9431 -0.3182
  211ccc    H30 9612   7.117   7.622   2.411 -0.8712 -3.4482 -0.7338
  211ccc    H31 9613   6.880   7.693   2.581  0.0837  0.8732 -0.6040
  211ccc    H32 9614   6.897   7.821   2.335 -1.3537 -0.4706 -2.3912
  211ccc    O10 9615   7.046   7.769   2.205  0.4905 -0.1304  0.1542
  211ccc    O11 9616   7.018   7.557   2.642  0.2449  0.0188 -0.5977
  211ccc    C22 9617   7.141   8.031   2.578  0.0183  0.4824 -0.6701
  211ccc    H33 9618   6.969   7.556   2.726 -0.7378  3.0229 -1.0014
  211ccc    H34 9619   6.832   7.566   2.351  0.2278  1.3079 -1.4089
  211ccc    H35 9620   7.128   8.114   2.507  0.4954  1.0963 -0.0513
  211ccc    H36 9621   7.115   8.073   2.676  2.9561  1.9365 -0.4303
  211ccc    O12 9622   7.287   8.013   2.580 -0.3545 -0.3551 -0.6397
  211ccc    H37 9623   7.320   7.958   2.507  1.7004  0.2969 -0.2777
  211ccc    O13 9624   7.102   7.873   2.394 -0.2805 -0.3685  0.1722
  211ccc    H38 9625   7.123   7.827   2.197  1.1303 -1.0951 -1.1687
  211ccc    H39 9626   7.175   7.749   2.630  1.1586  1.3342 -0.9291
  211ccc     O5 9627   7.015   7.810   2.759  0.8431  0.1404 -0.2153
  211ccc    H40 9628   7.095   7.786   2.808  1.2264  0.6016 -0.6081
  211ccc     N4 9629   6.928   7.539   2.369 -0.3173  0.0164 -0.1714
  211ccc    H41 9630   7.333   7.223   2.411  0.1436  1.4150 -0.2424
  212ccc     N1 9631   7.621   6.364   1.319  0.0854  0.0352 -0.7127
  212ccc     H4 9632   7.681   6.333   1.394  2.5467  0.3511 -2.4508
  212ccc     C3 9633   7.629   6.504   1.283  0.6588 -0.1133  0.6484
  212ccc     H5 9634   7.532   6.540   1.245  0.7352 -2.0146 -1.5247
  212ccc     C4 9635   7.740   6.536   1.182  0.3807 -0.5770 -0.4853
  212ccc     H6 9636   7.652   6.550   1.380 -0.4149  0.2327  0.7580
  212ccc     H7 9637   7.839   6.523   1.228  0.9356  1.4506 -0.9976
  212ccc     H8 9638   7.735   6.640   1.149 -1.6154 -1.1520 -2.1949
  212ccc     N2 9639   7.737   6.444   1.056 -1.0113 -1.0587  0.3321
  212ccc     C5 9640   7.870   6.449   0.978 -0.6855 -0.4622  0.6903
  212ccc     C6 9641   7.617   6.492   0.968  0.4931 -0.5266 -0.1140
  212ccc     H9 9642   7.523   6.477   1.021 -0.0053 -0.6034 -1.0129
  212ccc     C7 9643   7.598   6.414   0.837 -0.2677  0.4081 -0.1218
  212ccc    H10 9644   7.624   6.599   0.943  1.2448 -0.4990  0.1585
  212ccc    H11 9645   7.688   6.428   0.776  0.5575  3.0438  1.5288
  212ccc    H12 9646   7.515   6.461   0.783  0.8877  1.4852 -1.0300
  212ccc     C8 9647   7.573   6.269   0.871  0.1313  0.7081  0.1921
  212ccc     O2 9648   7.643   6.195   0.944  0.4026  0.1009 -0.2503
  212ccc    H13 9649   7.890   6.554   0.957 -2.4749  0.5341  3.4082
  212ccc    H14 9650   7.865   6.396   0.882 -3.3301  0.5607  0.1741
  212ccc     C9 9651   7.994   6.385   1.052  0.2381 -0.3129 -0.1530
  212ccc    H15 9652   8.026   6.444   1.138 -1.2446  0.7093 -0.2611
  212ccc    H16 9653   8.078   6.400   0.983 -0.0188  2.3375  0.0337
  212ccc    C10 9654   7.981   6.239   1.101 -0.4703  0.0731  0.1533
  212ccc     O4 9655   7.871   6.190   1.110 -0.2504  0.5235  0.3581
  212ccc    C11 9656   7.434   5.802   0.891 -0.7570  0.1777 -0.5497
  212ccc    C12 9657   7.321   5.887   0.956  0.4236  0.0735  0.3146
  212ccc    H17 9658   7.529   5.814   0.944 -1.2337  0.0141  0.3543
  212ccc    C13 9659   7.359   6.036   0.946 -0.0116 -0.0469  0.6630
  212ccc    C14 9660   7.403   6.085   0.805 -1.3896  0.1105  0.0407
  212ccc    C15 9661   7.500   5.979   0.739 -0.5515  0.1534  0.0067
  212ccc    H18 9662   7.315   6.096   0.740 -1.1027  1.1815 -0.1778
  212ccc    H19 9663   7.452   6.042   1.003  0.1879 -1.4853  0.5181
  212ccc    H20 9664   7.599   5.999   0.782 -0.4542 -0.8863  0.2995
  212ccc     O1 9665   7.503   5.999   0.599 -0.5881  0.1940  0.6818
  212ccc     O6 9666   7.252   6.120   0.982  0.1571 -0.3664 -1.1175
  212ccc    C16 9667   7.406   5.648   0.901  0.1522 -0.2921 -0.1250
  212ccc    H21 9668   7.200   6.151   0.906 -2.6364  1.6533  1.3912
  212ccc    H22 9669   7.420   6.277   0.733  1.3481 -0.3164 -0.5290
  212ccc    H23 9670   7.317   5.634   0.839 -0.6896 -0.0501  0.9935
  212ccc    H24 9671   7.384   5.614   1.003 -0.1748 -0.9805 -0.4205
  212ccc     O7 9672   7.520   5.572   0.856 -0.6734  0.0465  0.6239
  212ccc    H25 9673   7.491   5.481   0.841 -1.5157  0.3397  0.3941
  212ccc     O8 9674   7.456   5.842   0.758 -0.2593 -0.1230  0.2781
  212ccc    H26 9675   7.531   5.915   0.557  1.0473  1.1314 -0.2155
  212ccc    H27 9676   7.225   5.883   0.903 -0.0208 -2.4372  1.1520
  212ccc     O9 9677   7.309   5.843   1.089 -0.2215  0.6162  0.3406
  212ccc    H28 9678   7.217   5.861   1.114 -1.0677 -1.7529 -0.7106
  212ccc     N3 9679   7.467   6.220   0.804 -0.2421 -0.4711  0.4422
  212ccc    C17 9680   8.497   6.255   1.259  0.7862 -0.3999 -0.1043
  212ccc    C18 9681   8.478   6.230   1.106 -0.0923 -0.2567  0.1459
  212ccc    H29 9682   8.502   6.154   1.301  1.7180 -0.8085 -1.1400
  212ccc    C19 9683   8.344   6.160   1.079 -0.4103  0.3012 -0.7852
  212ccc    C20 9684   8.229   6.239   1.147  0.3133  0.2084 -0.1707
  212ccc    C21 9685   8.260   6.271   1.293  0.5829 -0.2393  0.1118
  212ccc    H30 9686   8.231   6.337   1.098  1.6009 -0.3423 -1.2934
  212ccc    H31 9687   8.355   6.057   1.114  0.8942  0.4425 -0.7291
  212ccc    H32 9688   8.258   6.185   1.361  0.8820  0.6417  1.2679
  212ccc    O10 9689   8.174   6.366   1.352  0.2566 -0.3412  0.1299
  212ccc    O11 9690   8.316   6.153   0.936  0.0062 -0.5033  0.0619
  212ccc    C22 9691   8.620   6.334   1.297 -0.1171  0.6830  0.5837
  212ccc    H33 9692   8.400   6.159   0.888  0.1151 -0.3081  0.2771
  212ccc    H34 9693   8.090   6.075   1.156  0.0916  0.8348  1.2004
  212ccc    H35 9694   8.619   6.435   1.253  0.0065  0.6109  0.4118
  212ccc    H36 9695   8.707   6.277   1.262 -0.1056  1.8849 -1.5381
  212ccc    O12 9696   8.628   6.347   1.437 -0.3355 -0.0490 -0.3758
  212ccc    H37 9697   8.542   6.382   1.465  0.1904  0.5680  0.4920
  212ccc    O13 9698   8.384   6.333   1.299 -0.5126  0.4464  0.9839
  212ccc    H38 9699   8.194   6.375   1.446  1.1861  0.5391 -0.1400
  212ccc    H39 9700   8.482   6.325   1.052 -1.1760 -0.1923  0.1625
  212ccc     O5 9701   8.576   6.137   1.059 -0.2106 -0.2894  0.4736
  212ccc    H40 9702   8.664   6.176   1.046  0.1625 -1.3597 -0.3667
  212ccc     N4 9703   8.091   6.175   1.136  0.2302  0.6273  0.1376
  212ccc    H41 9704   7.723   6.344   1.079 -0.5509 -1.0643  0.6159
  213ccc     N1 9705   7.684   5.559   1.264 -0.1852  0.2542  0.7459
  213ccc     H4 9706   7.607   5.518   1.213  1.4115 -1.7708 -0.1757
  213ccc     C3 9707   7.798   5.463   1.283 -0.5346 -0.3751  0.1112
  213ccc     H5 9708   7.890   5.495   1.334  0.3581 -1.5215 -0.7122
  213ccc     C4 9709   7.847   5.426   1.146  0.3081  0.2933  0.4564
  213ccc     H6 9710   7.765   5.374   1.339  0.6591 -0.3172  0.9514
  213ccc     H7 9711   7.890   5.519   1.105 -1.6389  1.3557  0.6816
  213ccc     H8 9712   7.770   5.382   1.081  1.8474  1.3491 -2.2434
  213ccc     N2 9713   7.967   5.335   1.143  0.0150  0.1876 -0.2402
  213ccc     C5 9714   8.050   5.365   1.022  0.7964 -0.7586  0.6612
  213ccc     C6 9715   7.928   5.188   1.143 -0.2060 -0.0034  1.0627
  213ccc     H9 9716   7.870   5.166   1.234 -0.5837  0.0327  0.8341
  213ccc     C7 9717   8.039   5.089   1.124  0.9183 -0.1432 -0.1771
  213ccc    H10 9718   7.858   5.165   1.062 -0.9701  0.6751  1.5159
  213ccc    H11 9719   8.093   5.096   1.029  0.9617 -1.3000 -0.2488
  213ccc    H12 9720   7.990   4.991   1.114 -0.5245  0.5188  0.0884
  213ccc     C8 9721   8.147   5.096   1.230  0.6319 -0.4894 -0.4842
  213ccc     O2 9722   8.145   5.178   1.321 -0.6439  0.2351  0.5954
  213ccc    H13 9723   8.140   5.302   1.030  0.4043 -1.3917  0.1278
  213ccc    H14 9724   8.087   5.467   1.036  0.0384 -0.5253  0.9941
  213ccc     C9 9725   8.000   5.355   0.877 -0.4639  0.6249  0.4088
  213ccc    H15 9726   7.892   5.371   0.878 -0.5757 -0.0754  0.3974
  213ccc    H16 9727   8.022   5.250   0.850  0.6974  0.7314  0.8793
  213ccc    C10 9728   8.070   5.454   0.785 -0.0183 -0.0280 -0.1090
  213ccc     O4 9729   8.171   5.513   0.805  0.0720  0.3730 -0.1826
  213ccc    C11 9730   8.527   4.783   1.418 -0.7068  0.5285 -0.6468
  213ccc    C12 9731   8.580   4.916   1.377 -0.1555  0.0615 -0.5293
  213ccc    H17 9732   8.514   4.730   1.323  0.9056  1.8216 -1.6488
  213ccc    C13 9733   8.480   4.970   1.271 -0.4157 -0.9874 -0.2225
  213ccc    C14 9734   8.340   4.979   1.332  0.4187 -0.2519 -0.4035
  213ccc    C15 9735   8.298   4.845   1.400  0.3416 -0.1489  0.0634
  213ccc    H18 9736   8.345   5.054   1.412  3.3518 -1.2512  0.4713
  213ccc    H19 9737   8.481   4.899   1.187 -1.8461 -0.1515 -0.9869
  213ccc    H20 9738   8.283   4.769   1.323 -0.3788  1.8759 -1.9185
  213ccc     O1 9739   8.189   4.869   1.483 -0.1469 -0.4136  0.3891
  213ccc     O6 9740   8.524   5.099   1.232  0.3033  0.0625  0.3404
  213ccc    C16 9741   8.619   4.702   1.516 -0.4374 -0.0214 -0.0107
  213ccc    H21 9742   8.481   5.120   1.147 -2.2261 -2.0354  0.9815
  213ccc    H22 9743   8.234   4.925   1.165 -2.2907  0.1174 -0.1010
  213ccc    H23 9744   8.637   4.764   1.604  0.2343 -0.3650  0.0994
  213ccc    H24 9745   8.713   4.684   1.462 -0.9350 -0.7399 -0.6567
  213ccc     O7 9746   8.572   4.568   1.533  0.5161 -0.4334  0.1225
  213ccc    H25 9747   8.517   4.541   1.457 -0.0261  0.6383  0.1151
  213ccc     O8 9748   8.404   4.803   1.491 -0.0777 -0.2872  0.2177
  213ccc    H26 9749   8.176   4.788   1.535  0.4576 -0.3102  0.7149
  213ccc    H27 9750   8.591   4.970   1.472 -0.0060  0.2522 -0.6540
  213ccc     O9 9751   8.718   4.911   1.319  0.1262  0.9359 -0.7046
  213ccc    H28 9752   8.747   5.003   1.305  1.0338  0.7679 -0.0042
  213ccc     N3 9753   8.246   5.009   1.221 -0.1665 -0.3429  0.2040
  213ccc    C17 9754   7.673   5.623   0.472 -0.0390  0.1146  0.0921
  213ccc    C18 9755   7.743   5.489   0.416  0.1495 -0.0016  0.2550
  213ccc    H29 9756   7.721   5.709   0.422 -0.4533 -0.2794 -1.0132
  213ccc    C19 9757   7.879   5.459   0.469 -0.4826  0.5256  0.0924
  213ccc    C20 9758   7.881   5.477   0.622 -0.7546  0.1563 -0.2374
  213ccc    C21 9759   7.833   5.618   0.657 -0.0188 -0.2938 -0.7442
  213ccc    H30 9760   7.819   5.409   0.681 -1.8653  1.0389 -0.3538
  213ccc    H31 9761   7.957   5.525   0.430 -0.6472  1.7910  1.7880
  213ccc    H32 9762   7.896   5.699   0.620  1.3151 -1.1199 -0.3416
  213ccc    O10 9763   7.802   5.621   0.793  0.2234 -0.4114 -0.6171
  213ccc    O11 9764   7.909   5.330   0.443 -0.6462 -0.0115  0.2089
  213ccc    C22 9765   7.520   5.628   0.445 -0.4389  0.6024 -0.1729
  213ccc    H33 9766   7.994   5.333   0.395  2.2363 -1.0172  4.6496
  213ccc    H34 9767   8.079   5.521   0.593 -0.9457  0.7132 -0.0788
  213ccc    H35 9768   7.472   5.544   0.497  0.0989 -0.3126 -1.0913
  213ccc    H36 9769   7.518   5.616   0.336  1.0112  1.3591 -0.3049
  213ccc    O12 9770   7.471   5.757   0.480  1.0420 -0.6428 -0.1702
  213ccc    H37 9771   7.374   5.752   0.473  0.9498 -0.4273  0.7483
  213ccc    O13 9772   7.696   5.636   0.611  0.1423 -0.0232  0.0660
  213ccc    H38 9773   7.705   5.625   0.784  0.2282 -1.3883 -1.2952
  213ccc    H39 9774   7.678   5.406   0.444 -0.4004  0.3457  0.0228
  213ccc     O5 9775   7.749   5.499   0.282  0.3407 -0.0170  0.1929
  213ccc    H40 9776   7.774   5.413   0.245  0.7257  0.8614 -1.7256
  213ccc     N4 9777   8.025   5.468   0.661  0.0290  0.0445  0.2045
  213ccc    H41 9778   8.022   5.363   1.226  0.5688  1.4077 -0.9850
  214ccc     N1 9779   6.226   4.746  -0.123 -0.4550  0.2283 -0.2209
  214ccc     H4 9780   6.312   4.700  -0.092 -0.5360  1.1141  1.4336
  214ccc     C3 9781   6.137   4.675  -0.218  0.3765  0.0846  0.6082
  214ccc     H5 9782   6.036   4.702  -0.184 -0.7719 -2.3851 -0.5742
  214ccc     C4 9783   6.146   4.520  -0.234 -0.9230  0.0358  0.7862
  214ccc     H6 9784   6.150   4.720  -0.318 -0.5301 -0.8925  0.0284
  214ccc     H7 9785   6.240   4.500  -0.288 -0.6044  1.8623  0.6244
  214ccc     H8 9786   6.062   4.484  -0.295 -1.6071  1.5756  0.7922
  214ccc     N2 9787   6.162   4.447  -0.106  0.5874 -0.2769 -0.1632
  214ccc     C5 9788   6.213   4.306  -0.124  0.4325  0.7661  0.1146
  214ccc     C6 9789   6.027   4.454  -0.032  0.0850  0.4107 -0.7430
  214ccc     H9 9790   6.008   4.560  -0.012  2.2723  0.5527  0.9983
  214ccc     C7 9791   6.028   4.372   0.100 -0.1150  0.1104  0.3484
  214ccc    H10 9792   5.942   4.424  -0.095 -0.4050  0.5925 -0.1716
  214ccc    H11 9793   6.129   4.380   0.142 -0.0631  1.1798  0.0497
  214ccc    H12 9794   6.005   4.270   0.067  2.2039 -0.2168 -0.4180
  214ccc     C8 9795   5.928   4.415   0.204  0.3881  0.2070 -0.8403
  214ccc     O2 9796   5.873   4.522   0.208  0.1187  0.0485 -0.0888
  214ccc    H13 9797   6.226   4.264  -0.024 -0.1153  0.5355  0.0939
  214ccc    H14 9798   6.303   4.321  -0.184  1.6345  1.0230  1.9166
  214ccc     C9 9799   6.123   4.207  -0.212 -0.2011 -0.1246 -0.0346
  214ccc    H15 9800   6.092   4.256  -0.305  0.6707 -1.7600 -1.2517
  214ccc    H16 9801   6.038   4.174  -0.152  0.0692 -0.9399 -0.0832
  214ccc    C10 9802   6.196   4.078  -0.241 -0.2468 -0.8860  0.1468
  214ccc     O4 9803   6.322   4.071  -0.229 -0.5463 -0.2475 -0.7088
  214ccc    C11 9804   5.800   4.305   0.817 -0.5370 -0.1763  0.4623
  214ccc    C12 9805   5.840   4.492   0.723  0.2503 -0.2199 -0.2126
  214ccc    H17 9806   5.900   4.292   0.859  0.0673  0.7590 -0.6292
  214ccc    C13 9807   5.850   4.506   0.517 -0.0660 -0.2626 -0.3514
  214ccc    C14 9808   5.806   4.331   0.403 -0.1870 -0.0892  0.8214
  214ccc    C15 9809   5.761   4.151   0.505 -0.3236  0.7627  0.0800
  214ccc    H18 9810   5.714   4.357   0.349  0.7875  1.0166 -0.3739
  214ccc    H19 9811   5.952   4.531   0.488 -0.4120  0.6240 -0.8235
  214ccc    H20 9812   5.824   4.065   0.480 -3.2306 -0.6784 -3.1855
  214ccc     O1 9813   5.636   4.095   0.461  0.2728 -0.4735 -0.6576
  214ccc     O6 9814   5.779   4.620   0.475 -0.5012  0.2346 -0.3160
  214ccc    C16 9815   5.720   4.294   0.953  0.2110 -0.3515 -0.6896
  214ccc    H21 9816   5.685   4.605   0.455 -0.8999 -1.8996  2.5244
  214ccc    H22 9817   5.929   4.221   0.281 -0.0887  0.2032 -1.0413
  214ccc    H23 9818   5.801   4.283   1.025 -0.5537 -0.6120  0.1402
  214ccc    H24 9819   5.660   4.203   0.965  0.8029 -0.6172  0.3747
  214ccc     O7 9820   5.640   4.411   0.977  0.1053 -0.1699 -0.0320
  214ccc    H25 9821   5.602   4.407   1.067 -0.3601 -0.9939 -0.2601
  214ccc     O8 9822   5.767   4.145   0.700  0.2972 -0.0334 -0.2176
  214ccc    H26 9823   5.632   4.000   0.480 -0.9668 -0.3795 -0.3231
  214ccc    H27 9824   5.750   4.549   0.749 -0.3813 -0.5871 -1.5097
  214ccc     O9 9825   5.954   4.559   0.782 -0.4702  0.6379 -0.2259
  214ccc    H28 9826   6.019   4.490   0.806 -1.0712  0.6444  1.4962
  214ccc     N3 9827   5.889   4.315   0.284 -0.3684  0.0584  0.2447
  214ccc    C17 9828   5.936   3.840  -0.636  0.1732 -0.0545 -0.6437
  214ccc    C18 9829   5.845   3.843  -0.506  0.0638  0.0671  1.0193
  214ccc    H29 9830   5.992   3.745  -0.637 -0.5277 -0.7126 -5.6238
  214ccc    C19 9831   5.933   3.856  -0.386  0.2282  1.3831 -0.2580
  214ccc    C20 9832   6.035   3.971  -0.396 -0.3269  0.2848  0.2768
  214ccc    C21 9833   6.111   3.982  -0.529  0.7526  0.1707  0.3618
  214ccc    H30 9834   5.979   4.065  -0.387  0.1327  0.6158 -0.2610
  214ccc    H31 9835   5.991   3.763  -0.379  0.2113  1.3059 -1.0648
  214ccc    H32 9836   6.158   4.080  -0.542 -0.1676  0.5923  0.1379
  214ccc    O10 9837   6.216   3.892  -0.540 -0.1279  0.8627 -0.1981
  214ccc    O11 9838   5.858   3.870  -0.266  0.2114 -0.2459 -0.3172
  214ccc    C22 9839   5.841   3.845  -0.761  0.1697  0.9720 -0.6611
  214ccc    H33 9840   5.817   3.782  -0.256  2.4631 -1.4293 -0.9338
  214ccc    H34 9841   6.178   3.882  -0.291 -1.1451 -1.0138 -1.1132
  214ccc    H35 9842   5.755   3.778  -0.758  0.6353  0.2552 -2.2263
  214ccc    H36 9843   5.901   3.825  -0.851  2.7818 -0.0023  1.1701
  214ccc    O12 9844   5.793   3.975  -0.770  0.1200  0.5412 -0.0193
  214ccc    H37 9845   5.836   4.024  -0.697  0.2304 -1.2231  1.1748
  214ccc    O13 9846   6.019   3.961  -0.635  0.4801  0.2599 -0.0437
  214ccc    H38 9847   6.299   3.938  -0.517  0.0100  1.0938 -1.0981
  214ccc    H39 9848   5.774   3.926  -0.508  1.2655  1.1219 -0.2153
  214ccc     O5 9849   5.764   3.720  -0.507 -0.6303 -0.0713 -0.1761
  214ccc    H40 9850   5.735   3.722  -0.414  0.5710 -0.9339  0.2430
  214ccc     N4 9851   6.125   3.968  -0.281  0.6266  0.0664 -0.5409
  214ccc    H41 9852   6.235   4.491  -0.047  0.7302 -2.4610  1.4383
  215ccc     N1 9853   5.993   5.419  -0.253 -0.2725 -0.3970  0.0731
  215ccc     H4 9854   6.061   5.479  -0.298  0.2820 -0.5797  0.6449
  215ccc     C3 9855   5.849   5.448  -0.260 -0.1004 -0.0048 -0.2129
  215ccc     H5 9856   5.806   5.347  -0.272 -0.7655  0.1306  0.8822
  215ccc     C4 9857   5.811   5.555  -0.371 -0.3175 -0.1574 -0.2099
  215ccc     H6 9858   5.804   5.482  -0.166  2.7841 -0.7023  1.5162
  215ccc     H7 9859   5.702   5.562  -0.379 -0.6480 -2.3331  1.4968
  215ccc     H8 9860   5.850   5.511  -0.463 -0.3003 -1.1091  0.2389
  215ccc     N2 9861   5.853   5.700  -0.355 -0.4712 -0.3283 -0.0876
  215ccc     C5 9862   5.814   5.751  -0.221 -0.2468 -0.5374 -0.0424
  215ccc     C6 9863   5.795   5.796  -0.466 -0.3139 -0.7931 -0.4351
  215ccc     H9 9864   5.687   5.806  -0.455 -0.0329  0.6733  1.6885
  215ccc     C7 9865   5.833   5.751  -0.605 -0.7205  0.3920 -0.3238
  215ccc    H10 9866   5.833   5.898  -0.448  0.7085 -1.3928  1.1094
  215ccc    H11 9867   5.802   5.823  -0.682 -0.8818  2.7362  1.8010
  215ccc    H12 9868   5.784   5.655  -0.627 -0.4841  0.2357 -0.1733
  215ccc     C8 9869   5.983   5.729  -0.625 -0.2048 -0.0468  0.0954
  215ccc     O2 9870   6.068   5.813  -0.610 -0.1600  0.2644  0.8735
  215ccc    H13 9871   5.851   5.854  -0.218 -2.1093  0.2895 -2.4309
  215ccc    H14 9872   5.868   5.699  -0.141  0.3761  0.4228  0.1869
  215ccc     C9 9873   5.664   5.754  -0.185 -1.0110  0.1324  0.3304
  215ccc    H15 9874   5.643   5.648  -0.164  0.5826 -0.1921  0.4437
  215ccc    H16 9875   5.606   5.790  -0.270  0.7792  0.7965 -0.6642
  215ccc    C10 9876   5.626   5.833  -0.054 -0.2916  0.1693  0.9455
  215ccc     O4 9877   5.712   5.870   0.027 -0.6412 -0.8231 -1.0675
  215ccc    C11 9878   6.341   5.385  -0.846  0.0669 -0.4697  0.2664
  215ccc    C12 9879   6.283   5.497  -0.929  0.4081 -0.8470  0.7415
  215ccc    H17 9880   6.287   5.291  -0.862 -0.2148 -0.3405  0.4443
  215ccc    C13 9881   6.147   5.551  -0.871  0.1206 -0.3156  0.1360
  215ccc    C14 9882   6.153   5.566  -0.711  0.1329 -0.5868 -0.6599
  215ccc    C15 9883   6.202   5.440  -0.653  0.5980  0.3463 -0.0200
  215ccc    H18 9884   6.224   5.645  -0.685  0.1101 -0.5966 -0.5687
  215ccc    H19 9885   6.071   5.477  -0.898  2.5075 -2.8651 -0.0517
  215ccc    H20 9886   6.128   5.359  -0.661 -0.0592  1.0680 -1.8481
  215ccc     O1 9887   6.226   5.455  -0.520  0.0495  0.5104 -0.4934
  215ccc     O6 9888   6.122   5.684  -0.918 -0.1356  0.4258  0.2145
  215ccc    C16 9889   6.496   5.363  -0.882  0.5737  0.2740 -0.2823
  215ccc    H21 9890   6.187   5.741  -0.874  0.0215  0.9486 -0.6701
  215ccc    H22 9891   5.951   5.535  -0.681  0.4514 -0.8540 -1.2682
  215ccc    H23 9892   6.558   5.431  -0.823  1.3499 -0.3308 -0.3783
  215ccc    H24 9893   6.505   5.387  -0.988  0.5530  0.7172 -0.1832
  215ccc     O7 9894   6.532   5.222  -0.848 -0.0886 -0.0655 -0.3551
  215ccc    H25 9895   6.628   5.224  -0.864 -0.0269  1.5984  0.0700
  215ccc     O8 9896   6.329   5.411  -0.707  0.0205  0.2910 -0.2807
  215ccc    H26 9897   6.318   5.487  -0.514 -0.5054  2.3290 -1.0226
  215ccc    H27 9898   6.358   5.576  -0.945 -1.6513  1.1145  0.0885
  215ccc     O9 9899   6.250   5.444  -1.058 -0.0911  0.1338 -0.6521
  215ccc    H28 9900   6.239   5.518  -1.120 -1.5424  1.8118  1.4630
  215ccc     N3 9901   6.021   5.601  -0.648 -0.3747 -0.4327 -0.2862
  215ccc    C17 9902   5.195   5.975   0.248  0.7814 -0.1413 -0.2438
  215ccc    C18 9903   5.283   5.863   0.284 -0.2691 -0.3688 -0.4314
  215ccc    H29 9904   5.108   5.932   0.196 -0.0755 -1.8457  2.4033
  215ccc    C19 9905   5.365   5.809   0.171 -1.2743 -0.5538 -0.1471
  215ccc    C20 9906   5.439   5.918   0.088  0.0510 -0.0098 -0.0590
  215ccc    C21 9907   5.332   6.027   0.051 -0.6757  0.0863  0.7398
  215ccc    H30 9908   5.505   5.975   0.155 -0.4296  0.1198  0.3144
  215ccc    H31 9909   5.295   5.761   0.101 -0.5334 -0.4543 -0.9792
  215ccc    H32 9910   5.251   5.986  -0.012 -0.6682 -0.9745  1.3830
  215ccc    O10 9911   5.396   6.137  -0.016  0.1423  0.1601  0.6186
  215ccc    O11 9912   5.445   5.706   0.231  0.1594  0.4150 -0.0929
  215ccc    C22 9913   5.125   6.035   0.376 -0.2902 -0.2434  0.8786
  215ccc    H33 9914   5.498   5.672   0.156  1.4867 -0.3393  1.1458
  215ccc    H34 9915   5.429   5.811  -0.091  0.1298  1.0642 -0.1764
  215ccc    H35 9916   5.197   6.104   0.421  1.1718 -0.3316 -1.1879
  215ccc    H36 9917   5.098   5.956   0.447 -1.5612 -0.2309  0.4429
  215ccc    O12 9918   5.004   6.111   0.337  0.2365 -0.0902 -0.1841
  215ccc    H37 9919   5.039   6.187   0.286 -1.3554  3.3032  3.2976
  215ccc    O13 9920   5.266   6.075   0.170  0.4077 -0.0319  0.4897
  215ccc    H38 9921   5.337   6.212   0.003 -0.0443  0.4106 -0.7892
  215ccc    H39 9922   5.344   5.898   0.368 -1.2720  0.4189 -0.0096
  215ccc     O5 9923   5.208   5.756   0.335 -0.6178  0.5771 -0.3099
  215ccc    H40 9924   5.275   5.699   0.374 -1.0247  0.3889  0.1231
  215ccc     N4 9925   5.497   5.849  -0.025  0.6437 -0.3407  0.1505
  215ccc    H41 9926   5.956   5.704  -0.357 -0.4647 -0.5024 -1.5734
  216ccc     N1 9927   5.242   4.204   0.264 -0.0708  0.2655 -0.3925
  216ccc     H4 9928   5.330   4.235   0.224  0.2448 -0.3388 -0.1715
  216ccc     C3 9929   5.178   4.095   0.199  0.5510  0.4003 -0.3148
  216ccc     H5 9930   5.152   4.021   0.275  1.3903  0.8634  0.4351
  216ccc     C4 9931   5.253   4.043   0.074  0.6124  0.3024 -0.2316
  216ccc     H6 9932   5.082   4.127   0.155  1.4176 -0.6401 -3.2189
  216ccc     H7 9933   5.256   4.115  -0.008 -0.7624  1.0486  0.3366
  216ccc     H8 9934   5.205   3.953   0.033  0.9162  0.4396 -0.9030
  216ccc     N2 9935   5.404   3.989   0.092  0.0295  0.1616 -0.2379
  216ccc     C5 9936   5.457   3.916  -0.029  0.1910  0.3309  0.6019
  216ccc     C6 9937   5.417   3.898   0.221 -0.0736 -0.3326 -0.2615
  216ccc     H9 9938   5.523   3.871   0.235  0.1134  0.8610  0.8723
  216ccc     C7 9939   5.323   3.769   0.223 -0.1518  0.5685 -0.4820
  216ccc    H10 9940   5.402   3.959   0.312 -1.0439 -0.4269 -0.3500
  216ccc    H11 9941   5.332   3.695   0.142  0.1910  0.6350 -0.5089
  216ccc    H12 9942   5.218   3.799   0.232 -0.0280  0.9605 -0.3022
  216ccc     C8 9943   5.336   3.683   0.345 -0.2333  0.8001 -0.8259
  216ccc     O2 9944   5.315   3.728   0.453  0.0626  0.7790  0.1364
  216ccc    H13 9945   5.398   3.825  -0.042 -0.1107  0.9219 -3.2753
  216ccc    H14 9946   5.560   3.890   0.001  0.3342 -2.2828 -1.7937
  216ccc     C9 9947   5.446   3.995  -0.166 -0.7912  0.3176  0.2356
  216ccc    H15 9948   5.515   4.079  -0.153 -0.2639 -0.2238  1.0775
  216ccc    H16 9949   5.348   4.042  -0.177  0.0653  1.9709 -0.7019
  216ccc    C10 9950   5.492   3.916  -0.295 -0.3645  0.1405 -1.0172
  216ccc     O4 9951   5.565   3.817  -0.286  0.7371  0.1273  0.0952
  216ccc    C11 9952   5.308   3.300   0.672  0.4792  0.6598  0.6561
  216ccc    C12 9953   5.188   3.311   0.574  0.0226  0.0157  0.2823
  216ccc    H17 9954   5.308   3.377   0.751  1.7494 -1.3761  2.8052
  216ccc    C13 9955   5.208   3.435   0.478 -0.6627  0.3356 -0.0682
  216ccc    C14 9956   5.351   3.443   0.415 -0.0500 -0.0092  0.3586
  216ccc    C15 9957   5.455   3.425   0.527 -0.4451 -0.5848 -0.2433
  216ccc    H18 9958   5.370   3.356   0.351  3.4624  0.3518  0.7225
  216ccc    H19 9959   5.192   3.529   0.531  2.1686  1.3818 -0.8685
  216ccc    H20 9960   5.440   3.496   0.610 -1.0437 -1.4047  0.3597
  216ccc     O1 9961   5.588   3.416   0.477  0.6731 -0.9179 -0.6706
  216ccc     O6 9962   5.116   3.418   0.369 -0.1980 -0.1056 -0.4511
  216ccc    C16 9963   5.309   3.173   0.745 -0.1193  0.0910  0.6002
  216ccc    H21 9964   5.114   3.510   0.338 -2.0030  0.1484  0.2392
  216ccc    H22 9965   5.339   3.529   0.228  0.7289 -0.4776  0.1365
  216ccc    H23 9966   5.219   3.176   0.807 -1.3630  1.0126 -1.1508
  216ccc    H24 9967   5.394   3.195   0.811  1.4500 -2.8132 -0.2902
  216ccc     O7 9968   5.322   3.044   0.673 -0.0656  0.4051  0.1665
  216ccc    H25 9969   5.402   3.047   0.618  1.2411  0.0778  1.9577
  216ccc     O8 9970   5.433   3.302   0.599  0.5557 -0.3551 -0.1513
  216ccc    H26 9971   5.635   3.458   0.552 -2.0573  0.1005  0.5935
  216ccc    H27 9972   5.170   3.219   0.517 -0.9786  0.4479 -0.1205
  216ccc     O9 9973   5.060   3.331   0.644  0.1277  0.0877 -0.0556
  216ccc    H28 9974   4.993   3.340   0.575  0.2285 -2.3864 -0.5701
  216ccc     N3 9975   5.367   3.561   0.321  0.2973  0.6582 -0.1038
  216ccc    C17 9976   5.376   3.766  -0.799 -0.0170 -0.0531  0.2133
  216ccc    C18 9977   5.447   3.901  -0.796 -0.1797 -0.3370 -0.3255
  216ccc    H29 9978   5.268   3.781  -0.791 -0.1345 -1.4606  1.5583
  216ccc    C19 9979   5.433   3.981  -0.664  0.0950 -0.5081  0.5633
  216ccc    C20 9980   5.474   3.893  -0.544  1.1290  0.0356  0.0895
  216ccc    C21 9981   5.395   3.754  -0.562 -0.1130 -0.7664  0.2095
  216ccc    H30 9982   5.581   3.872  -0.554  0.9970 -0.2811 -0.7299
  216ccc    H31 9983   5.326   4.008  -0.659 -0.1297 -1.4723  1.3413
  216ccc    H32 9984   5.289   3.771  -0.539  0.0904  2.3505 -0.7806
  216ccc    O10 9985   5.434   3.657  -0.471  0.5856  0.2092  0.4049
  216ccc    O11 9986   5.518   4.093  -0.658 -0.0059  0.3779  1.0627
  216ccc    C22 9987   5.406   3.700  -0.935 -0.5163 -0.5947  0.4548
  216ccc    H33 9988   5.519   4.125  -0.750  0.3852  0.9179  1.2568
  216ccc    H34 9989   5.387   4.037  -0.411  1.4095  0.2505 -0.1501
  216ccc    H35 9990   5.385   3.771  -1.016 -0.2558  1.0552  1.8072
  216ccc    H36 9991   5.341   3.613  -0.952 -1.3201  0.3869 -2.0350
  216ccc    O12 9992   5.541   3.650  -0.953 -0.0050  0.6365 -0.9755
  216ccc    H37 9993   5.579   3.612  -0.872  1.5474 -1.7770 -2.7075
  216ccc    O13 9994   5.421   3.688  -0.686 -0.2522 -0.9939 -0.0475
  216ccc    H38 9995   5.476   3.709  -0.400 -1.3181  1.2062  0.8574
  216ccc    H39 9996   5.553   3.875  -0.807  0.1170 -1.0416  3.1095
  216ccc     O5 9997   5.394   3.980  -0.902  0.0380 -0.0202 -0.1932
  216ccc    H40 9998   5.460   4.046  -0.929 -0.7063  0.3776 -1.0904
  216ccc     N4 9999   5.448   3.956  -0.411  0.5776 -0.3846  0.0811
  216ccc    H4110000   5.462   4.073   0.101  0.8565 -0.5355  1.4581
  217ccc     N110001   5.899   4.299   0.611 -0.0730 -0.1573 -0.1361
  217ccc     H410002   5.913   4.232   0.687 -1.1731 -0.7677 -0.4483
  217ccc     C310003   6.040   4.321   0.577  0.7095  0.0358 -0.0127
  217ccc     H510004   6.046   4.354   0.472  0.7043  1.2663  0.3633
  217ccc     C410005   6.122   4.190   0.604 -0.7088 -0.3040 -0.0652
  217ccc     H610006   6.084   4.408   0.626 -1.8705  1.2804  0.2792
  217ccc     H710007   6.086   4.115   0.534  0.5497 -1.2810  0.2851
  217ccc     H810008   6.096   4.158   0.706  0.8565  0.7428  0.7021
  217ccc     N210009   6.272   4.186   0.597 -0.1969 -0.1723 -0.4995
  217ccc     C510010   6.323   4.039   0.618 -0.1873  0.4645 -0.2117
  217ccc     C610011   6.339   4.267   0.711  0.3398 -1.1000  0.4956
  217ccc     H910012   6.285   4.362   0.701 -0.3729 -1.5395  0.0818
  217ccc     C710013   6.488   4.312   0.689  0.1768 -0.1912  0.4815
  217ccc    H1010014   6.314   4.221   0.807 -0.7985  0.4688  1.0047
  217ccc    H1110015   6.490   4.352   0.587 -0.3872  2.6811  1.4894
  217ccc    H1210016   6.555   4.226   0.695 -0.3668 -0.7894 -1.3910
  217ccc     C810017   6.534   4.422   0.786 -0.0788 -0.5269  0.1308
  217ccc     O210018   6.484   4.468   0.886 -0.3016  0.4201  0.3534
  217ccc    H1310019   6.295   4.004   0.718 -2.3419  0.4714 -0.7471
  217ccc    H1410020   6.432   4.029   0.619 -0.1781  0.4873 -0.8405
  217ccc     C910021   6.273   3.938   0.512  0.5870  0.4107 -0.1477
  217ccc    H1510022   6.300   3.966   0.410  1.3726  0.4358  0.0648
  217ccc    H1610023   6.164   3.926   0.508  0.6740 -0.4460 -0.2124
  217ccc    C1010024   6.323   3.800   0.560  0.4834  0.0468  0.2403
  217ccc     O410025   6.411   3.740   0.506 -0.2372  0.3528  0.2774
  217ccc    C1110026   6.886   4.623   1.089 -0.4184  0.2785 -0.3163
  217ccc    C1210027   6.930   4.489   1.019  0.4711 -0.1543 -0.5445
  217ccc    H1710028   6.809   4.600   1.163 -1.8125 -2.3544 -2.4348
  217ccc    C1310029   6.811   4.424   0.934 -0.8523  0.2891  0.2432
  217ccc    C1410030   6.754   4.529   0.840 -0.0387  0.4557 -0.1967
  217ccc    C1510031   6.717   4.660   0.923 -0.2853  1.5745 -0.9252
  217ccc    H1810032   6.834   4.562   0.773  0.6462  1.3642  1.0395
  217ccc    H1910033   6.737   4.398   1.011  0.9073 -0.6021  1.7150
  217ccc    H2010034   6.639   4.633   0.995  1.6240  0.6288  0.8955
  217ccc     O110035   6.671   4.754   0.829  0.3131 -0.5966 -0.2786
  217ccc     O610036   6.843   4.305   0.857 -0.6757 -0.2747  0.0855
  217ccc    C1610037   7.008   4.698   1.156  1.0089  0.0146 -0.2020
  217ccc    H2110038   6.902   4.340   0.788 -0.7008  0.2164  0.3054
  217ccc    H2210039   6.686   4.423   0.666 -0.3478  1.6517 -1.2443
  217ccc    H2310040   7.065   4.748   1.077  1.9222  0.1500  0.5249
  217ccc    H2410041   7.062   4.623   1.215  1.3183 -0.6918 -1.3585
  217ccc     O710042   6.961   4.795   1.248 -0.0026 -0.2102  0.2375
  217ccc    H2510043   7.039   4.818   1.302  0.3222  1.4546 -0.8560
  217ccc     O810044   6.832   4.711   0.988 -0.4167 -0.5740 -0.1135
  217ccc    H2610045   6.747   4.770   0.771 -1.0910 -0.2332 -2.0920
  217ccc    H2710046   7.011   4.505   0.947 -0.3118 -0.7414 -1.5921
  217ccc     O910047   6.964   4.392   1.121 -0.6387  0.2922  0.7603
  217ccc    H2810048   6.955   4.307   1.074 -0.1463  0.4828  0.3082
  217ccc     N310049   6.647   4.474   0.745 -0.4166 -0.3547  0.1134
  217ccc    C1710050   6.466   3.395   0.826 -0.4856  0.4749 -1.0620
  217ccc    C1810051   6.509   3.532   0.890 -0.0153  0.5331  0.2943
  217ccc    H2910052   6.535   3.373   0.744  1.4307 -1.2364  0.9219
  217ccc    C1910053   6.462   3.652   0.798  0.6692 -0.7317  0.1968
  217ccc    C2010054   6.310   3.636   0.756  0.9116  0.1839 -0.2580
  217ccc    C2110055   6.297   3.497   0.683  0.1829  0.2411 -0.8020
  217ccc    H3010056   6.243   3.637   0.843  0.4235  1.6088 -0.6139
  217ccc    H3110057   6.511   3.649   0.700 -0.8843 -0.0073 -0.6535
  217ccc    H3210058   6.357   3.486   0.592  2.4126 -0.1778  0.6448
  217ccc    O1010059   6.157   3.470   0.658  0.1528  0.0216  0.2012
  217ccc    O1110060   6.477   3.775   0.866 -0.2999  0.0016  0.0913
  217ccc    C2210061   6.487   3.281   0.920  0.1142  0.1784 -0.2797
  217ccc    H3310062   6.528   3.836   0.809  1.7878 -2.2325 -0.5950
  217ccc    H3410063   6.181   3.796   0.706  0.5020 -0.3878  2.1950
  217ccc    H3510064   6.473   3.183   0.874 -0.5445 -0.8964  2.0393
  217ccc    H3610065   6.594   3.295   0.940 -0.0184  1.2160 -0.2684
  217ccc    O1210066   6.409   3.287   1.044 -0.3423  0.8659 -0.2182
  217ccc    H3710067   6.469   3.257   1.115  0.2077  2.5513  0.0940
  217ccc    O1310068   6.333   3.393   0.778  0.5941 -0.0069  0.3173
  217ccc    H3810069   6.142   3.537   0.589  1.7449 -0.0161 -0.2093
  217ccc    H3910070   6.452   3.537   0.984 -0.4024  0.6591  0.0559
  217ccc     O510071   6.648   3.538   0.914 -0.2732  0.2461  0.4660
  217ccc    H4010072   6.695   3.500   0.837 -0.8459  1.0530 -0.3087
  217ccc     N410073   6.262   3.746   0.670 -0.4598 -0.4323 -0.0492
  217ccc    H4110074   6.295   4.224   0.504 -0.7482 -0.2948 -0.6877
  218ccc     N110075   7.809   6.069   0.314  0.4305  0.2272  0.5884
  218ccc     H410076   7.789   6.064   0.413 -2.2803  0.1211  0.0986
  218ccc     C310077   7.935   6.133   0.268 -0.4296  0.6939 -0.1663
  218ccc     H510078   8.006   6.063   0.221  0.5750  0.6243  1.4038
  218ccc     C410079   8.006   6.193   0.391 -0.3430  0.0700 -0.1115
  218ccc     H610080   7.918   6.207   0.189 -2.3594  0.0174 -0.4241
  218ccc     H710081   7.929   6.243   0.451  0.6209  0.4330  0.8572
  218ccc     H810082   8.085   6.260   0.354  1.8744 -2.8113 -0.9968
  218ccc     N210083   8.072   6.086   0.475 -0.3437 -0.6020  0.0827
  218ccc     C510084   8.101   6.125   0.617 -0.2505 -0.5207  0.4412
  218ccc     C610085   8.206   6.046   0.408  0.0074  0.0374  0.2147
  218ccc     H910086   8.196   6.061   0.300 -1.2026 -2.8802 -0.1526
  218ccc     C710087   8.240   5.897   0.428 -0.2480 -0.0459 -0.1622
  218ccc    H1010088   8.288   6.111   0.442  0.0781 -0.2712  0.6339
  218ccc    H1110089   8.254   5.863   0.531 -3.5008 -2.2178 -0.2822
  218ccc    H1210090   8.333   5.873   0.375  0.6092 -0.1653  1.3531
  218ccc     C810091   8.130   5.806   0.381 -0.2999  0.4076  0.0177
  218ccc     O210092   8.014   5.794   0.427  0.4761  0.2782  0.1326
  218ccc    H1310093   8.143   6.226   0.610 -1.0830 -0.2072 -0.2806
  218ccc    H1410094   8.167   6.048   0.659 -1.5748 -1.5143  0.8050
  218ccc     C910095   7.972   6.112   0.711 -0.5014  0.1131  0.7529
  218ccc    H1510096   7.899   6.189   0.682  1.4800  1.5782 -0.6245
  218ccc    H1610097   7.999   6.131   0.816  0.3014 -1.9572  0.9731
  218ccc    C1010098   7.886   5.987   0.700  0.9047 -0.5084 -0.4742
  218ccc     O410099   7.828   5.949   0.601  0.5278  0.5874 -0.4531
  218ccc    C1110100   8.023   5.502  -0.058 -0.5588 -0.0257 -0.3519
  218ccc    C1210101   8.051   5.427   0.075  0.0091  0.1679  0.1687
  218ccc    H1710102   8.117   5.526  -0.108 -0.5255  1.5234  0.4008
  218ccc    C1310103   8.138   5.509   0.173  0.1552  0.1562  0.6358
  218ccc    C1410104   8.081   5.654   0.189  0.7626 -0.1148  0.6168
  218ccc    C1510105   8.049   5.710   0.053 -0.2508 -0.3881 -0.0589
  218ccc    H1810106   7.979   5.644   0.229  0.0592  2.3100 -0.3602
  218ccc    H1910107   8.236   5.520   0.126  0.3298 -1.5323  0.5436
  218ccc    H2010108   8.142   5.732  -0.000  0.6267  1.8038  2.1602
  218ccc     O110109   7.983   5.834   0.077 -0.3476  0.3856  0.7588
  218ccc     O610110   8.141   5.433   0.292 -0.3421  0.2187 -0.6365
  218ccc    C1610111   7.924   5.426  -0.159  0.2749  0.5690  0.1319
  218ccc    H2110112   8.233   5.404   0.304 -0.9128 -1.4832 -0.1103
  218ccc    H2210113   8.242   5.770   0.210  0.0681 -0.8509 -0.0236
  218ccc    H2310114   7.825   5.435  -0.114  0.3631 -2.2961  1.1176
  218ccc    H2410115   7.954   5.321  -0.149  0.4337  0.4853 -1.0732
  218ccc     O710116   7.936   5.462  -0.295 -0.1558  0.2429  0.1613
  218ccc    H2510117   7.901   5.392  -0.353  1.2713  0.8575 -1.5249
  218ccc     O810118   7.965   5.625  -0.022  0.6410  0.0945 -0.4962
  218ccc    H2610119   7.977   5.864  -0.015 -0.2702  0.6876  0.8520
  218ccc    H2710120   7.959   5.397   0.128  0.2781 -0.1652  0.4442
  218ccc     O910121   8.123   5.308   0.041  0.0389  0.3793 -0.1236
  218ccc    H2810122   8.122   5.255   0.123  0.4874 -0.3005 -0.5468
  218ccc     N310123   8.163   5.743   0.269 -0.1813  0.6783  0.3879
  218ccc    C1710124   8.051   5.761   1.161  0.3962 -0.3363 -0.4038
  218ccc    C1810125   8.144   5.790   1.041 -0.1719  0.1325 -0.0706
  218ccc    H2910126   8.033   5.653   1.169  1.1785 -0.5918 -1.7151
  218ccc    C1910127   8.067   5.803   0.912  0.6903 -0.6117  0.1106
  218ccc    C2010128   7.947   5.900   0.929  0.0480  0.5116  0.0569
  218ccc    C2110129   7.857   5.844   1.038 -0.3232 -0.0778  0.8281
  218ccc    H3010130   7.984   5.997   0.962 -1.3477  1.3990 -0.8444
  218ccc    H3110131   8.024   5.705   0.888  2.9974 -1.8158  0.6491
  218ccc    H3210132   7.822   5.744   1.009  2.0073 -0.8546  0.5150
  218ccc    O1010133   7.747   5.922   1.078  0.6921 -0.4107  0.7779
  218ccc    O1110134   8.160   5.853   0.819 -0.0197  0.4718 -0.3022
  218ccc    C2210135   8.108   5.804   1.299 -0.1592  0.0437  0.8849
  218ccc    H3310136   8.227   5.784   0.803  1.4588  1.0859  2.5564
  218ccc    H3410137   7.822   5.817   0.792  0.4756 -0.2630  1.2537
  218ccc    H3510138   8.199   5.744   1.317  0.2479  0.2480 -0.4041
  218ccc    H3610139   8.029   5.786   1.373 -1.7368  1.4370 -0.3806
  218ccc    O1210140   8.151   5.940   1.301 -0.1460 -0.1763  0.1964
  218ccc    H3710141   8.191   5.955   1.389 -2.7504  2.7212  1.0899
  218ccc    O1310142   7.936   5.839   1.156 -0.2665  0.8237 -0.0036
  218ccc    H3810143   7.778   6.014   1.089  1.3997 -0.6929  1.2385
  218ccc    H3910144   8.195   5.885   1.060 -0.7466  0.3884  0.2395
  218ccc     O510145   8.235   5.676   1.041 -0.2327 -0.2910  0.1159
  218ccc    H4010146   8.306   5.691   0.977 -1.0660 -0.0070 -0.7714
  218ccc     N410147   7.868   5.907   0.805  0.0303  0.0749  0.5246
  218ccc    H4110148   8.012   6.003   0.477  1.4631 -1.9593 -0.0221
  219ccc     N110149   7.593   5.877  -0.422 -0.2161  0.0459  0.0400
  219ccc     H410150   7.684   5.856  -0.384  0.8921 -2.6411 -3.6061
  219ccc     C310151   7.576   5.867  -0.565  0.0248  0.2070 -0.2730
  219ccc     H510152   7.551   5.765  -0.595  1.1242 -0.0254 -0.4406
  219ccc     C410153   7.708   5.908  -0.628 -1.1526  0.7404  0.5569
  219ccc     H610154   7.494   5.931  -0.599  1.4465  1.1437 -2.1215
  219ccc     H710155   7.710   5.850  -0.721 -0.1363 -0.0892  1.0740
  219ccc     H810156   7.790   5.872  -0.564 -1.8836 -1.8737  0.0994
  219ccc     N210157   7.736   6.058  -0.650  0.1582  0.4891  0.0283
  219ccc     C510158   7.852   6.075  -0.744  0.3558 -1.1343  1.3490
  219ccc     C610159   7.776   6.127  -0.517  0.4804 -0.1478  0.3315
  219ccc     H910160   7.819   6.041  -0.465 -1.3478 -1.3642 -0.0974
  219ccc     C710161   7.671   6.195  -0.434  0.6303 -0.3160  0.1552
  219ccc    H1010162   7.862   6.194  -0.533  0.4803 -0.4511 -0.9965
  219ccc    H1110163   7.574   6.144  -0.441 -1.0599  2.6324  0.3783
  219ccc    H1210164   7.641   6.290  -0.479 -3.1132 -0.8833  1.0710
  219ccc     C810165   7.702   6.197  -0.283  0.4868 -0.1220  0.4429
  219ccc     O210166   7.782   6.131  -0.228 -0.1156  0.2479 -0.1060
  219ccc    H1310167   7.850   6.000  -0.824 -0.6608  0.4322 -0.1537
  219ccc    H1410168   7.947   6.058  -0.692  1.6550  2.2218  0.3517
  219ccc     C910169   7.864   6.218  -0.813 -0.0860 -0.0835  0.5990
  219ccc    H1510170   7.917   6.286  -0.745  0.1586  0.8119 -0.4658
  219ccc    H1610171   7.764   6.263  -0.823 -1.0516 -1.9436  1.2763
  219ccc    C1010172   7.944   6.206  -0.947  0.5493  0.7513 -0.2381
  219ccc     O410173   7.991   6.102  -0.984 -0.6831 -0.0662 -0.2727
  219ccc    C1110174   7.551   6.574  -0.014 -0.3871  0.0757  0.0883
  219ccc    C1210175   7.443   6.484  -0.077 -0.4441 -0.6111  0.1375
  219ccc    H1710176   7.535   6.571   0.094  1.7667  1.4834  0.5071
  219ccc    C1310177   7.464   6.340  -0.028  0.4557 -0.0771  0.3748
  219ccc    C1410178   7.608   6.290  -0.067  0.0529 -0.7025  1.0482
  219ccc    C1510179   7.712   6.389  -0.011 -0.1658  0.4703  0.9572
  219ccc    H1810180   7.631   6.196  -0.015  0.3123 -0.6057  1.1134
  219ccc    H1910181   7.458   6.339   0.081  1.3028  1.6516  0.4580
  219ccc    H2010182   7.810   6.361  -0.051 -0.7684 -1.2947  0.6586
  219ccc     O110183   7.721   6.386   0.136  0.1836  0.2093 -0.1218
  219ccc     O610184   7.364   6.259  -0.090  0.4962 -0.0355 -0.3796
  219ccc    C1610185   7.537   6.722  -0.051 -0.2828  0.0094 -0.8779
  219ccc    H2110186   7.386   6.259  -0.185 -0.7754 -0.5908 -0.7056
  219ccc    H2210187   7.551   6.327  -0.265 -0.4811 -0.9436 -1.0213
  219ccc    H2310188   7.431   6.750  -0.051 -0.1797  0.5162  1.1557
  219ccc    H2410189   7.571   6.742  -0.154  1.5346  1.2884 -0.0897
  219ccc     O710190   7.610   6.804   0.041 -0.1386 -0.2603 -0.4890
  219ccc    H2510191   7.586   6.776   0.131 -0.0728  1.5941  0.1529
  219ccc     O810192   7.679   6.523  -0.056 -0.4114  0.0554 -1.0301
  219ccc    H2610193   7.798   6.435   0.170 -0.9040  0.8573  1.5157
  219ccc    H2710194   7.346   6.520  -0.039 -1.0360 -1.0488 -0.9066
  219ccc     O910195   7.442   6.494  -0.216 -0.0961 -0.3773  0.8966
  219ccc    H2810196   7.394   6.577  -0.235 -0.3175 -0.5718  0.6033
  219ccc     N310197   7.619   6.270  -0.215  0.0499  0.1880 -0.4205
  219ccc    C1710198   8.202   6.305  -1.372  0.4797  0.7209 -0.3656
  219ccc    C1810199   8.056   6.285  -1.396 -0.5929  0.6809  0.1226
  219ccc    H2910200   8.232   6.202  -1.349 -2.5922  0.2160  2.1149
  219ccc    C1910201   7.972   6.248  -1.267  0.2309 -0.7512 -0.3168
  219ccc    C2010202   8.005   6.348  -1.152 -0.3320 -0.2033 -0.2405
  219ccc    C2110203   8.162   6.366  -1.133 -0.4876 -0.1424 -0.6770
  219ccc    H3010204   7.957   6.437  -1.195 -0.6342 -0.4390 -0.3973
  219ccc    H3110205   8.003   6.151  -1.226  1.7187 -0.6408 -1.1139
  219ccc    H3210206   8.208   6.269  -1.109  2.7140  1.2341 -0.7031
  219ccc    O1010207   8.194   6.468  -1.038 -0.1533  0.0875 -0.1317
  219ccc    O1110208   7.831   6.258  -1.289  0.1549 -0.1781  0.6188
  219ccc    C2210209   8.267   6.368  -1.500 -0.0255 -0.3909 -0.7949
  219ccc    H3310210   7.780   6.230  -1.211 -0.4375 -1.5835 -0.2369
  219ccc    H3410211   7.889   6.397  -0.984 -1.2791 -0.5424 -0.2630
  219ccc    H3510212   8.201   6.437  -1.553  1.0140  0.0986 -1.5025
  219ccc    H3610213   8.290   6.286  -1.568  2.4043 -0.5089  0.0624
  219ccc    O1210214   8.388   6.424  -1.465 -0.3614 -0.4628  0.0258
  219ccc    H3710215   8.427   6.456  -1.549  0.2108 -1.5084 -0.1212
  219ccc    O1310216   8.219   6.398  -1.263 -0.3780 -0.2686 -0.0589
  219ccc    H3810217   8.257   6.431  -0.975 -0.2489 -0.0219 -0.0995
  219ccc    H3910218   8.019   6.380  -1.438  0.6076  1.4887  0.8309
  219ccc     O510219   8.036   6.173  -1.490  0.1032 -0.2100  0.3208
  219ccc    H4010220   7.951   6.129  -1.475 -0.9458 -0.1738 -4.2866
  219ccc     N410221   7.937   6.315  -1.021 -0.4523 -0.2652  0.1725
  219ccc    H4110222   7.647   6.095  -0.686 -0.7178 -1.1023  0.4501
  220ccc     N110223   5.970   4.928  -0.401 -0.6508  0.5317  0.3215
  220ccc     H410224   6.009   4.852  -0.455 -0.3427  2.5482 -2.5442
  220ccc     C310225   5.829   4.923  -0.387  0.7088 -0.1319  0.5498
  220ccc     H510226   5.798   5.028  -0.397 -0.1214 -0.5263 -1.2769
  220ccc     C410227   5.779   4.869  -0.255 -0.0265 -0.2598 -0.4287
  220ccc     H610228   5.784   4.867  -0.469 -1.1164  0.8371  0.8424
  220ccc     H710229   5.809   4.763  -0.250  0.7622 -0.0196 -0.0549
  220ccc     H810230   5.669   4.874  -0.264 -0.2732 -2.2865  0.8655
  220ccc     N210231   5.807   4.935  -0.126  0.0962 -0.2906 -0.1636
  220ccc     C510232   5.770   4.829  -0.021 -0.0785 -0.0120 -0.1461
  220ccc     C610233   5.731   5.063  -0.104  0.2522 -0.4152  0.0580
  220ccc     H910234   5.772   5.103  -0.010  0.3109  0.1630 -0.2094
  220ccc     C710235   5.576   5.066  -0.087 -1.1934 -0.7724 -0.4242
  220ccc    H1010236   5.753   5.128  -0.189 -1.7929 -1.5702 -1.4188
  220ccc    H1110237   5.549   4.996  -0.007  2.7142 -1.8319  0.1560
  220ccc    H1210238   5.518   5.037  -0.175  0.6868 -1.7642 -1.4033
  220ccc     C810239   5.525   5.205  -0.034 -0.7415 -0.5940  0.3968
  220ccc     O210240   5.604   5.304  -0.023  0.4186 -0.4481  0.2750
  220ccc    H1310241   5.831   4.740  -0.038 -0.7151 -0.2837 -1.1489
  220ccc    H1410242   5.671   4.784  -0.040  0.3899 -2.5104  2.6685
  220ccc     C910243   5.779   4.862   0.133 -0.4410  0.0130  0.2284
  220ccc    H1510244   5.731   4.774   0.177 -2.4598  0.5847 -0.7330
  220ccc    H1610245   5.712   4.945   0.156 -1.5223  0.0488 -2.7089
  220ccc    C1010246   5.916   4.891   0.188 -0.5552 -0.3144 -0.1047
  220ccc     O410247   5.965   5.004   0.172  0.1084 -0.0084 -0.8094
  220ccc    C1110248   5.077   5.432   0.157  0.7186 -0.4313  0.1930
  220ccc    C1210249   5.209   5.451   0.228  0.3131  0.8198 -0.1672
  220ccc    H1710250   5.030   5.336   0.179 -2.6775  1.1781  0.6357
  220ccc    C1310251   5.314   5.342   0.187 -0.1120  0.1559 -0.1082
  220ccc    C1410252   5.329   5.348   0.028  0.0976  0.6769 -0.7807
  220ccc    C1510253   5.194   5.359  -0.048 -0.2209 -0.1910  0.3701
  220ccc    H1810254   5.397   5.429  -0.003  2.6380 -0.7327  0.7366
  220ccc    H1910255   5.277   5.243   0.216 -1.3581 -0.0975 -2.3447
  220ccc    H2010256   5.149   5.259  -0.053  0.8668 -0.6760  0.0205
  220ccc     O110257   5.222   5.401  -0.184  0.0193 -0.1274 -0.3271
  220ccc     O610258   5.442   5.375   0.254  0.0145  0.3236 -0.1363
  220ccc    C1610259   4.977   5.544   0.198 -0.4165 -0.0323 -0.4349
  220ccc    H2110260   5.477   5.456   0.212 -1.3662 -0.4773 -3.1046
  220ccc    H2210261   5.332   5.144  -0.018 -2.2683  1.8358 -0.6501
  220ccc    H2310262   5.008   5.636   0.147  0.5446  1.7509  3.0552
  220ccc    H2410263   4.987   5.564   0.305  1.0015 -0.4602 -0.4664
  220ccc     O710264   4.837   5.525   0.155 -0.3921 -0.0608 -0.3453
  220ccc    H2510265   4.792   5.478   0.227  0.5570  0.5363  0.6769
  220ccc     O810266   5.103   5.458   0.018 -0.7187  0.2874 -0.1912
  220ccc    H2610267   5.230   5.324  -0.243  2.3576  0.9780 -1.6097
  220ccc    H2710268   5.243   5.550   0.195 -0.4566  2.8292  4.2678
  220ccc     O910269   5.202   5.451   0.371 -0.0624 -0.1527  0.4398
  220ccc    H2810270   5.291   5.418   0.391  0.6840 -0.0831 -2.3880
  220ccc     N310271   5.398   5.222  -0.010  0.0303 -0.0895  0.2557
  220ccc    C1710272   6.222   4.732   0.604  0.5207 -0.1893  0.0254
  220ccc    C1810273   6.268   4.675   0.467  0.1735 -0.1690 -0.3793
  220ccc    H2910274   6.152   4.661   0.650  0.2696 -1.1859 -1.8064
  220ccc    C1910275   6.162   4.679   0.355 -0.1742  0.7313  0.5678
  220ccc    C2010276   6.078   4.811   0.354 -0.5501 -0.6776 -0.9621
  220ccc    C2110277   6.036   4.851   0.498 -0.3793 -0.3776  0.2204
  220ccc    H3010278   6.139   4.892   0.311  0.9830 -2.0878 -1.5542
  220ccc    H3110279   6.098   4.593   0.377  1.6259 -0.7748  0.1694
  220ccc    H3210280   5.967   4.776   0.538  0.0193 -0.9973 -0.2296
  220ccc    O1010281   5.977   4.981   0.509 -0.2411  0.3708  0.1234
  220ccc    O1110282   6.229   4.652   0.226 -0.3080  0.5723 -0.2318
  220ccc    C2210283   6.334   4.758   0.717  0.2868 -0.3337  0.4407
  220ccc    H3310284   6.312   4.601   0.236 -2.0251 -2.4841 -0.2484
  220ccc    H3410285   5.924   4.700   0.274  0.8088  0.2402  2.0859
  220ccc    H3510286   6.368   4.657   0.743  0.7670 -0.5447 -0.9148
  220ccc    H3610287   6.292   4.805   0.807  0.0946  2.9204 -1.2123
  220ccc    O1210288   6.454   4.826   0.680 -0.1623  0.0705  0.4838
  220ccc    H3710289   6.518   4.826   0.753  0.0672 -0.5629  0.2888
  220ccc    O1310290   6.151   4.858   0.582 -0.2603 -0.4137 -0.4128
  220ccc    H3810291   5.987   5.020   0.597 -2.9705  3.1571 -0.6339
  220ccc    H3910292   6.350   4.739   0.433 -0.0673  0.7333  0.6604
  220ccc     O510293   6.319   4.536   0.472  0.0546  0.4277 -0.3758
  220ccc    H4010294   6.356   4.504   0.388 -0.6551 -1.6643  0.0394
  220ccc     N410295   5.971   4.788   0.253  0.1894  0.1693  0.2328
  220ccc    H4110296   5.910   4.942  -0.118  0.2237  2.4498 -2.3692
  221ccc     N110297   6.229   4.780  -1.027 -0.2658  0.8464 -0.7349
  221ccc     H410298   6.160   4.848  -1.056 -2.1685 -1.1869 -1.2584
  221ccc     C310299   6.272   4.689  -1.132 -0.1636  0.5202  0.1317
  221ccc     H510300   6.236   4.724  -1.230 -0.8308  1.5588  0.7266
  221ccc     C410301   6.219   4.544  -1.119 -0.0071 -0.2159  0.6970
  221ccc     H610302   6.382   4.693  -1.126 -0.2507  1.7674  1.7362
  221ccc     H710303   6.110   4.549  -1.130  0.2064  2.4106 -0.8345
  221ccc     H810304   6.244   4.505  -1.019  1.1401 -1.1584  0.0741
  221ccc     N210305   6.272   4.441  -1.220  1.0965 -0.3783 -0.4841
  221ccc     C510306   6.200   4.308  -1.194  0.1284  0.0508 -0.8063
  221ccc     C610307   6.422   4.422  -1.202 -0.2775  0.0696  0.1602
  221ccc     H910308   6.458   4.352  -1.279 -1.4190 -0.9512  0.5104
  221ccc     C710309   6.474   4.404  -1.059  0.5056 -0.1444  0.3671
  221ccc    H1010310   6.457   4.520  -1.235 -0.4614 -0.3767 -1.4768
  221ccc    H1110311   6.421   4.317  -1.016 -0.7965  0.9783  1.1106
  221ccc    H1210312   6.452   4.484  -0.988 -0.4204 -0.7981  0.8415
  221ccc     C810313   6.622   4.387  -1.058 -0.2371 -0.5110 -0.4978
  221ccc     O210314   6.707   4.472  -1.039 -0.3230 -0.4775  0.2871
  221ccc    H1310315   6.202   4.285  -1.087  0.5687  2.0140 -0.3442
  221ccc    H1410316   6.253   4.235  -1.255  1.1556 -1.1179  1.3788
  221ccc     C910317   6.052   4.305  -1.244  0.3252 -0.2310  0.3283
  221ccc    H1510318   6.053   4.336  -1.349 -1.3411 -1.2632 -0.0350
  221ccc    H1610319   5.988   4.378  -1.192  1.9024  1.3041  0.2175
  221ccc    C1010320   5.992   4.166  -1.236  0.0597  0.2061  0.5266
  221ccc     O410321   5.946   4.099  -1.325 -0.5016  0.0692  0.1612
  221ccc    C1110322   7.006   4.056  -1.206  0.2342 -0.6170 -0.4687
  221ccc    C1210323   6.939   4.149  -1.315  0.4470  0.1071  0.9747
  221ccc    H1710324   6.943   3.966  -1.202 -1.1593  0.2551 -1.6810
  221ccc    C1310325   6.799   4.186  -1.277 -0.0068  0.0490 -0.4586
  221ccc    C1410326   6.793   4.228  -1.124  0.2228 -0.6658 -0.7828
  221ccc    C1510327   6.858   4.116  -1.037  0.9649  0.0541 -0.2178
  221ccc    H1810328   6.856   4.318  -1.123  0.1937 -0.5872 -2.7183
  221ccc    H1910329   6.739   4.099  -1.303  2.2590 -1.5772 -0.5522
  221ccc    H2010330   6.810   4.021  -1.064  0.9054 -0.0727  0.3079
  221ccc     O110331   6.851   4.143  -0.899 -0.2625 -0.1342 -0.5025
  221ccc     O610332   6.750   4.295  -1.361  0.5841 -0.0826 -0.3043
  221ccc    C1610333   7.153   4.031  -1.233  0.0195 -0.0048 -0.2901
  221ccc    H2110334   6.724   4.256  -1.446  2.7236 -0.2479 -0.9297
  221ccc    H2210335   6.589   4.193  -1.111 -3.5814  1.8323  1.4304
  221ccc    H2310336   7.162   3.986  -1.333 -1.1860  2.7081 -1.7155
  221ccc    H2410337   7.191   3.962  -1.157  2.8828  1.5929 -0.1658
  221ccc     O710338   7.226   4.151  -1.226  0.1818  0.2289 -0.1413
  221ccc    H2510339   7.175   4.212  -1.169  1.8797  0.8991  0.7482
  221ccc     O810340   6.998   4.109  -1.073  0.1479 -0.4303  0.0773
  221ccc    H2610341   6.934   4.101  -0.870 -0.8178 -0.7027  0.2799
  221ccc    H2710342   6.994   4.243  -1.330 -0.0948  0.5470  1.6856
  221ccc     O910343   6.934   4.075  -1.436 -0.0385 -0.0368  0.2836
  221ccc    H2810344   6.944   4.128  -1.517  0.9311 -2.8023 -1.5705
  221ccc     N310345   6.656   4.266  -1.089 -0.4184 -0.3737 -0.0856
  221ccc    C1710346   5.909   3.696  -1.170 -0.1469 -0.5667  0.4901
  221ccc    C1810347   6.057   3.731  -1.128 -0.1657 -0.5997  0.4012
  221ccc    H2910348   5.901   3.713  -1.279 -0.3670  0.2133  0.6253
  221ccc    C1910349   6.079   3.882  -1.149 -0.0019 -0.6957  0.0758
  221ccc    C2010350   5.976   3.969  -1.076 -0.0676  0.0612  1.0579
  221ccc    C2110351   5.835   3.918  -1.115  0.3550  0.3141 -0.0163
  221ccc    H3010352   5.987   3.954  -0.968  2.4326 -0.8741  0.7297
  221ccc    H3110353   6.074   3.904  -1.256  1.2763 -0.4774  0.0481
  221ccc    H3210354   5.805   3.938  -1.218  0.6492  0.3705 -0.0929
  221ccc    O1010355   5.740   3.979  -1.029 -0.0035  0.2609  0.1566
  221ccc    O1110356   6.213   3.913  -1.105  1.2004  0.1610  0.4495
  221ccc    C2210357   5.866   3.558  -1.134  0.1058 -0.4713  0.0619
  221ccc    H3310358   6.274   3.867  -1.165  0.3304  2.7600 -2.6926
  221ccc    H3410359   6.022   4.181  -1.039  1.2698 -1.0705 -0.2573
  221ccc    H3510360   5.871   3.550  -1.024 -0.9961  1.6498  0.3298
  221ccc    H3610361   5.928   3.480  -1.181  0.9615  0.4503 -0.3732
  221ccc    O1210362   5.731   3.548  -1.177 -0.6705  0.1669 -0.5007
  221ccc    H3710363   5.703   3.639  -1.157  1.4837  1.0996 -1.3572
  221ccc    O1310364   5.826   3.782  -1.090  0.2737  0.0779  0.2511
  221ccc    H3810365   5.775   3.987  -0.938 -2.0741  0.3921  1.0161
  221ccc    H3910366   6.068   3.709  -1.021 -0.8681  0.1782  0.6407
  221ccc     O510367   6.149   3.653  -1.199  0.1896  0.5191 -0.3848
  221ccc    H4010368   6.234   3.666  -1.153 -1.2421 -0.1725  2.7510
  221ccc     N410369   5.991   4.116  -1.112 -0.5151 -0.7151  0.1294
  221ccc    H4110370   6.251   4.480  -1.313 -2.6919 -1.0539 -0.0669
  222ccc     N110371   5.441   0.958   2.579 -0.4818  0.3421 -0.0260
  222ccc     H410372   5.387   0.898   2.517 -0.2523 -1.5313  1.4904
  222ccc     C310373   5.427   0.922   2.723 -0.2914  0.1505  0.6862
  222ccc     H510374   5.364   0.996   2.775  1.1199  0.6414  1.7750
  222ccc     C410375   5.558   0.914   2.806  0.5610  0.2188 -0.3433
  222ccc     H610376   5.383   0.822   2.725 -0.1430  0.0884  0.9122
  222ccc     H710377   5.637   0.858   2.756  1.4204  0.3782  0.7852
  222ccc     H810378   5.541   0.850   2.893 -0.5115  2.7639  1.4719
  222ccc     N210379   5.612   1.051   2.856 -0.0703 -0.3798  0.7002
  222ccc     C510380   5.751   1.036   2.910  0.1053  0.1358 -0.5291
  222ccc     C610381   5.525   1.107   2.967  0.4617  0.5199  0.1155
  222ccc     H910382   5.478   1.024   3.021  1.9197  0.0732  0.7412
  222ccc     C710383   5.426   1.217   2.926  0.2567 -0.6401 -0.1065
  222ccc    H1010384   5.596   1.154   3.036  2.1850  1.8658 -2.4378
  222ccc    H1110385   5.344   1.183   2.861 -1.0123  0.5933  0.7746
  222ccc    H1210386   5.474   1.301   2.875  0.7115  0.0129  1.3489
  222ccc     C810387   5.356   1.281   3.046  0.3989 -0.3958 -0.2378
  222ccc     O210388   5.287   1.216   3.120 -0.5830  0.2017 -0.1876
  222ccc    H1310389   5.743   0.951   2.979 -1.0437  1.0622  0.5154
  222ccc    H1410390   5.768   1.119   2.979 -3.3042  0.2266  0.3789
  222ccc     C910391   5.872   1.006   2.826  0.3953  0.1219  0.3823
  222ccc    H1510392   5.844   0.918   2.767 -0.8145  0.3051  0.6593
  222ccc    H1610393   5.969   0.979   2.872  1.0470 -0.5754 -1.3297
  222ccc    C1010394   5.888   1.103   2.714  0.3979 -0.3122 -0.2362
  222ccc     O410395   5.819   1.204   2.704 -0.1317 -0.0991 -0.5721
  222ccc    C1110396   5.138   1.542   3.404  0.5381 -0.1045 -0.1598
  222ccc    C1210397   5.294   1.546   3.429 -0.3013  0.1887 -0.6815
  222ccc    H1710398   5.102   1.439   3.418 -0.0075  0.3696  2.5805
  222ccc    C1310399   5.366   1.462   3.321 -0.4788  0.3297 -0.5133
  222ccc    C1410400   5.316   1.497   3.179  0.2666 -0.6025  0.0746
  222ccc    C1510401   5.164   1.514   3.166  0.1301  0.2335 -1.3586
  222ccc    H1810402   5.359   1.596   3.159  0.9728 -0.7306  0.9211
  222ccc    H1910403   5.344   1.357   3.343 -1.6962  0.6569 -0.0488
  222ccc    H2010404   5.125   1.412   3.168  1.3542 -0.2660  0.9874
  222ccc     O110405   5.122   1.592   3.060  0.2067 -0.0435  0.1320
  222ccc     O610406   5.507   1.479   3.333  0.0840  0.3674  0.8656
  222ccc    C1610407   5.054   1.632   3.504 -0.4376 -0.1583 -1.4408
  222ccc    H2110408   5.549   1.402   3.290  0.4589  0.9510  0.1488
  222ccc    H2210409   5.423   1.464   3.000  2.5599 -1.2531  0.7519
  222ccc    H2310410   5.071   1.605   3.608  0.9257  1.5753 -1.1616
  222ccc    H2410411   4.945   1.626   3.489 -1.1918  1.5274  2.1985
  222ccc     O710412   5.077   1.775   3.494  0.1983 -0.3561 -0.2390
  222ccc    H2510413   5.168   1.781   3.526  0.5431 -0.7022 -1.1279
  222ccc     O810414   5.107   1.590   3.275 -0.1618 -0.3087 -0.8472
  222ccc    H2610415   5.025   1.607   3.058 -0.0456 -1.4809 -2.4333
  222ccc    H2710416   5.333   1.649   3.432 -0.1057  0.0998  0.7786
  222ccc     O910417   5.319   1.491   3.559 -0.1908  0.1007 -0.1278
  222ccc    H2810418   5.415   1.504   3.568 -0.1469  0.6215 -1.1646
  222ccc     N310419   5.369   1.414   3.071  0.2960 -0.2526 -0.2000
  222ccc    C1710420   6.141   1.206   2.254  0.8170  1.0265 -0.3320
  222ccc    C1810421   5.988   1.178   2.264 -0.6044  0.5940  0.3249
  222ccc    H2910422   6.196   1.119   2.216  0.3782 -0.3527  1.9953
  222ccc    C1910423   5.951   1.100   2.383  0.0765 -0.1181 -0.7148
  222ccc    C2010424   6.030   1.154   2.512  0.4034  0.3132  0.0502
  222ccc    C2110425   6.186   1.149   2.483  0.1657  0.1664 -1.2017
  222ccc    H3010426   6.005   1.260   2.529  0.1629  0.0230  1.6198
  222ccc    H3110427   5.982   0.997   2.362 -1.0371 -0.6742  0.2572
  222ccc    H3210428   6.213   1.047   2.454 -2.8512 -1.1006  0.0717
  222ccc    O1010429   6.260   1.202   2.597 -0.0589 -0.4479 -0.0840
  222ccc    O1110430   5.804   1.105   2.400 -0.0151  0.6351  0.4172
  222ccc    C2210431   6.172   1.331   2.170  0.2564 -0.6220  1.5298
  222ccc    H3310432   5.792   1.199   2.420 -0.5988  0.6470  0.0254
  222ccc    H3410433   6.032   0.988   2.636 -2.6899 -0.6067  0.5215
  222ccc    H3510434   6.136   1.309   2.069  0.1681 -0.8156  1.6026
  222ccc    H3610435   6.282   1.332   2.164  0.2436 -2.8385 -0.2390
  222ccc    O1210436   6.118   1.465   2.215 -0.5434  0.4039  0.1762
  222ccc    H3710437   6.186   1.531   2.191 -0.9771  0.6261 -0.4726
  222ccc    O1310438   6.199   1.241   2.376  0.5416 -0.3052  0.4301
  222ccc    H3810439   6.340   1.147   2.602  0.0121 -0.2800  0.8496
  222ccc    H3910440   5.949   1.280   2.255  1.3586  1.4697  1.0112
  222ccc     O510441   5.940   1.120   2.140 -0.1494 -0.4668  0.2301
  222ccc    H4010442   5.878   1.048   2.164  0.0018 -0.1904  1.5190
  222ccc     N410443   5.986   1.078   2.630 -0.9753  0.2891  0.3581
  222ccc    H4110444   5.626   1.113   2.775  0.3465 -0.2506  0.8679
  223ccc     N110445   5.825   1.281   1.911 -0.2305 -0.1592 -0.5455
  223ccc     H410446   5.850   1.191   1.950 -0.3800  0.0308  0.0016
  223ccc     C310447   5.929   1.359   1.843 -0.4697 -0.3061 -0.4182
  223ccc     H510448   5.920   1.461   1.882 -0.2456 -0.6887  0.6470
  223ccc     C410449   5.919   1.353   1.691  0.3019 -0.7320 -0.3376
  223ccc     H610450   6.026   1.321   1.877 -0.1986 -0.1186 -0.9736
  223ccc     H710451   5.888   1.253   1.661 -0.0990 -0.8609  0.4686
  223ccc     H810452   6.017   1.369   1.644 -0.5461  1.4316 -1.5163
  223ccc     N210453   5.834   1.455   1.627  0.2190  0.0821  0.2000
  223ccc     C510454   5.762   1.400   1.503  0.0192 -0.4403 -0.3174
  223ccc     C610455   5.910   1.585   1.586  0.2608 -0.1687  0.1644
  223ccc     H910456   5.967   1.617   1.674  1.1886 -0.2803 -0.3809
  223ccc     C710457   5.841   1.716   1.534  0.4072 -0.1998  0.0268
  223ccc    H1010458   5.989   1.559   1.514  0.7589 -2.2867  1.3859
  223ccc    H1110459   5.791   1.704   1.437 -1.9462 -0.0722  1.1437
  223ccc    H1210460   5.919   1.789   1.511  1.7482 -1.4604  0.3860
  223ccc     C810461   5.752   1.785   1.642  0.1702 -0.0924 -1.0682
  223ccc     O210462   5.746   1.758   1.759 -0.0890  0.1895 -1.0218
  223ccc    H1310463   5.828   1.325   1.457 -1.3285 -0.9908 -1.4141
  223ccc    H1410464   5.749   1.475   1.424  0.8736  1.3353  1.1394
  223ccc     C910465   5.630   1.335   1.535 -0.3053  0.1040 -0.0847
  223ccc    H1510466   5.634   1.279   1.629  1.3354  0.6221  0.1997
  223ccc    H1610467   5.593   1.270   1.455 -0.0367  0.3111 -0.3794
  223ccc    C1010468   5.523   1.438   1.566  0.3588  0.0916 -0.4898
  223ccc     O410469   5.528   1.555   1.543  0.5536  0.4057  0.1390
  223ccc    C1110470   5.463   2.229   1.737  0.2292  0.4013 -0.3636
  223ccc    C1210471   5.383   2.118   1.666 -0.3533  0.0727  0.0374
  223ccc    H1710472   5.521   2.283   1.661  0.9760 -0.5962 -0.5150
  223ccc    C1310473   5.480   2.023   1.589 -0.0026 -0.9607 -0.2458
  223ccc    C1410474   5.592   1.970   1.679 -0.4454 -0.2898 -0.2358
  223ccc    C1510475   5.660   2.081   1.758  0.0182  0.4550  0.0389
  223ccc    H1810476   5.551   1.899   1.752  1.9259 -0.7562  0.7510
  223ccc    H1910477   5.514   2.089   1.508 -1.0104 -0.0832  0.0284
  223ccc    H2010478   5.721   2.141   1.690  2.0966 -1.5481  0.0189
  223ccc     O110479   5.740   2.038   1.867 -0.1857  0.2073  0.7712
  223ccc     O610480   5.411   1.911   1.536  0.7685  0.4132 -0.3722
  223ccc    C1610481   5.364   2.330   1.808 -0.5860  0.4735 -0.3770
  223ccc    H2110482   5.445   1.899   1.446 -2.3342  2.4898 -2.0378
  223ccc    H2210483   5.676   1.908   1.497 -1.8374  1.0284  0.4049
  223ccc    H2310484   5.350   2.299   1.913 -0.8874 -0.6217 -0.7333
  223ccc    H2410485   5.259   2.323   1.780 -2.0197  0.0737  4.1865
  223ccc     O710486   5.411   2.465   1.806  0.1340  0.1911 -0.5997
  223ccc    H2510487   5.348   2.517   1.858  0.7121  0.0119  0.3017
  223ccc     O810488   5.560   2.167   1.824 -0.6667 -0.4803  0.0819
  223ccc    H2610489   5.691   2.054   1.949 -1.3149 -1.3274  0.4342
  223ccc    H2710490   5.333   2.058   1.743  0.2882  0.7730  1.0209
  223ccc     O910491   5.296   2.164   1.566 -0.3367 -0.9055  0.5600
  223ccc    H2810492   5.351   2.209   1.500 -0.8316 -0.8427  0.1823
  223ccc     N310493   5.672   1.880   1.595 -0.2711 -0.2717  0.1531
  223ccc    C1710494   5.110   1.100   1.552  0.3426 -0.0503 -0.7323
  223ccc    C1810495   5.185   1.166   1.435 -0.4397  0.0932  0.3057
  223ccc    H2910496   5.028   1.169   1.576  1.1019  0.9157 -0.8592
  223ccc    C1910497   5.253   1.297   1.469 -0.2635  0.1271 -0.3378
  223ccc    C2010498   5.343   1.275   1.595  0.4194  0.1047  0.3715
  223ccc    C2110499   5.257   1.211   1.708 -0.4580 -0.0630 -0.0202
  223ccc    H3010500   5.418   1.201   1.566 -0.6367 -0.1093 -2.0833
  223ccc    H3110501   5.180   1.370   1.506  4.0637  3.6452  2.2835
  223ccc    H3210502   5.181   1.286   1.732  0.2247  0.4903  0.4438
  223ccc    O1010503   5.344   1.177   1.818  0.1275  0.1152  0.0431
  223ccc    O1110504   5.311   1.371   1.360  0.1879 -0.3338 -0.3919
  223ccc    C2210505   5.045   0.962   1.515 -0.6736 -0.6675 -0.1128
  223ccc    H3310506   5.373   1.309   1.318 -0.8797 -1.1935 -0.7719
  223ccc    H3410507   5.338   1.464   1.662 -0.6578 -0.0789 -2.8485
  223ccc    H3510508   5.115   0.890   1.471 -0.4660 -0.7824  0.3945
  223ccc    H3610509   4.967   0.984   1.441 -0.3327  0.1915 -0.2400
  223ccc    O1210510   4.977   0.893   1.621  0.2930  0.0709 -0.3773
  223ccc    H3710511   5.036   0.847   1.683 -1.5996  1.1675  2.4255
  223ccc    O1310512   5.201   1.088   1.660 -0.0526  0.0658 -0.2379
  223ccc    H3810513   5.414   1.120   1.780  0.1167 -0.0203  0.2260
  223ccc    H3910514   5.263   1.093   1.410  0.8265  1.0534  1.3381
  223ccc     O510515   5.100   1.192   1.325  0.4947 -0.6826 -0.0866
  223ccc    H4010516   5.036   1.260   1.351  0.6584 -0.0378 -1.3570
  223ccc     N410517   5.414   1.400   1.639 -0.1125 -0.6562  0.1148
  223ccc    H4110518   5.760   1.484   1.692 -0.0676 -0.8469  0.2975
  224ccc     N110519   3.701   1.427   2.353 -0.5748 -0.6989 -0.6029
  224ccc     H410520   3.666   1.401   2.445  1.6262  1.3374  0.9473
  224ccc     C310521   3.642   1.556   2.297  0.1440  0.6162  0.1418
  224ccc     H510522   3.618   1.621   2.382 -1.0349  0.6312 -0.1816
  224ccc     C410523   3.508   1.528   2.218 -0.3911  0.2068 -0.5758
  224ccc     H610524   3.718   1.601   2.232  1.2281  0.0323  0.9810
  224ccc     H710525   3.429   1.511   2.292 -0.1432 -0.9614 -0.5599
  224ccc     H810526   3.527   1.431   2.169  3.0922  0.9214 -0.9063
  224ccc     N210527   3.450   1.611   2.106 -0.0881  0.5805 -0.1536
  224ccc     C510528   3.558   1.634   2.004 -0.2889 -0.1475 -0.0091
  224ccc     C610529   3.389   1.743   2.155  0.2520  0.2348  0.1953
  224ccc     H910530   3.327   1.724   2.243  1.5801  0.3617  1.1778
  224ccc     C710531   3.299   1.819   2.053  0.5543 -0.5108 -0.0903
  224ccc    H1010532   3.468   1.809   2.193 -1.5195  1.2751  2.3229
  224ccc    H1110533   3.201   1.771   2.055  0.5463 -0.5263  2.6581
  224ccc    H1210534   3.337   1.833   1.951  0.2607  2.8981  0.1498
  224ccc     C810535   3.266   1.961   2.102 -0.2701 -0.2970 -0.1168
  224ccc     O210536   3.307   2.023   2.205  0.2455 -0.2006  0.0476
  224ccc    H1310537   3.633   1.702   2.047  1.7894 -2.5376  0.3977
  224ccc    H1410538   3.510   1.690   1.923 -0.9670  0.2949  0.6893
  224ccc     C910539   3.635   1.518   1.945  0.2485  0.1558 -0.9846
  224ccc    H1510540   3.571   1.459   1.879  1.1898  1.8208 -3.5326
  224ccc    H1610541   3.677   1.457   2.027 -0.2745  0.6516 -0.3325
  224ccc    C1010542   3.758   1.556   1.860  0.4244 -0.1435  0.3382
  224ccc     O410543   3.774   1.666   1.807  0.5834 -0.4772  0.1136
  224ccc    C1110544   2.985   2.366   1.903 -0.1929  0.2797  0.4182
  224ccc    C1210545   2.901   2.264   1.994  0.6046 -0.0269  0.4439
  224ccc    H1710546   2.975   2.332   1.799  0.6831  2.0308 -0.2809
  224ccc    C1310547   2.970   2.133   2.001  0.0644  0.0224  0.5179
  224ccc    C1410548   3.119   2.145   2.030 -0.3982  0.1298 -0.4740
  224ccc    C1510549   3.191   2.246   1.934 -0.1767 -0.2991 -0.0397
  224ccc    H1810550   3.137   2.179   2.133 -0.2322  0.7214 -0.6927
  224ccc    H1910551   2.958   2.095   1.899 -2.4418  2.4540 -0.2223
  224ccc    H2010552   3.199   2.206   1.832 -0.0929 -0.0524 -0.1309
  224ccc     O110553   3.329   2.278   1.968 -0.0043 -0.0124  0.1017
  224ccc     O610554   2.903   2.035   2.083 -0.1387  0.3291  0.6045
  224ccc    C1610555   2.933   2.514   1.918 -0.4748  0.6989  0.0062
  224ccc    H2110556   2.967   2.003   2.150  0.6937  1.1202  0.2179
  224ccc    H2210557   3.150   1.963   1.934 -1.9757  0.1721  1.3251
  224ccc    H2310558   2.826   2.498   1.931 -0.2000 -1.3584 -0.0374
  224ccc    H2410559   2.945   2.579   1.830 -0.1350  1.1972  0.4109
  224ccc     O710560   2.983   2.576   2.036  0.0908 -0.0185  0.0463
  224ccc    H2510561   3.079   2.566   2.022  0.0041 -1.1777  0.1803
  224ccc     O810562   3.121   2.373   1.948  0.0069 -0.1087  0.2098
  224ccc    H2610563   3.348   2.363   1.926  1.7909 -0.5435 -0.2300
  224ccc    H2710564   2.897   2.297   2.099 -2.3347  0.7404  0.1846
  224ccc     O910565   2.769   2.238   1.940  0.2706 -0.0657 -0.1175
  224ccc    H2810566   2.762   2.147   1.973 -1.2379  0.4021  1.0065
  224ccc     N310567   3.181   2.012   2.018  0.6641  0.5272  0.2343
  224ccc    C1710568   4.220   1.631   1.646  0.4583  0.4614  0.4008
  224ccc    C1810569   4.216   1.632   1.803 -0.2849  0.5054  0.4931
  224ccc    H2910570   4.176   1.722   1.606  1.5619  0.2514 -1.3626
  224ccc    C1910571   4.072   1.590   1.861  0.5596 -0.1241  0.5025
  224ccc    C2010572   3.993   1.479   1.792 -0.5409  0.9966 -0.1704
  224ccc    C2110573   4.006   1.497   1.638 -0.8669 -0.8437  0.0112
  224ccc    H3010574   4.050   1.390   1.820  1.8571  2.5238  0.1355
  224ccc    H3110575   4.011   1.679   1.842  0.3051 -0.2771  0.5931
  224ccc    H3210576   3.942   1.581   1.612  1.4927  1.0518  0.0042
  224ccc    O1010577   3.976   1.385   1.566  0.3476 -0.2442 -0.1003
  224ccc    O1110578   4.079   1.568   1.998 -0.6602  0.7496 -0.2971
  224ccc    C2210579   4.356   1.625   1.572  0.6242  0.2470 -0.3042
  224ccc    H3310580   4.003   1.583   2.057 -1.8841 -1.9977 -1.0419
  224ccc    H3410581   3.847   1.375   1.896 -0.1154  0.6618  0.8503
  224ccc    H3510582   4.391   1.729   1.572 -0.7967  0.7611  0.9835
  224ccc    H3610583   4.332   1.595   1.469 -2.8310  1.0504  0.1370
  224ccc    O1210584   4.443   1.529   1.641 -0.1392 -0.2570 -0.2939
  224ccc    H3710585   4.424   1.436   1.618  1.9540 -1.1274  1.1883
  224ccc    O1310586   4.142   1.520   1.597 -0.1367  0.0517 -0.3817
  224ccc    H3810587   4.061   1.364   1.524  1.4311  0.9208  1.4002
  224ccc    H3910588   4.279   1.551   1.842 -0.8002 -0.3189 -0.3605
  224ccc     O510589   4.255   1.759   1.852  0.2699  0.1827  0.6255
  224ccc    H4010590   4.237   1.824   1.783 -1.9737 -0.7061  0.3020
  224ccc     N410591   3.859   1.466   1.853  0.8175 -0.3208 -1.0723
  224ccc    H4110592   3.375   1.554   2.065  1.0824  0.1145 -1.7388
  225ccc     N110593   3.745   1.086   1.764  0.3666 -0.5783 -0.1038
  225ccc     H410594   3.732   0.989   1.738 -0.7980 -0.8452  1.3616
  225ccc     C310595   3.718   1.200   1.670 -0.1434  0.1342  0.3019
  225ccc     H510596   3.613   1.229   1.676  0.6134  3.7925 -1.3378
  225ccc     C410597   3.735   1.142   1.526  0.2345  0.4328 -0.2582
  225ccc     H610598   3.786   1.284   1.688  1.3276 -0.9887  0.1847
  225ccc     H710599   3.676   1.050   1.515  1.7523 -0.5508 -0.4616
  225ccc     H810600   3.837   1.105   1.511 -0.1285 -0.3131 -1.0365
  225ccc     N210601   3.697   1.242   1.416 -0.0515 -0.4968 -0.0234
  225ccc     C510602   3.551   1.273   1.413 -0.2110 -0.6900 -0.1049
  225ccc     C610603   3.752   1.171   1.288  0.4748 -0.0487 -0.5544
  225ccc     H910604   3.859   1.162   1.310  0.1746  0.4921  1.3332
  225ccc     C710605   3.736   1.251   1.153  0.1559 -0.1884  0.3398
  225ccc    H1010606   3.694   1.078   1.288  0.1185  0.0949  2.2232
  225ccc    H1110607   3.635   1.257   1.112  0.3675  1.2641 -0.0291
  225ccc    H1210608   3.799   1.199   1.080 -0.0349  0.3862 -0.2400
  225ccc     C810609   3.790   1.393   1.172  0.2395  0.0654  0.0367
  225ccc     O210610   3.819   1.453   1.274  0.0683 -0.0793  0.1270
  225ccc    H1310611   3.509   1.243   1.510  1.1439 -0.0749  0.7016
  225ccc    H1410612   3.494   1.217   1.337 -0.1193 -1.2388  0.2203
  225ccc     C910613   3.515   1.419   1.390 -0.1752  0.3262 -0.1043
  225ccc    H1510614   3.406   1.428   1.387 -0.1573  0.3782 -2.7767
  225ccc    H1610615   3.549   1.455   1.292  0.3987  0.1056  0.0080
  225ccc    C1010616   3.565   1.519   1.496 -0.5563  0.6230 -1.0631
  225ccc     O410617   3.643   1.491   1.582 -0.4468 -0.1411 -0.4270
  225ccc    C1110618   4.118   1.861   0.884 -0.0265  0.3983 -0.2895
  225ccc    C1210619   3.956   1.803   0.776  0.2197 -0.1341  0.3948
  225ccc    H1710620   4.209   1.832   0.831 -0.1884 -0.6306 -0.0301
  225ccc    C1310621   3.830   1.669   0.854 -1.0760 -0.3505  0.9509
  225ccc    C1410622   3.857   1.602   1.041  0.7437  0.6232  0.5411
  225ccc    C1510623   4.016   1.656   1.142 -0.4508 -0.3870 -0.0704
  225ccc    H1810624   3.773   1.640   1.101 -0.1026 -0.7493  0.2810
  225ccc    H1910625   3.842   1.573   0.803  0.4125 -0.7999  2.0938
  225ccc    H2010626   4.074   1.563   1.147  0.5109  0.2486  1.4136
  225ccc     O110627   3.999   1.667   1.284 -0.4427 -0.1478 -0.8034
  225ccc     O610628   3.692   1.707   0.828  0.1155 -0.4259 -0.0098
  225ccc    C1610629   4.138   2.012   0.888 -0.0322 -0.1260 -0.0849
  225ccc    H2110630   3.692   1.733   0.734 -1.5762 -0.7073 -0.1189
  225ccc    H2210631   3.780   1.414   0.974 -0.5522  1.4981 -0.5558
  225ccc    H2310632   4.042   2.061   0.867 -0.0203 -0.2424 -0.4217
  225ccc    H2410633   4.205   2.037   0.804 -1.0187  0.1463 -0.8078
  225ccc     O710634   4.196   2.059   1.014 -0.4062  0.9424 -0.0777
  225ccc    H2510635   4.278   2.106   0.995  1.8908 -1.9006  1.9222
  225ccc     O810636   4.139   1.786   1.060 -0.1912  0.4524 -0.4205
  225ccc    H2610637   3.957   1.582   1.306 -0.0756 -0.3691 -0.9458
  225ccc    H2710638   3.899   1.896   0.763  2.8489  1.4812 -0.5388
  225ccc     O910639   3.994   1.753   0.644  0.6358 -0.1471 -0.2309
  225ccc    H2810640   3.912   1.747   0.592 -0.2319  2.1077  0.7640
  225ccc     N310641   3.821   1.455   1.058 -0.3671 -0.0381  0.1557
  225ccc    C1710642   3.577   2.040   1.646 -0.4197 -0.2809  0.2918
  225ccc    C1810643   3.453   1.957   1.689 -0.1206 -0.1987  0.0531
  225ccc    H2910644   3.555   2.076   1.545  0.8361 -1.8791 -0.5874
  225ccc    C1910645   3.419   1.831   1.603 -0.1382 -0.4243  0.4698
  225ccc    C2010646   3.548   1.754   1.576 -0.6034 -0.2996 -0.1383
  225ccc    C2110647   3.670   1.835   1.547  0.2458  0.0596  0.5377
  225ccc    H3010648   3.579   1.721   1.676  0.3419  2.0745  0.3997
  225ccc    H3110649   3.370   1.868   1.512  1.8736 -0.2793 -0.5964
  225ccc    H3210650   3.649   1.878   1.449 -0.8204  0.3815  0.8911
  225ccc    O1010651   3.787   1.756   1.563  0.1396 -0.1945 -0.4504
  225ccc    O1110652   3.334   1.748   1.689 -0.7164  0.6432  0.2950
  225ccc    C2210653   3.605   2.161   1.736 -0.1472 -0.6453 -0.3625
  225ccc    H3310654   3.282   1.695   1.626  2.6619 -0.6988 -1.6258
  225ccc    H3410655   3.441   1.652   1.419  0.4232  1.0811 -0.3875
  225ccc    H3510656   3.532   2.243   1.735 -1.2019 -1.4544  2.1081
  225ccc    H3610657   3.703   2.198   1.705 -0.3803  1.5718  1.2840
  225ccc    O1210658   3.632   2.126   1.874  0.3294  0.4696 -0.2053
  225ccc    H3710659   3.708   2.066   1.870  0.0583  0.1788 -2.0083
  225ccc    O1310660   3.681   1.939   1.643  0.2434  0.3076  0.2753
  225ccc    H3810661   3.783   1.713   1.650 -1.9972  1.1725  0.1751
  225ccc    H3910662   3.489   1.929   1.789  2.9513  0.1320 -0.8494
  225ccc     O510663   3.336   2.036   1.697 -0.0794  0.0663 -0.6501
  225ccc    H4010664   3.258   1.987   1.730 -1.0237  0.8451 -1.6575
  225ccc     N410665   3.519   1.640   1.483 -0.0383  0.0937  0.0185
  225ccc    H4110666   3.751   1.328   1.432 -0.4854  0.1935 -1.9301
  226ccc     N110667   6.071   2.711   0.847 -0.1183  0.1721  0.3739
  226ccc     H410668   6.067   2.733   0.748 -1.2090 -0.0961  0.3423
  226ccc     C310669   6.189   2.760   0.931  0.0436 -0.4300 -0.3962
  226ccc     H510670   6.196   2.707   1.027  0.5016 -0.8065 -0.6370
  226ccc     C410671   6.178   2.911   0.964  0.0761  0.2161 -0.6344
  226ccc     H610672   6.283   2.759   0.875 -0.3410  1.8159 -1.2093
  226ccc     H710673   6.278   2.948   0.993 -0.0698  0.3497 -0.2950
  226ccc     H810674   6.111   2.925   1.050 -1.1527  0.6393 -1.6329
  226ccc     N210675   6.121   3.003   0.864  0.2448  0.5119  0.8816
  226ccc     C510676   6.193   3.013   0.725  0.2087  0.1500  0.9399
  226ccc     C610677   6.102   3.142   0.922  0.5537 -0.7173 -0.3494
  226ccc     H910678   6.068   3.207   0.840 -2.1163 -1.2734  0.1957
  226ccc     C710679   6.003   3.162   1.039 -0.1043  0.0864 -0.3768
  226ccc    H1010680   6.196   3.188   0.953  0.4082  1.0508 -2.2831
  226ccc    H1110681   5.984   3.264   1.074  0.3823 -0.3367  1.2305
  226ccc    H1210682   6.044   3.119   1.131 -3.4985  1.0897  1.7896
  226ccc     C810683   5.868   3.103   1.020  0.7540 -0.1181 -0.4818
  226ccc     O210684   5.851   3.017   0.937 -0.3303 -0.1209  0.1652
  226ccc    H1310685   6.231   2.915   0.695  3.0530  1.3191  0.3731
  226ccc    H1410686   6.279   3.080   0.734  1.2762 -0.7709 -1.6555
  226ccc     C910687   6.110   3.071   0.607 -0.1886 -0.0490  0.0946
  226ccc    H1510688   6.174   3.069   0.517  0.4461 -1.2858  0.5562
  226ccc    H1610689   6.086   3.177   0.620  1.2326  0.3912 -0.6309
  226ccc    C1010690   5.976   2.992   0.583 -0.2032  0.6916  0.4747
  226ccc     O410691   5.958   2.878   0.636  0.1326 -0.5301 -0.4753
  226ccc    C1110692   5.358   3.041   1.231  0.0303 -0.0709 -0.6229
  226ccc    C1210693   5.385   3.151   1.125  0.2949 -0.5281 -0.6733
  226ccc    H1710694   5.370   3.073   1.336 -0.1040  0.7694 -0.8556
  226ccc    C1310695   5.531   3.196   1.120  0.4172 -0.4597  0.1275
  226ccc    C1410696   5.631   3.075   1.108  0.8295 -0.1950 -0.1553
  226ccc    C1510697   5.596   2.965   1.221 -0.1448  0.2653  0.1666
  226ccc    H1810698   5.615   3.021   1.013  0.8805  0.7029 -0.6835
  226ccc    H1910699   5.543   3.247   1.216 -0.9077 -1.7165  1.0063
  226ccc    H2010700   5.626   3.000   1.321 -2.2482  2.5718  0.0735
  226ccc     O110701   5.647   2.833   1.195 -0.0283 -0.6388 -0.5683
  226ccc     O610702   5.548   3.288   1.009  0.3820  0.2987  0.1355
  226ccc    C1610703   5.215   2.981   1.210 -0.1837 -0.0549  0.3500
  226ccc    H2110704   5.522   3.380   1.028 -0.8354 -0.4349  2.2880
  226ccc    H2210705   5.784   3.184   1.194  3.5254 -0.3122  0.0027
  226ccc    H2310706   5.196   2.971   1.102  1.3753 -0.2591  0.0735
  226ccc    H2410707   5.139   3.048   1.252 -0.7952 -0.4255 -0.1390
  226ccc     O710708   5.204   2.856   1.283 -0.1883 -0.3927  0.0593
  226ccc    H2510709   5.278   2.801   1.251  0.9399 -0.0329  1.8669
  226ccc     O810710   5.461   2.932   1.206  0.5933  0.0980 -0.2213
  226ccc    H2610711   5.566   2.782   1.211 -0.3336  0.7710  3.0989
  226ccc    H2710712   5.362   3.109   1.026  1.2118 -0.7948 -0.7829
  226ccc     O910713   5.308   3.268   1.163  0.3401 -0.1262 -0.0767
  226ccc    H2810714   5.315   3.339   1.097  0.9709  1.5486  1.6950
  226ccc     N310715   5.771   3.127   1.111 -0.0555  0.0136  0.1600
  226ccc    C1710716   5.485   3.028   0.362  0.5645 -0.1698 -0.1095
  226ccc    C1810717   5.599   2.981   0.268  0.0787  0.0332 -0.0762
  226ccc    H2910718   5.468   3.136   0.360 -1.1750 -0.4247 -1.0465
  226ccc    C1910719   5.735   3.035   0.320 -0.3194 -0.0825  0.1828
  226ccc    C2010720   5.760   2.997   0.467 -0.5032 -0.5742  0.1916
  226ccc    C2110721   5.639   3.052   0.548 -0.4010 -0.4958 -0.0076
  226ccc    H3010722   5.776   2.889   0.474  0.0835 -0.5574 -0.7395
  226ccc    H3110723   5.742   3.143   0.308 -0.5910 -0.1840 -0.9328
  226ccc    H3210724   5.629   3.162   0.546  0.3142 -0.4192  0.2140
  226ccc    O1010725   5.655   3.005   0.682  0.6325 -0.1566  0.1631
  226ccc    O1110726   5.841   2.973   0.252 -0.0253  0.2672 -0.1491
  226ccc    C2210727   5.342   2.979   0.332  0.2614  0.6622  0.4370
  226ccc    H3310728   5.845   3.006   0.161  0.9923 -3.3984 -1.6288
  226ccc    H3410729   5.920   3.132   0.441 -0.1505  0.5083 -0.1998
  226ccc    H3510730   5.320   3.014   0.230  3.0967  3.4520  0.6487
  226ccc    H3610731   5.270   3.027   0.400  1.1027  1.2691  0.9126
  226ccc    O1210732   5.334   2.842   0.335  0.0237  0.7309  0.2851
  226ccc    H3710733   5.270   2.810   0.401  1.6937 -1.8077  0.8453
  226ccc    O1310734   5.526   2.983   0.493  0.6820 -0.1688  0.2289
  226ccc    H3810735   5.680   3.087   0.729  0.4296 -0.6156  1.0877
  226ccc    H3910736   5.594   2.872   0.275  0.1607  0.1131  1.8297
  226ccc     O510737   5.574   3.024   0.141 -0.2680 -0.1722  0.3610
  226ccc    H4010738   5.653   3.025   0.084 -0.2727 -1.5079  0.3115
  226ccc     N410739   5.894   3.051   0.497  0.0412  0.0292 -0.7873
  226ccc    H4110740   6.026   2.968   0.845 -0.3928  0.5106  3.7128
  227ccc     N110741   5.439   2.529   0.276  0.0209  0.4331  0.2504
  227ccc     H410742   5.362   2.487   0.326  0.0728 -2.3785 -1.7766
  227ccc     C310743   5.431   2.541   0.129 -0.3757 -0.1378  0.0333
  227ccc     H510744   5.529   2.556   0.084 -0.9676  1.6146 -0.7515
  227ccc     C410745   5.344   2.660   0.087  0.6257  0.4597  0.0707
  227ccc     H610746   5.387   2.445   0.098  0.2193 -0.1143 -0.9248
  227ccc     H710747   5.395   2.754   0.111  1.0242  0.0295  0.9359
  227ccc     H810748   5.247   2.651   0.138  0.4919 -0.0119 -0.2630
  227ccc     N210749   5.310   2.668  -0.059  0.0377  0.5946 -0.2261
  227ccc     C510750   5.240   2.808  -0.090 -0.0009  0.7346 -0.1668
  227ccc     C610751   5.213   2.555  -0.110 -0.3522  0.2756  0.1039
  227ccc     H910752   5.243   2.465  -0.055  0.7893  0.1855 -0.6447
  227ccc     C710753   5.226   2.522  -0.261  0.1570  0.1918  0.1698
  227ccc    H1010754   5.108   2.573  -0.084 -0.7205 -2.0037  0.4112
  227ccc    H1110755   5.330   2.487  -0.264 -0.7425 -2.8813  1.5109
  227ccc    H1210756   5.207   2.601  -0.334 -0.6400 -1.7188 -1.7972
  227ccc     C810757   5.135   2.401  -0.292  0.2591 -0.3142 -0.5127
  227ccc     O210758   5.161   2.292  -0.247  0.3947 -0.4781 -0.1516
  227ccc    H1310759   5.157   2.807  -0.018  0.8891  2.0592  0.9233
  227ccc    H1410760   5.198   2.805  -0.191  0.5915  0.5242 -0.4080
  227ccc     C910761   5.319   2.941  -0.067  0.6020  0.0450  0.4564
  227ccc    H1510762   5.405   2.958  -0.134  0.7276  0.7802  0.7949
  227ccc    H1610763   5.361   2.936   0.034 -0.9699  0.3683  1.1575
  227ccc    C1010764   5.218   3.055  -0.086 -0.2388 -0.0350  0.3145
  227ccc     O410765   5.108   3.065  -0.039 -0.0158  0.1210  0.1410
  227ccc    C1110766   4.866   2.016  -0.362  0.1468  0.4307 -0.3426
  227ccc    C1210767   4.781   2.124  -0.299  0.1301  0.3504 -0.6177
  227ccc    H1710768   4.949   1.995  -0.293 -0.1725  2.1502  0.6251
  227ccc    C1310769   4.859   2.255  -0.275 -0.4270  0.5089 -0.1155
  227ccc    C1410770   4.926   2.303  -0.403 -0.0702 -0.0453  0.7858
  227ccc    C1510771   5.003   2.183  -0.477 -0.4255 -0.2447  0.1078
  227ccc    H1810772   4.855   2.337  -0.479  1.5548  0.2502 -0.6795
  227ccc    H1910773   4.936   2.230  -0.201 -0.1802  0.4918 -0.3756
  227ccc    H2010774   5.090   2.155  -0.417 -0.3066  0.3973  0.2458
  227ccc     O110775   5.033   2.217  -0.609  0.0496  0.0439  0.4022
  227ccc     O610776   4.771   2.351  -0.221  0.0914  0.0366 -0.5490
  227ccc    C1610777   4.802   1.886  -0.384  0.3986  0.3301 -0.5724
  227ccc    H2110778   4.826   2.403  -0.160 -1.0947  0.7544 -0.0584
  227ccc    H2210779   4.983   2.505  -0.389 -1.7122 -1.6574 -1.1436
  227ccc    H2310780   4.770   1.833  -0.293  1.2388  0.9957  0.1174
  227ccc    H2410781   4.877   1.817  -0.424  2.1106  0.9649  1.3810
  227ccc     O710782   4.694   1.912  -0.479 -0.0073  0.9874 -0.7882
  227ccc    H2510783   4.637   1.832  -0.475  0.1871  0.7781 -1.8593
  227ccc     O810784   4.916   2.066  -0.481 -0.9041 -0.2837  0.0259
  227ccc    H2610785   5.060   2.311  -0.615 -0.7425  0.1983 -1.2330
  227ccc    H2710786   4.698   2.147  -0.368  0.6643  2.0533 -0.7324
  227ccc     O910787   4.728   2.077  -0.171 -0.1547 -0.1575  0.2273
  227ccc    H2810788   4.637   2.110  -0.175  0.4033  1.5552  0.7292
  227ccc     N310789   5.029   2.415  -0.374  0.1425 -0.5691  0.1836
  227ccc    C1710790   5.193   3.540  -0.260 -0.6363 -0.2377 -0.2007
  227ccc    C1810791   5.163   3.444  -0.377 -0.2578  0.1951 -0.2497
  227ccc    H2910792   5.301   3.559  -0.265 -0.6326  0.0767  0.8141
  227ccc    C1910793   5.229   3.304  -0.348  0.1391  0.4291  0.7834
  227ccc    C2010794   5.193   3.271  -0.199 -0.4178 -0.0985 -0.2117
  227ccc    C2110795   5.234   3.378  -0.099 -0.4051  0.2807 -0.4864
  227ccc    H3010796   5.084   3.265  -0.184 -0.4917  0.3591 -0.5394
  227ccc    H3110797   5.337   3.310  -0.366 -0.1471  1.1231 -0.8137
  227ccc    H3210798   5.342   3.400  -0.102 -0.5713  1.0631 -1.1767
  227ccc    O1010799   5.186   3.338   0.032  0.1622 -0.6512  0.1401
  227ccc    O1110800   5.171   3.203  -0.432 -0.1417 -0.2204 -0.5196
  227ccc    C2210801   5.117   3.675  -0.280  0.4388  0.5513 -0.3351
  227ccc    H3310802   5.225   3.123  -0.424 -1.6275 -1.3862 -1.5967
  227ccc    H3410803   5.356   3.145  -0.202 -0.6943 -0.7447  0.2063
  227ccc    H3510804   5.028   3.672  -0.217 -0.5416  0.0259 -1.6914
  227ccc    H3610805   5.078   3.682  -0.382 -1.7484  0.5227  0.4502
  227ccc    O1210806   5.190   3.797  -0.253  0.1411  0.0334 -0.9927
  227ccc    H3710807   5.125   3.856  -0.211  1.9805  0.0654  2.0679
  227ccc    O1310808   5.154   3.487  -0.134  0.1566  0.0380  0.1804
  227ccc    H3810809   5.262   3.294   0.073 -0.0498 -0.7124  0.4660
  227ccc    H3910810   5.054   3.431  -0.375 -0.6165  2.6562 -0.6976
  227ccc     O510811   5.198   3.494  -0.508  0.4566  0.0949 -0.4982
  227ccc    H4010812   5.277   3.550  -0.520  0.9216 -0.2333  0.8295
  227ccc     N410813   5.258   3.142  -0.176 -0.8384 -0.3132 -0.2850
  227ccc    H4110814   5.401   2.656  -0.104  0.0998 -1.0552  0.2841
  228ccc     N110815   4.577   1.879   1.028  0.1971 -0.5788 -0.0804
  228ccc     H410816   4.668   1.850   1.062 -0.4977 -0.6646  1.8345
  228ccc     C310817   4.457   1.834   1.105 -0.5239  0.2329  0.0534
  228ccc     H510818   4.389   1.919   1.115  0.0711  0.6665  0.4992
  228ccc     C410819   4.504   1.789   1.245 -0.2516 -0.6454 -0.6117
  228ccc     H610820   4.416   1.747   1.053  0.3738 -0.1327 -0.0649
  228ccc     H710821   4.567   1.701   1.230  1.4524  0.3678  0.2938
  228ccc     H810822   4.419   1.766   1.311 -1.0606  0.6649 -1.1552
  228ccc     N210823   4.605   1.883   1.322 -0.0333  0.5084  0.6176
  228ccc     C510824   4.676   1.795   1.427 -0.0120  0.4474 -1.1017
  228ccc     C610825   4.537   2.007   1.383 -1.1974 -0.0573  0.1131
  228ccc     H910826   4.443   1.968   1.424  0.8524 -3.9956  1.5161
  228ccc     C710827   4.486   2.123   1.300  0.3191  0.2342 -0.2526
  228ccc    H1010828   4.592   2.045   1.470  0.1809  0.4010 -0.9168
  228ccc    H1110829   4.390   2.095   1.255  0.3150  0.8638 -0.6469
  228ccc    H1210830   4.545   2.128   1.207 -0.7434  0.7104 -0.9218
  228ccc     C810831   4.452   2.250   1.375  0.4642 -0.1836 -0.1684
  228ccc     O210832   4.454   2.257   1.498 -0.4156  0.6449  0.4680
  228ccc    H1310833   4.702   1.694   1.396 -2.3515 -0.5947  0.0646
  228ccc    H1410834   4.588   1.782   1.492 -0.8717 -0.5764 -2.3971
  228ccc     C910835   4.796   1.855   1.497 -0.9215 -0.4959  0.2838
  228ccc    H1510836   4.772   1.956   1.533 -5.0482 -0.6337 -1.5118
  228ccc    H1610837   4.881   1.866   1.429 -0.0804 -0.2739  1.3536
  228ccc    C1010838   4.846   1.780   1.622  0.1056 -0.0173  0.2527
  228ccc     O410839   4.785   1.688   1.679 -0.6715 -0.4774  0.0999
  228ccc    C1110840   4.089   2.655   1.367 -0.1011 -0.3074 -0.5654
  228ccc    C1210841   4.077   2.516   1.441 -0.0793 -0.4545  0.0891
  228ccc    H1710842   4.046   2.641   1.267 -0.2547 -1.5169 -0.3551
  228ccc    C1310843   4.165   2.405   1.371 -0.1769  0.0243 -0.2747
  228ccc    C1410844   4.313   2.452   1.363  0.8606 -0.0437  0.1196
  228ccc    C1510845   4.315   2.585   1.276  0.2270 -0.1359 -0.2410
  228ccc    H1810846   4.354   2.481   1.460 -0.8440  1.1882  0.5109
  228ccc    H1910847   4.163   2.317   1.437 -1.7718  1.1242  1.2280
  228ccc    H2010848   4.283   2.561   1.174  0.9127 -2.1347 -0.0335
  228ccc     O110849   4.442   2.636   1.271  0.2571  0.0735  0.1014
  228ccc     O610850   4.121   2.366   1.237 -0.3615 -0.4606 -0.0433
  228ccc    C1610851   4.030   2.771   1.452  0.6442 -0.7334 -0.2760
  228ccc    H2110852   4.026   2.346   1.244 -0.7471  0.5726 -1.7311
  228ccc    H2210853   4.373   2.325   1.200  1.2130 -0.4963  0.4060
  228ccc    H2310854   4.095   2.798   1.536 -0.0218  0.9430 -0.2472
  228ccc    H2410855   3.929   2.749   1.491 -0.1004  1.1455 -0.9909
  228ccc     O710856   4.007   2.884   1.363  0.2842  0.6950 -0.0820
  228ccc    H2510857   3.952   2.856   1.289 -0.1893  0.8579  0.2059
  228ccc     O810858   4.235   2.680   1.345  0.2081 -0.4370 -0.5037
  228ccc    H2610859   4.475   2.605   1.185 -1.8385 -1.7717 -0.1094
  228ccc    H2710860   4.114   2.531   1.544  0.3920 -4.6845  0.7110
  228ccc     O910861   3.947   2.465   1.459 -0.5750 -0.6222  0.6948
  228ccc    H2810862   3.949   2.375   1.497 -0.9719 -1.0934 -0.3487
  228ccc     N310863   4.393   2.346   1.298  0.3691  0.0444  0.4715
  228ccc    C1710864   5.322   1.742   1.871 -0.4830  0.1941 -0.1108
  228ccc    C1810865   5.226   1.847   1.938 -0.3255 -0.4568 -0.1641
  228ccc    H2910866   5.365   1.803   1.790  0.4330 -1.8481 -1.2365
  228ccc    C1910867   5.104   1.885   1.853 -0.8855 -0.1816  0.4747
  228ccc    C2010868   5.047   1.772   1.769  0.1383  0.0758  1.3490
  228ccc    C2110869   5.153   1.667   1.714 -0.0261  0.5603  0.6400
  228ccc    H3010870   4.972   1.725   1.833  0.1265  0.2535  1.4662
  228ccc    H3110871   5.150   1.952   1.780  0.0641 -1.3443 -0.0321
  228ccc    H3210872   5.218   1.706   1.636 -1.0682 -1.2396 -1.2124
  228ccc    O1010873   5.092   1.549   1.665  0.2003  0.0146  0.3211
  228ccc    O1110874   5.000   1.948   1.935  0.4884 -0.6671  0.4565
  228ccc    C2210875   5.434   1.693   1.968  0.2299 -0.1013  0.0526
  228ccc    H3310876   4.994   1.902   2.021 -0.3716 -2.0522 -0.3139
  228ccc    H3410877   5.010   1.905   1.606 -0.1660  0.0039  0.1748
  228ccc    H3510878   5.512   1.769   1.977  2.3758 -2.0168 -1.3828
  228ccc    H3610879   5.485   1.618   1.906 -1.1584 -1.9915  1.0862
  228ccc    O1210880   5.394   1.654   2.100 -0.2794  0.2830 -0.0541
  228ccc    H3710881   5.466   1.673   2.163 -1.7874  2.8941  1.0141
  228ccc    O1310882   5.245   1.630   1.818  0.2048  0.1909 -0.2317
  228ccc    H3810883   5.062   1.513   1.750  2.1132 -0.0205  1.0338
  228ccc    H3910884   5.183   1.794   2.024 -0.4517 -1.6882 -0.9685
  228ccc     O510885   5.300   1.968   1.966 -0.2048  0.1131 -0.3327
  228ccc    H4010886   5.362   1.938   2.034  1.2783  0.5748 -1.4195
  228ccc     N410887   4.970   1.829   1.661  0.3068 -0.1693  0.2816
  228ccc    H4110888   4.680   1.917   1.261  1.2475  0.1264  1.9374
  229ccc     N110889   4.411   1.547   0.612 -0.3689 -0.1667  0.7394
  229ccc     H410890   4.495   1.510   0.656 -1.1939  1.0581  3.5844
  229ccc     C310891   4.284   1.533   0.686  0.2926 -0.4678 -1.2403
  229ccc     H510892   4.204   1.589   0.635 -0.1607 -0.2817 -0.3472
  229ccc     C410893   4.309   1.592   0.828  0.0136  0.3622  0.0089
  229ccc     H610894   4.268   1.424   0.685  1.5894 -0.6796 -0.5478
  229ccc     H710895   4.313   1.701   0.830 -2.0851  0.5140 -0.6811
  229ccc     H810896   4.404   1.561   0.873 -0.6397 -1.4314  0.2427
  229ccc     N210897   4.198   1.568   0.941  0.5399  0.3544 -0.4172
  229ccc     C510898   4.194   1.423   0.981  0.0149  0.1220  0.0207
  229ccc     C610899   4.058   1.633   0.909  0.1071 -0.8863 -0.4093
  229ccc     H910900   4.066   1.619   0.801 -2.6867 -1.1889 -0.6673
  229ccc     C710901   3.920   1.828   1.012 -0.3194  0.0323 -0.5601
  229ccc    H1010902   4.013   1.533   0.911 -1.4266 -0.2616  2.0005
  229ccc    H1110903   3.811   1.823   1.002 -0.1480 -1.5604 -1.9343
  229ccc    H1210904   3.914   1.924   0.959  1.2993 -0.1317 -1.0967
  229ccc     C810905   3.908   1.892   1.159 -0.7619 -0.2113 -0.1791
  229ccc     O210906   3.812   1.875   1.231 -0.4365  0.4100 -0.5653
  229ccc    H1310907   4.153   1.362   0.900  1.6024 -0.9107 -0.0381
  229ccc    H1410908   4.117   1.420   1.060  1.0128  4.8287  1.4868
  229ccc     C910909   4.322   1.350   1.028  0.1808 -0.4716 -0.2047
  229ccc    H1510910   4.399   1.353   0.950  1.3548 -1.0890  0.8811
  229ccc    H1610911   4.295   1.245   1.044  1.7946 -0.6648  1.7410
  229ccc    C1010912   4.370   1.406   1.161 -0.1334 -0.1098 -0.1295
  229ccc     O410913   4.345   1.515   1.200 -0.1901 -0.2376  0.0888
  229ccc    C1110914   3.976   2.115   1.609  0.3294 -0.2941  0.2557
  229ccc    C1210915   4.104   2.040   1.573 -0.5077 -0.1365 -0.4946
  229ccc    H1710916   3.906   2.035   1.638  2.2103 -2.0659  0.1556
  229ccc    C1310917   4.072   1.953   1.449 -0.0385  0.1099 -0.2570
  229ccc    C1410918   4.020   2.042   1.329 -0.0885 -0.2107 -0.1962
  229ccc    C1510919   3.892   2.122   1.375  0.3029 -0.4233 -0.3862
  229ccc    H1810920   4.098   2.118   1.314  0.4101 -0.1095  2.4650
  229ccc    H1910921   3.982   1.894   1.467  0.1412 -0.7110 -1.8552
  229ccc    H2010922   3.811   2.050   1.387 -0.0908 -0.3729 -2.4526
  229ccc     O110923   3.851   2.225   1.288  0.3221 -0.3099 -0.1061
  229ccc     O610924   4.185   1.873   1.410 -0.2709 -0.2933 -0.1340
  229ccc    C1610925   3.997   2.217   1.725 -0.0925  0.3058  0.6683
  229ccc    H2110926   4.144   1.806   1.354 -1.1457 -0.6800  0.9263
  229ccc    H2210927   4.098   1.972   1.149  0.0277  0.3539  0.7466
  229ccc    H2310928   4.016   2.161   1.817 -0.9815 -0.3896  0.4429
  229ccc    H2410929   3.901   2.266   1.747 -0.7141 -0.4370 -0.2844
  229ccc     O710930   4.104   2.310   1.703  0.3964 -0.3338  0.3143
  229ccc    H2510931   4.101   2.380   1.771  1.4647 -0.1377  0.1674
  229ccc     O810932   3.923   2.192   1.498  0.3185 -0.2824 -0.3624
  229ccc    H2610933   3.783   2.268   1.341  0.9759  2.0035 -1.0277
  229ccc    H2710934   4.184   2.108   1.542  0.4854 -1.4318 -0.8437
  229ccc     O910935   4.150   1.968   1.693 -0.1835  0.1186 -0.0126
  229ccc    H2810936   4.173   2.028   1.766 -3.5027  1.2434  0.2572
  229ccc     N310937   4.010   1.972   1.200 -0.2926 -0.6164  0.2184
  229ccc    C1710938   4.718   1.251   1.554 -0.0416 -0.1364 -0.1081
  229ccc    C1810939   4.762   1.360   1.454 -0.0382  0.6585  0.9105
  229ccc    H2910940   4.737   1.151   1.513 -1.3111 -1.4858  2.3808
  229ccc    C1910941   4.684   1.356   1.317  0.0775  0.6174 -0.0087
  229ccc    C2010942   4.532   1.364   1.350  0.1616  0.0399 -0.1142
  229ccc    C2110943   4.491   1.266   1.463 -0.5225 -0.3855  0.2342
  229ccc    H3010944   4.510   1.468   1.375 -2.6489  0.2486 -2.8773
  229ccc    H3110945   4.704   1.268   1.254  0.9681  1.1135 -0.4482
  229ccc    H3210946   4.490   1.158   1.439 -1.9480 -0.2797 -0.2716
  229ccc    O1010947   4.366   1.289   1.524 -0.1693 -0.3146  0.2801
  229ccc    O1110948   4.723   1.484   1.255  0.1179  0.9432  0.4048
  229ccc    C2210949   4.783   1.285   1.694  0.0738 -0.1834 -0.7117
  229ccc    H3310950   4.673   1.488   1.172  1.0403 -2.2840 -0.4752
  229ccc    H3410951   4.478   1.241   1.185 -0.7318 -0.2485  1.5867
  229ccc    H3510952   4.791   1.394   1.705 -2.1034  0.0079 -0.5116
  229ccc    H3610953   4.885   1.246   1.689 -0.5810 -1.8148 -2.1628
  229ccc    O1210954   4.704   1.233   1.800 -0.4431  0.4783  1.0715
  229ccc    H3710955   4.720   1.138   1.789  0.8260  0.6727  1.1059
  229ccc    O1310956   4.578   1.276   1.569  0.0983 -0.2439 -0.2451
  229ccc    H3810957   4.356   1.219   1.591 -1.9966 -0.5466 -0.1760
  229ccc    H3910958   4.743   1.452   1.510 -1.7598 -0.1840  1.7867
  229ccc     O510959   4.905   1.351   1.434  0.4066 -0.0903  0.5703
  229ccc    H4010960   4.929   1.425   1.377 -1.7591  1.5253  1.6113
  229ccc     N410961   4.451   1.330   1.226 -0.5594  0.4210  0.2884
  229ccc    H4110962   4.227   1.619   1.026  0.1785 -1.5901  0.9477
  230ccc     N110963   3.253   3.082   0.194  0.2718 -0.1307 -0.0584
  230ccc     H410964   3.246   3.059   0.095  2.0328 -1.5763  0.1066
  230ccc     C310965   3.259   2.973   0.297 -0.3272 -0.1695  0.0658
  230ccc     H510966   3.342   3.002   0.362 -1.4288 -0.7081  1.7869
  230ccc     C410967   3.288   2.832   0.241 -0.6470 -0.7292 -0.3978
  230ccc     H610968   3.164   2.971   0.352 -1.1898  2.2421 -1.2180
  230ccc     H710969   3.218   2.796   0.165 -0.5320  0.3091 -1.0030
  230ccc     H810970   3.288   2.764   0.328  2.9144 -0.4460 -0.0400
  230ccc     N210971   3.424   2.823   0.169  0.0283  0.3734 -0.7994
  230ccc     C510972   3.430   2.702   0.074 -0.0235  0.3578  0.4325
  230ccc     C610973   3.546   2.818   0.266  0.6367 -0.1995  0.7034
  230ccc     H910974   3.633   2.854   0.210  1.3342 -0.4675  1.6059
  230ccc     C710975   3.595   2.681   0.327 -0.3433  0.0658  0.8396
  230ccc    H1010976   3.534   2.889   0.348  2.1397 -0.0354  0.7993
  230ccc    H1110977   3.629   2.621   0.242 -0.7571  1.0442 -0.0431
  230ccc    H1210978   3.519   2.625   0.383  0.6029 -0.3926  1.7007
  230ccc     C810979   3.724   2.688   0.406 -0.2170  0.1152 -0.2066
  230ccc     O210980   3.807   2.775   0.392 -0.7777 -0.0514 -0.5397
  230ccc    H1310981   3.339   2.679   0.017  0.4880 -3.0982  0.7793
  230ccc    H1410982   3.435   2.612   0.137 -1.4371  1.5942  2.4540
  230ccc     C910983   3.545   2.692  -0.028  0.4469 -0.0482  0.0490
  230ccc    H1510984   3.527   2.604  -0.091  0.3544  1.2579 -1.8271
  230ccc    H1610985   3.641   2.684   0.025  1.0639  0.2092 -1.0014
  230ccc    C1010986   3.547   2.811  -0.120  0.4579  0.1388 -0.1684
  230ccc     O410987   3.495   2.919  -0.107 -0.0949  0.7352  0.1715
  230ccc    C1110988   4.024   2.483   0.815  0.7816 -0.4785  0.0982
  230ccc    C1210989   4.067   2.468   0.663  0.7616 -0.4241  0.8499
  230ccc    H1710990   3.962   2.397   0.844 -0.3501  0.0659 -0.6136
  230ccc    C1310991   3.944   2.465   0.567 -0.8379 -0.3118 -0.0835
  230ccc    C1410992   3.854   2.590   0.592 -0.5500  0.0615  0.8249
  230ccc    C1510993   3.823   2.607   0.742  0.3079 -0.3853 -0.8785
  230ccc    H1810994   3.921   2.674   0.571  0.1344 -0.4774  0.8254
  230ccc    H1910995   3.882   2.377   0.589 -0.0517 -0.1419  3.4355
  230ccc    H2010996   3.754   2.526   0.768 -1.5496  1.3102 -0.2209
  230ccc     O110997   3.767   2.735   0.766 -0.3737 -0.3545 -0.0222
  230ccc     O610998   3.988   2.472   0.429  0.0144 -0.0877  0.6709
  230ccc    C1610999   4.139   2.496   0.919 -0.2549  0.1973 -0.1493
  230ccc    H2111000   4.026   2.383   0.417  1.0016  0.1298  1.9487
  230ccc    H2211001   3.674   2.519   0.519 -0.9438  1.1044  0.2714
  230ccc    H2311002   4.192   2.400   0.921  1.6080  1.1652  0.3866
  230ccc    H2411003   4.094   2.508   1.019 -0.1955 -1.0215  0.0373
  230ccc     O711004   4.231   2.603   0.886 -0.6031  0.4050 -0.0526
  230ccc    H2511005   4.314   2.569   0.925 -1.4552 -2.4459 -0.5041
  230ccc     O811006   3.943   2.602   0.820 -0.3113  0.4499 -0.0578
  230ccc    H2611007   3.813   2.776   0.842 -1.3496 -0.6116  0.7396
  230ccc    H2711008   4.130   2.554   0.639  0.9862 -0.4831  1.2187
  230ccc     O911009   4.140   2.350   0.628  0.5784  0.1270  0.6033
  230ccc    H2811010   4.077   2.276   0.628 -0.4501  0.9379 -1.0484
  230ccc     N311011   3.741   2.594   0.504 -0.0706  0.4868  0.9478
  230ccc    C1711012   4.000   2.959  -0.320  0.1215 -0.9968  0.4709
  230ccc    C1811013   3.892   2.960  -0.436  0.0424 -0.0021 -0.0205
  230ccc    H2911014   4.043   2.858  -0.320 -0.0435 -1.0694  0.4256
  230ccc    C1911015   3.780   2.864  -0.407  0.0090  0.6254  0.2410
  230ccc    C2011016   3.730   2.884  -0.262 -0.3951 -0.0402 -0.4138
  230ccc    C2111017   3.845   2.881  -0.158  0.2433  0.1257 -0.4426
  230ccc    H3011018   3.679   2.981  -0.258 -0.7128 -0.0966 -2.2786
  230ccc    H3111019   3.814   2.761  -0.427 -1.0476  0.6364 -1.9575
  230ccc    H3211020   3.895   2.784  -0.145  1.3022  0.7140  0.0189
  230ccc    O1011021   3.802   2.925  -0.032  1.0125 -0.4201  0.9668
  230ccc    O1111022   3.667   2.879  -0.482 -0.1808  0.2903  0.2872
  230ccc    C2211023   4.108   3.059  -0.348 -0.4018  1.0498 -0.3081
  230ccc    H3311024   3.606   2.820  -0.434  0.3269  2.0299  3.2831
  230ccc    H3411025   3.667   2.687  -0.227  0.4439  0.1256  2.3717
  230ccc    H3511026   4.163   3.032  -0.439  1.4892 -2.2030  1.6341
  230ccc    H3611027   4.169   3.033  -0.261 -1.8051  0.6820  0.5929
  230ccc    O1211028   4.065   3.194  -0.354  0.3274 -0.1686 -0.4249
  230ccc    H3711029   4.123   3.242  -0.415 -1.0631  1.6784 -0.4077
  230ccc    O1311030   3.940   2.985  -0.193  0.5840  0.6666  0.0099
  230ccc    H3811031   3.746   3.003  -0.048 -0.6895 -1.4233  1.7244
  230ccc    H3911032   3.856   3.063  -0.441  0.2532  0.0420 -0.8771
  230ccc     O511033   3.953   2.907  -0.557  0.5066 -0.0576  0.1090
  230ccc    H4011034   3.923   2.972  -0.623  0.5349 -0.4583 -0.2936
  230ccc     N411035   3.626   2.780  -0.222  0.2176  0.1699  0.5553
  230ccc    H4111036   3.420   2.905   0.108 -2.0475 -0.4977 -1.9333
  231ccc     N111037   2.715   3.297  -0.177  0.0634  0.1474 -0.7707
  231ccc     H411038   2.688   3.237  -0.101 -2.9839 -1.1424 -2.7110
  231ccc     C311039   2.655   3.267  -0.304 -0.2904 -0.5831 -1.0268
  231ccc     H511040   2.727   3.306  -0.376  1.6266  1.0301  1.5763
  231ccc     C411041   2.514   3.333  -0.312  0.3068  0.3583 -0.6145
  231ccc     H611042   2.651   3.159  -0.320 -0.0446 -0.5804 -1.1115
  231ccc     H711043   2.543   3.439  -0.313  0.9485  0.2474  1.7519
  231ccc     H811044   2.454   3.318  -0.221  0.7376  0.9490 -0.2303
  231ccc     N211045   2.441   3.302  -0.440  0.3919 -0.7240  0.1767
  231ccc     C511046   2.502   3.390  -0.550  0.5273 -0.6799  0.5357
  231ccc     C611047   2.287   3.332  -0.426 -0.4632 -0.6735 -0.0295
  231ccc     H911048   2.245   3.268  -0.347 -0.2298 -1.7764 -0.7783
  231ccc     C711049   2.192   3.313  -0.548 -0.0265 -0.0284  0.4904
  231ccc    H1011050   2.275   3.438  -0.399  1.3464  0.2887 -2.6588
  231ccc    H1111051   2.197   3.206  -0.573  1.3596  0.3645 -1.0763
  231ccc    H1211052   2.226   3.369  -0.636  0.9039 -1.5440 -0.1514
  231ccc     C811053   2.054   3.359  -0.515  0.0706  0.3897 -0.3120
  231ccc     O211054   1.997   3.315  -0.416  0.4559  0.4891  0.3612
  231ccc    H1311055   2.599   3.427  -0.516  0.5429 -0.8119  0.6354
  231ccc    H1411056   2.434   3.475  -0.564  1.1131 -0.2240  0.4065
  231ccc     C911057   2.518   3.317  -0.687 -0.6185 -0.4071  0.4754
  231ccc    H1511058   2.532   3.388  -0.770 -0.0440 -0.6160  0.3918
  231ccc    H1611059   2.424   3.268  -0.713 -0.6857 -0.5300  0.9400
  231ccc    C1011060   2.623   3.207  -0.684 -0.2343  0.0054 -0.1922
  231ccc     O411061   2.684   3.158  -0.592 -0.1150  0.1991 -0.6838
  231ccc    C1111062   1.662   3.728  -0.588 -0.5035  0.9251 -0.1185
  231ccc    C1211063   1.640   3.594  -0.668  0.4281  0.3696 -0.2398
  231ccc    H1711064   1.729   3.790  -0.649  1.9301 -1.7986 -0.4194
  231ccc    C1311065   1.775   3.525  -0.690  0.6469  0.3090  0.0088
  231ccc    C1411066   1.858   3.508  -0.562 -0.2234 -0.5648  0.1931
  231ccc    C1511067   1.869   3.647  -0.482 -0.0475  0.2895  0.6453
  231ccc    H1811068   1.803   3.432  -0.505  1.6225  0.1608  3.1645
  231ccc    H1911069   1.834   3.596  -0.750  1.8827 -1.0681 -0.4870
  231ccc    H2011070   1.937   3.714  -0.536 -1.2574 -0.4581 -1.9572
  231ccc     O111071   1.922   3.631  -0.351  0.0639 -0.4037  0.1589
  231ccc     O611072   1.752   3.400  -0.761 -0.1178  0.5100 -0.1042
  231ccc    C1611073   1.522   3.805  -0.557  0.7693 -0.3028  0.2040
  231ccc    H2111074   1.708   3.420  -0.846  1.7079  2.7342 -0.6207
  231ccc    H2211075   2.054   3.509  -0.653  1.4754  1.8706  1.7617
  231ccc    H2311076   1.456   3.744  -0.494 -1.3296  0.7665 -0.8763
  231ccc    H2411077   1.465   3.823  -0.649 -0.4857 -0.2713  0.9595
  231ccc     O711078   1.561   3.932  -0.501 -0.1259 -0.5628 -0.4311
  231ccc    H2511079   1.656   3.932  -0.522 -0.1191 -0.2323 -0.4108
  231ccc     O811080   1.731   3.699  -0.464  0.1942 -0.1590 -0.2519
  231ccc    H2611081   1.917   3.536  -0.332 -0.9137  0.1266  3.0477
  231ccc    H2711082   1.584   3.521  -0.609 -0.3242  2.5151  1.8571
  231ccc     O911083   1.587   3.627  -0.803  0.3853  0.2417 -0.1696
  231ccc    H2811084   1.513   3.571  -0.829  0.1722  0.2758  0.3519
  231ccc     N311085   1.995   3.457  -0.589  0.2803  0.5442 -0.2980
  231ccc    C1711086   2.749   3.262  -1.221  0.5686  0.0723  0.8365
  231ccc    C1811087   2.637   3.161  -1.187  0.5186  0.1502  0.1373
  231ccc    H2911088   2.846   3.213  -1.214  0.1432 -1.2153 -1.4181
  231ccc    C1911089   2.643   3.099  -1.047 -0.4107 -0.0985 -0.2608
  231ccc    C2011090   2.640   3.212  -0.945  0.2087 -0.7436 -0.5598
  231ccc    C2111091   2.760   3.304  -0.982 -0.2775 -0.1863  0.1716
  231ccc    H3011092   2.537   3.247  -0.964 -0.3353 -2.0839 -0.2070
  231ccc    H3111093   2.734   3.041  -1.029  0.3646  1.6846  1.9085
  231ccc    H3211094   2.855   3.249  -0.990 -1.5488 -2.8019  1.6020
  231ccc    O1011095   2.769   3.418  -0.893  0.1274 -0.0382 -0.0172
  231ccc    O1111096   2.527   3.011  -1.030 -0.0516  0.4513  0.0155
  231ccc    C2211097   2.718   3.329  -1.358 -0.0160 -0.6536  0.4416
  231ccc    H3311098   2.452   3.050  -1.078 -1.1725 -1.0414  0.4706
  231ccc    H3411099   2.718   3.076  -0.796  0.0712  0.6867  0.1242
  231ccc    H3511100   2.631   3.388  -1.326  0.4440  0.3209 -0.0408
  231ccc    H3611101   2.693   3.269  -1.447 -1.7807  0.0496  0.4320
  231ccc    O1211102   2.835   3.406  -1.391 -0.7885  0.3145  0.1785
  231ccc    H3711103   2.848   3.473  -1.321 -0.1510 -0.6084  0.9700
  231ccc    O1311104   2.728   3.358  -1.112  1.0507 -0.0017  0.5140
  231ccc    H3811105   2.852   3.461  -0.917  1.0756 -0.6048  1.9946
  231ccc    H3911106   2.544   3.219  -1.196  0.2620  0.1954  2.4058
  231ccc     O511107   2.648   3.051  -1.285 -0.7227 -0.4020 -0.3080
  231ccc    H4011108   2.573   2.990  -1.271  2.2763 -3.7570  3.3735
  231ccc     N411109   2.651   3.153  -0.802 -0.2129  0.5081  0.8909
  231ccc    H4111110   2.457   3.204  -0.469  0.0845 -0.4424 -1.0082
  232ccc     N111111   1.910   2.878   1.187 -0.3445  0.0838  0.0686
  232ccc     H411112   1.885   2.892   1.090  1.5798  1.7192 -0.2392
  232ccc     C311113   1.833   2.955   1.281  0.1602 -0.7086  0.2230
  232ccc     H511114   1.890   2.997   1.365 -0.3979  2.1720 -0.7389
  232ccc     C411115   1.720   2.871   1.340  0.5331 -0.4832 -0.4537
  232ccc     H611116   1.806   3.039   1.216 -2.2067 -0.2888  1.6313
  232ccc     H711117   1.656   2.825   1.264 -0.8294 -4.1851  2.5643
  232ccc     H811118   1.660   2.942   1.399  1.4830 -0.0348 -0.0090
  232ccc     N211119   1.768   2.759   1.432 -0.1329 -0.3143  0.2192
  232ccc     C511120   1.668   2.647   1.435  0.4816  0.5361  0.0935
  232ccc     C611121   1.789   2.803   1.581 -0.2810 -0.2064 -0.3196
  232ccc     H911122   1.729   2.895   1.587  1.8363  1.3534 -1.7546
  232ccc     C711123   1.932   2.835   1.625  0.1824 -0.5513  0.0384
  232ccc    H1011124   1.744   2.732   1.651 -1.4592  1.5283  0.7673
  232ccc    H1111125   1.935   2.881   1.725 -0.0622 -2.3781  0.9282
  232ccc    H1211126   1.966   2.914   1.557  1.0186 -0.4047  0.6254
  232ccc     C811127   2.031   2.717   1.630  0.6643  0.4176  0.3886
  232ccc     O211128   2.007   2.604   1.589 -0.4742  0.2763 -0.6239
  232ccc    H1311129   1.570   2.692   1.454  0.1030 -0.7702  1.3449
  232ccc    H1411130   1.693   2.583   1.520 -0.6789 -0.5508 -0.3425
  232ccc     C911131   1.653   2.563   1.303 -0.0755 -0.2888  0.2382
  232ccc    H1511132   1.617   2.625   1.219 -1.0772 -2.2780 -0.8728
  232ccc    H1611133   1.559   2.507   1.314 -1.4040  1.5858 -0.7557
  232ccc    C1011134   1.773   2.483   1.258 -0.7159 -0.3524  0.7054
  232ccc     O411135   1.889   2.493   1.296  0.2074  0.2098 -0.0068
  232ccc    C1111136   2.541   2.583   1.652 -0.2450 -0.1975  1.1336
  232ccc    C1211137   2.487   2.595   1.799 -0.6647 -0.4956 -0.0785
  232ccc    H1711138   2.576   2.674   1.603  0.8491  0.0845  2.3676
  232ccc    C1311139   2.351   2.672   1.801  0.0757  0.4425  0.4030
  232ccc    C1411140   2.253   2.632   1.687 -1.0427  0.1253 -0.0866
  232ccc    C1511141   2.326   2.618   1.547  0.4540  0.0478  0.2483
  232ccc    H1811142   2.206   2.537   1.713  0.2862 -0.6873 -0.5705
  232ccc    H1911143   2.365   2.778   1.779  0.3317  0.6983  1.7021
  232ccc    H2011144   2.358   2.719   1.517  1.3128 -0.0525  0.8087
  232ccc     O111145   2.233   2.555   1.457  0.3146  0.3962  0.4917
  232ccc     O611146   2.279   2.670   1.929 -0.4745  0.2389  0.6281
  232ccc    C1611147   2.659   2.488   1.661  0.6526  0.0798  0.1303
  232ccc    H2111148   2.225   2.590   1.923 -1.7289  1.0483  0.7487
  232ccc    H2211149   2.179   2.830   1.707 -1.1974  0.1638  0.4948
  232ccc    H2311150   2.637   2.401   1.724  1.7837 -0.2506  0.0889
  232ccc    H2411151   2.744   2.532   1.715  0.2862  0.6807  0.2247
  232ccc     O711152   2.701   2.443   1.533  0.1210  0.2148  0.5325
  232ccc    H2511153   2.788   2.485   1.523 -0.2270  0.4814 -2.2822
  232ccc     O811154   2.436   2.529   1.567  0.1983  0.7684 -0.3449
  232ccc    H2611155   2.148   2.552   1.505  0.7466 -0.6442  1.2227
  232ccc    H2711156   2.462   2.494   1.833 -1.3609 -0.0272  0.8246
  232ccc     O911157   2.592   2.649   1.881 -0.2810  0.3172 -0.7137
  232ccc    H2811158   2.628   2.732   1.845 -0.7345  0.2502 -1.3318
  232ccc     N311159   2.150   2.735   1.685 -0.0729  0.0726 -0.6713
  232ccc    C1711160   2.044   2.092   1.172 -0.7961 -0.5875  0.6674
  232ccc    C1811161   1.904   2.052   1.228 -0.5830  0.2497  0.0481
  232ccc    H2911162   2.107   2.145   1.245  1.7602 -1.4512 -0.7736
  232ccc    C1911163   1.825   2.173   1.259  0.1598 -0.3907  0.1289
  232ccc    C2011164   1.818   2.269   1.136 -0.2861 -0.1763  0.3171
  232ccc    C2111165   1.959   2.300   1.078  0.8407 -0.3503 -0.7786
  232ccc    H3011166   1.768   2.211   1.058 -1.0531 -1.8142  1.9380
  232ccc    H3111167   1.870   2.233   1.339  2.5116  0.9036 -2.0184
  232ccc    H3211168   2.005   2.365   1.153 -0.2078 -1.9268  1.3500
  232ccc    O1011169   1.935   2.361   0.949 -0.5175 -0.3863 -0.7354
  232ccc    O1111170   1.695   2.138   1.298  0.1225  0.1036 -0.1916
  232ccc    C2211171   2.117   1.970   1.116 -0.0403 -0.2609  0.4458
  232ccc    H3311172   1.705   2.091   1.383 -0.5417 -0.2841 -0.3163
  232ccc    H3411173   1.650   2.380   1.136  0.0254  0.7989 -0.3378
  232ccc    H3511174   2.055   1.942   1.030 -0.3638 -1.5212  1.0619
  232ccc    H3611175   2.112   1.889   1.190 -2.5703 -1.4627 -0.8989
  232ccc    O1211176   2.246   2.022   1.079 -0.5971  0.6775  0.5192
  232ccc    H3711177   2.229   2.098   1.020  1.7425 -1.5072 -3.3973
  232ccc    O1311178   2.030   2.177   1.061 -0.6342 -0.3946 -0.1944
  232ccc    H3811179   1.908   2.291   0.886  0.3418 -1.9674  0.5906
  232ccc    H3911180   1.852   1.984   1.159 -1.6268  2.7803 -1.8295
  232ccc     O511181   1.916   1.982   1.347  0.4831 -0.1895  0.2429
  232ccc    H4011182   1.948   2.032   1.424 -0.6853  0.3542  0.3904
  232ccc     N411183   1.744   2.386   1.173  0.1338 -0.4333 -0.3916
  232ccc    H4111184   1.851   2.713   1.391  0.6600  0.8811  0.4484
  233ccc     N111185   2.497   2.397   1.305 -0.0693  0.2525 -0.6824
  233ccc     H411186   2.552   2.426   1.384 -0.5557 -0.4638 -0.0689
  233ccc     C311187   2.466   2.255   1.317 -0.0217 -0.2889  0.2747
  233ccc     H511188   2.356   2.248   1.313 -0.0337 -2.7851  2.1799
  233ccc     C411189   2.519   2.188   1.446  0.0379 -0.7595  0.2063
  233ccc     H611190   2.496   2.194   1.231 -1.6948 -0.6619 -0.0804
  233ccc     H711191   2.625   2.217   1.454 -0.1572  0.4554 -1.2480
  233ccc     H811192   2.511   2.081   1.427 -0.3778 -0.9204  1.1949
  233ccc     N211193   2.450   2.224   1.583  0.1234  0.0001  0.2749
  233ccc     C511194   2.525   2.154   1.692 -0.2897 -0.0615  0.0379
  233ccc     C611195   2.303   2.196   1.570 -0.2473 -0.7168  0.7510
  233ccc     H911196   2.271   2.267   1.493 -0.3665 -0.9420  0.5910
  233ccc     C711197   2.227   2.230   1.701 -0.0151  0.7521 -0.5837
  233ccc    H1011198   2.278   2.098   1.527 -2.7413  0.5825 -1.0152
  233ccc    H1111199   2.262   2.322   1.750 -2.8462  0.7867  1.6141
  233ccc    H1211200   2.243   2.146   1.770  0.5197  0.3839 -1.1405
  233ccc     C811201   2.075   2.234   1.676  0.2789 -0.5357 -0.2413
  233ccc     O211202   2.019   2.245   1.571 -0.0390 -0.7068 -0.1842
  233ccc    H1311203   2.494   2.190   1.790 -0.7860 -2.3065  0.7499
  233ccc    H1411204   2.632   2.175   1.679 -0.6869  1.8932 -0.4279
  233ccc     C911205   2.493   2.001   1.705  0.1252 -0.2957  0.6762
  233ccc    H1511206   2.482   1.955   1.605 -1.7486 -0.2847  0.8305
  233ccc    H1611207   2.397   1.986   1.757 -0.6559  0.3828 -0.5141
  233ccc    C1011208   2.607   1.930   1.785 -0.1464 -0.1089  0.0943
  233ccc     O411209   2.687   1.986   1.860  0.2039  0.1246 -0.7452
  233ccc    C1111210   1.615   2.256   1.631 -0.4176 -0.2275 -0.3289
  233ccc    C1211211   1.646   2.118   1.682 -0.5646  0.1862 -1.1339
  233ccc    H1711212   1.672   2.269   1.539  0.4534 -1.4496  0.0079
  233ccc    C1311213   1.793   2.109   1.722 -0.4781  0.9547 -0.5111
  233ccc    C1411214   1.854   2.233   1.791 -0.0647  0.5688 -0.4241
  233ccc    C1511215   1.799   2.364   1.730 -0.5178  0.4777 -0.4804
  233ccc    H1811216   1.836   2.231   1.899  0.4842  1.8457 -0.2952
  233ccc    H1911217   1.850   2.089   1.630 -1.0867  1.0130 -0.9155
  233ccc    H2011218   1.846   2.383   1.632  0.9416  1.5332  0.3927
  233ccc     O111219   1.831   2.464   1.828  0.3558 -0.0716 -0.3145
  233ccc     O611220   1.816   1.999   1.811 -0.3016 -0.3714 -0.2840
  233ccc    C1611221   1.469   2.283   1.600 -0.5938  0.1171 -0.5491
  233ccc    H2111222   1.817   1.921   1.753 -0.6563 -0.1606 -0.5829
  233ccc    H2211223   2.059   2.228   1.869  2.2829 -1.2783 -1.6371
  233ccc    H2311224   1.425   2.293   1.699  4.3505  0.4683  1.9134
  233ccc    H2411225   1.425   2.199   1.545 -0.0129  1.3661 -3.1152
  233ccc     O711226   1.445   2.399   1.527 -0.0727  0.2186  0.4080
  233ccc    H2511227   1.455   2.475   1.588  1.9983  0.8880 -0.6705
  233ccc     O811228   1.657   2.357   1.725 -0.0827 -0.0028 -0.2633
  233ccc    H2611229   1.757   2.455   1.891 -0.9139  1.5148 -1.4984
  233ccc    H2711230   1.583   2.097   1.769  0.1965 -0.3221 -0.6913
  233ccc     O911231   1.625   2.018   1.576 -0.5282  0.3780  0.1738
  233ccc    H2811232   1.531   1.999   1.558 -0.4777  0.1145  0.1834
  233ccc     N311233   2.001   2.230   1.785 -0.3463  0.0627  0.0607
  233ccc    C1711234   2.857   1.645   2.094 -0.3557 -0.1021  0.7824
  233ccc    C1811235   2.710   1.605   2.097 -0.3276  0.1992  0.6437
  233ccc    H2911236   2.876   1.744   2.139  2.9623 -0.3648  0.1964
  233ccc    C1911237   2.629   1.688   1.992  0.8539  0.2382  0.1079
  233ccc    C2011238   2.694   1.701   1.857 -0.1778  0.2855 -0.2519
  233ccc    C2111239   2.838   1.740   1.875 -0.7834  0.4342  0.4370
  233ccc    H3011240   2.691   1.602   1.810 -1.1162  1.4175 -2.7689
  233ccc    H3111241   2.618   1.794   2.020  1.1151  0.4228 -0.4804
  233ccc    H3211242   2.854   1.842   1.912 -0.1984  0.8031 -0.7704
  233ccc    O1011243   2.911   1.726   1.756 -0.1582  0.2349 -0.4908
  233ccc    O1111244   2.494   1.631   1.980  0.0637 -0.1845 -0.5769
  233ccc    C2211245   2.943   1.535   2.171  0.0196 -0.4265  0.2693
  233ccc    H3311246   2.487   1.567   2.054  4.2549 -0.1048  0.1239
  233ccc    H3411247   2.548   1.744   1.711  1.8961 -2.3799 -0.2477
  233ccc    H3511248   2.979   1.466   2.094  1.5404  2.5516 -1.8902
  233ccc    H3611249   2.887   1.471   2.240 -0.2316 -3.5111 -2.5143
  233ccc    O1211250   3.055   1.598   2.232 -0.6165 -0.0994 -0.4249
  233ccc    H3711251   3.021   1.676   2.278  1.2343 -0.3902  1.6315
  233ccc    O1311252   2.902   1.644   1.955  0.5659  0.3471  0.1920
  233ccc    H3811253   2.885   1.634   1.736 -0.9733  0.1610  0.8153
  233ccc    H3911254   2.706   1.501   2.064  0.0329  0.7886 -1.3985
  233ccc     O511255   2.652   1.632   2.227  0.1863 -0.0377  0.0193
  233ccc    H4011256   2.639   1.728   2.232 -1.5473 -0.2594  0.4402
  233ccc     N411257   2.619   1.794   1.766  0.2088 -0.1428  0.0493
  233ccc    H4111258   2.452   2.327   1.595  1.6795  0.0251 -0.0999
  234ccc     N111259   4.375   3.039   0.109  0.6347 -0.4732 -0.0232
  234ccc     H411260   4.395   2.939   0.110  1.4905 -0.3473 -1.5538
  234ccc     C311261   4.231   3.080   0.112 -0.1259 -0.6889  0.9371
  234ccc     H511262   4.221   3.147   0.198 -0.1582  0.7372 -0.1338
  234ccc     C411263   4.133   2.970   0.097  0.4452 -0.8611 -0.6122
  234ccc     H611264   4.219   3.141   0.022  0.8374 -0.4317  0.9692
  234ccc     H711265   4.158   2.922   0.001 -0.9718  0.7462 -1.8580
  234ccc     H811266   4.036   3.020   0.088  1.7174  1.8051 -0.1804
  234ccc     N211267   4.129   2.868   0.211 -0.8602  0.3582 -0.0175
  234ccc     C511268   4.034   2.754   0.188 -0.0002  0.1091 -0.0523
  234ccc     C611269   4.093   2.935   0.342 -0.4030  0.8888  0.0057
  234ccc     H911270   4.134   3.037   0.343  0.8085  0.4402 -1.3191
  234ccc     C711271   4.168   2.869   0.466 -0.2743  0.2826 -0.1436
  234ccc    H1011272   3.986   2.934   0.370 -0.2410 -0.2265  0.6653
  234ccc    H1111273   4.277   2.872   0.459 -0.0404  2.3511  2.5288
  234ccc    H1211274   4.129   2.770   0.495 -0.1992  0.0825 -0.7187
  234ccc     C811275   4.144   2.955   0.596  0.1221  0.1923  0.2116
  234ccc     O211276   4.125   3.073   0.596 -0.4055 -0.2631  0.1830
  234ccc    H1311277   3.951   2.796   0.129  0.4733  1.7415  0.3975
  234ccc    H1411278   4.004   2.718   0.287  2.5900  1.6080  1.3769
  234ccc     C911279   4.082   2.627   0.114  0.1483 -0.4148  0.3890
  234ccc    H1511280   4.148   2.564   0.175  1.2250 -0.1857 -0.4873
  234ccc    H1611281   4.146   2.669   0.035 -1.5461  1.6679  0.0129
  234ccc    C1011282   3.967   2.539   0.062  0.1365 -0.1791 -0.0253
  234ccc     O411283   3.852   2.547   0.099  0.4291 -0.2398 -0.5226
  234ccc    C1111284   4.278   2.968   1.130  0.1584 -0.3485 -0.7580
  234ccc    C1211285   4.363   3.016   1.013  0.3388  0.4018  0.2066
  234ccc    H1711286   4.308   2.866   1.159 -2.4271 -0.7303  0.8687
  234ccc    C1311287   4.322   2.944   0.880  0.0431  0.0109  0.5471
  234ccc    C1411288   4.169   2.952   0.846 -0.0929  0.2577  0.0161
  234ccc    C1511289   4.096   2.899   0.969 -0.6244 -0.1524 -0.6664
  234ccc    H1811290   4.143   3.058   0.836 -0.8342 -0.0503 -1.8214
  234ccc    H1911291   4.346   2.837   0.890  1.6880  0.3407  0.4554
  234ccc    H2011292   4.123   2.794   0.986  0.0523 -0.0228 -0.9145
  234ccc     O111293   3.956   2.915   0.955  0.4808  0.3666 -0.1243
  234ccc     O611294   4.391   2.989   0.766 -0.5804 -0.2904 -0.9319
  234ccc    C1611295   4.309   3.062   1.255  0.2706 -0.1226 -0.1425
  234ccc    H2111296   4.416   2.905   0.724  1.8217 -0.9127  1.4189
  234ccc    H2211297   4.146   2.784   0.725 -2.0073 -0.2693 -2.8284
  234ccc    H2311298   4.283   3.166   1.230 -1.1472 -0.8955 -2.1645
  234ccc    H2411299   4.415   3.050   1.281  0.3278 -0.5131 -0.5522
  234ccc     O711300   4.237   3.019   1.377 -0.2629  0.5691 -0.1297
  234ccc    H2511301   4.146   2.987   1.359 -1.4759  3.8151 -0.4686
  234ccc     O811302   4.134   2.971   1.089  0.4200 -0.6671 -0.1846
  234ccc    H2611303   3.915   2.873   1.032 -1.7055  2.4064 -0.0569
  234ccc    H2711304   4.340   3.122   0.997 -0.8661 -0.0176 -1.0692
  234ccc     O911305   4.503   2.991   1.038  0.4028 -0.1014  0.0554
  234ccc    H2811306   4.534   2.923   0.976 -1.7109  0.1988 -1.4385
  234ccc     N311307   4.143   2.886   0.717  0.8756  0.3187  0.6679
  234ccc    C1711308   3.687   2.178  -0.157  0.6878  0.6471 -0.0020
  234ccc    C1811309   3.695   2.313  -0.234 -0.3156 -0.5026  0.0365
  234ccc    H2911310   3.618   2.193  -0.073 -3.4729  2.3190 -3.3653
  234ccc    C1911311   3.774   2.427  -0.154 -0.6774 -0.2599 -0.2100
  234ccc    C2011312   3.912   2.369  -0.112 -0.1454  0.8139 -0.9393
  234ccc    C2111313   3.894   2.237  -0.036 -0.1241  0.5496  0.3130
  234ccc    H3011314   3.968   2.346  -0.203  0.8408  0.3204 -0.2278
  234ccc    H3111315   3.711   2.454  -0.069 -0.8323  2.1556 -1.0408
  234ccc    H3211316   3.845   2.256   0.060 -0.7344  2.1528 -0.2795
  234ccc    O1011317   4.012   2.166  -0.014  0.4171 -0.5132  0.0427
  234ccc    O1111318   3.788   2.541  -0.244 -0.2139 -0.1086 -0.2669
  234ccc    C2211319   3.625   2.049  -0.227  0.6007 -0.5499 -0.5135
  234ccc    H3311320   3.866   2.522  -0.299  1.0165  3.1293  0.1597
  234ccc    H3411321   4.098   2.453  -0.056  0.0857 -1.5530  2.1711
  234ccc    H3511322   3.517   2.066  -0.240  1.0365  2.4352 -1.0231
  234ccc    H3611323   3.644   1.963  -0.163 -0.6177  0.0734  0.7375
  234ccc    O1211324   3.676   2.034  -0.358 -0.1509  0.0148 -0.6280
  234ccc    H3711325   3.648   2.115  -0.403 -0.7025 -0.1201 -0.5293
  234ccc    O1311326   3.825   2.146  -0.121 -0.1416 -0.2327 -0.0399
  234ccc    H3811327   4.001   2.094   0.049  4.1521 -0.8985  0.4860
  234ccc    H3911328   3.741   2.290  -0.331 -1.1972  0.5352 -0.6449
  234ccc     O511329   3.565   2.363  -0.262 -0.4821 -0.4668 -0.0968
  234ccc    H4011330   3.558   2.408  -0.348 -2.0069  0.0433  0.2549
  234ccc     N411331   3.997   2.466  -0.041 -0.1792 -0.1747 -0.2990
  234ccc    H4111332   4.222   2.823   0.216 -1.7820 -1.6935  0.0208
  235ccc     N111333   4.859   3.288  -0.509  0.4104  0.4545 -0.1203
  235ccc     H411334   4.860   3.390  -0.503 -0.7177  0.5114 -0.6893
  235ccc     C311335   4.865   3.224  -0.640 -0.5667  0.3310  0.1073
  235ccc     H511336   4.932   3.137  -0.647  1.3332  1.7681 -0.2804
  235ccc     C411337   4.901   3.320  -0.757  0.2720 -0.1436  0.5814
  235ccc     H611338   4.766   3.183  -0.664  0.9477 -1.8155 -3.2269
  235ccc     H711339   4.829   3.402  -0.746 -0.2455 -0.5865  0.5425
  235ccc     H811340   4.891   3.276  -0.857 -2.5721  2.8386 -0.6242
  235ccc     N211341   5.041   3.378  -0.738 -0.7012 -0.0879  0.5512
  235ccc     C511342   5.049   3.507  -0.816  0.0517  0.4554 -0.7930
  235ccc     C611343   5.147   3.272  -0.787  0.4277 -0.3105 -0.5564
  235ccc     H911344   5.108   3.183  -0.736 -2.4524 -0.0059 -2.0318
  235ccc     C711345   5.296   3.300  -0.759 -0.2435  0.3354  0.0888
  235ccc    H1011346   5.138   3.254  -0.895 -0.5665 -0.9230 -0.3837
  235ccc    H1111347   5.315   3.281  -0.653  3.4560  1.3946 -0.2344
  235ccc    H1211348   5.314   3.406  -0.779  1.9327  0.1147  0.5826
  235ccc     C811349   5.381   3.202  -0.840  0.0832 -0.1573  0.6008
  235ccc     O211350   5.344   3.161  -0.947 -0.2109 -0.4417 -0.7187
  235ccc    H1311351   4.996   3.492  -0.911 -3.4282 -0.8439  1.1539
  235ccc    H1411352   5.154   3.522  -0.844  0.1755  0.2137 -0.4559
  235ccc     C911353   4.976   3.621  -0.747 -0.4499 -0.3190 -0.4071
  235ccc    H1511354   5.031   3.654  -0.659 -2.5159  0.5654  0.6108
  235ccc    H1611355   4.876   3.591  -0.713  0.1259 -0.4895  1.2257
  235ccc    C1011356   4.973   3.744  -0.841  0.3141 -0.4104  0.4543
  235ccc     O411357   5.035   3.756  -0.945 -0.4730 -0.4964 -0.6174
  235ccc    C1111358   5.861   3.155  -1.058 -0.2773  0.8202 -0.0237
  235ccc    C1211359   5.840   3.039  -0.957 -0.4318 -0.7762  0.5051
  235ccc    H1711360   5.915   3.241  -1.016 -0.2681  1.0131 -0.4221
  235ccc    C1311361   5.747   3.092  -0.842  0.1416  0.0169  0.3617
  235ccc    C1411362   5.614   3.139  -0.900  0.5305  0.2429 -0.4530
  235ccc    C1511363   5.640   3.246  -1.001 -0.2153  0.0549  0.2533
  235ccc    H1811364   5.569   3.053  -0.951  0.1553  0.5973 -0.7219
  235ccc    H1911365   5.795   3.182  -0.802  0.1139  1.1047 -1.9197
  235ccc    H2011366   5.538   3.265  -1.035 -0.1047  0.1724 -0.0169
  235ccc     O111367   5.694   3.368  -0.945  0.2940  0.0378 -0.4363
  235ccc     O611368   5.723   2.980  -0.757 -0.0129 -0.6670  0.0967
  235ccc    C1611369   5.940   3.111  -1.179  0.3489  0.4995 -0.1606
  235ccc    H2111370   5.666   2.913  -0.797  1.4950 -2.6061  1.0093
  235ccc    H2211371   5.556   3.227  -0.727  0.8334  1.8399 -1.5126
  235ccc    H2311372   6.038   3.077  -1.143 -0.5037 -1.5659  0.3630
  235ccc    H2411373   5.948   3.197  -1.246 -0.2957  0.9173  0.2862
  235ccc     O711374   5.874   3.008  -1.246 -0.0850  0.0939 -0.1213
  235ccc    H2511375   5.786   3.049  -1.254  0.7698  2.7071  2.2651
  235ccc     O811376   5.724   3.201  -1.105 -0.6124  0.2054 -1.1101
  235ccc    H2611377   5.683   3.443  -1.006 -1.2551  0.9687  0.9251
  235ccc    H2711378   5.796   2.947  -1.000  1.9728 -0.8028 -2.2038
  235ccc     O911379   5.969   3.003  -0.906  1.1619  0.4195  0.5501
  235ccc    H2811380   6.007   2.934  -0.963  0.3101  0.1127  0.3215
  235ccc     N311381   5.509   3.185  -0.807 -0.1049 -0.2268  0.0290
  235ccc    C1711382   4.775   4.108  -0.505 -0.2183  0.1518 -0.3718
  235ccc    C1811383   4.661   4.027  -0.568 -0.5494  0.8114 -0.0843
  235ccc    H2911384   4.777   4.197  -0.568  0.3786  1.0657  0.8846
  235ccc    C1911385   4.703   3.959  -0.700  0.1382 -0.5766 -0.2701
  235ccc    C2011386   4.838   3.882  -0.681 -1.2025 -0.3662  0.6484
  235ccc    C2111387   4.942   3.979  -0.623  0.4790  0.6151  0.2591
  235ccc    H3011388   4.846   3.796  -0.614 -0.1744 -0.3990  0.4949
  235ccc    H3111389   4.725   4.036  -0.774  0.1262 -0.6762 -0.3793
  235ccc    H3211390   4.967   4.059  -0.694 -1.2882  0.7934 -0.2013
  235ccc    O1011391   5.062   3.912  -0.583 -0.1096  0.6824  0.0118
  235ccc    O1111392   4.599   3.876  -0.749  0.1432 -0.1015 -0.7398
  235ccc    C2211393   4.750   4.152  -0.362  0.2558  0.3656  0.3920
  235ccc    H3311394   4.614   3.795  -0.696 -0.2282 -1.2166 -2.2671
  235ccc    H3411395   4.885   3.922  -0.883 -1.6221  0.6463  0.4235
  235ccc    H3511396   4.687   4.240  -0.377 -1.2214 -0.8112 -0.5462
  235ccc    H3611397   4.836   4.196  -0.310 -0.6683  3.1254 -0.2673
  235ccc    O1211398   4.689   4.052  -0.286  0.1238 -0.0995 -0.2618
  235ccc    H3711399   4.692   4.066  -0.189 -0.2214 -1.5857 -0.0048
  235ccc    O1311400   4.902   4.035  -0.491 -0.1769  0.3438  0.4006
  235ccc    H3811401   5.096   3.958  -0.505  0.2569  1.9537 -0.8755
  235ccc    H3911402   4.630   3.958  -0.489  1.0432  2.5350  2.1471
  235ccc     O511403   4.551   4.114  -0.603  0.0063  0.4677  0.0467
  235ccc    H4011404   4.525   4.081  -0.691 -1.0395 -0.7060  0.7600
  235ccc     N411405   4.881   3.842  -0.820  0.8158  0.1888  0.0613
  235ccc    H4111406   5.059   3.398  -0.639 -1.2318  1.0055  0.4397
  236ccc     N111407   4.060   3.678  -0.511 -0.0459  0.7869 -0.0606
  236ccc     H411408   4.122   3.623  -0.571 -2.0411 -2.4251  0.5930
  236ccc     C311409   3.927   3.616  -0.504 -0.2875  0.9181 -0.1842
  236ccc     H511410   3.845   3.689  -0.510 -1.3887 -0.3527 -1.2756
  236ccc     C411411   3.906   3.513  -0.396 -0.7658  0.5794  0.1007
  236ccc     H611412   3.920   3.570  -0.603  0.0438 -0.1328  0.2693
  236ccc     H711413   3.918   3.570  -0.303 -2.8359  2.3009 -0.6121
  236ccc     H811414   3.986   3.438  -0.397 -1.0542  0.2695 -0.0489
  236ccc     N211415   3.772   3.435  -0.403 -0.3435 -0.2115  0.3498
  236ccc     C511416   3.654   3.532  -0.414 -0.6241  0.2290 -0.3208
  236ccc     C611417   3.763   3.329  -0.291 -0.3700 -0.5235 -0.0619
  236ccc     H911418   3.692   3.255  -0.328  0.2287  0.2926 -3.1251
  236ccc     C711419   3.722   3.389  -0.152 -0.3770  0.0683  0.7672
  236ccc    H1011420   3.859   3.275  -0.293 -0.1732 -0.2230  0.7337
  236ccc    H1111421   3.620   3.429  -0.157 -0.8823 -1.2567 -0.3125
  236ccc    H1211422   3.782   3.477  -0.125 -0.3531  0.2840  0.0385
  236ccc     C811423   3.721   3.278  -0.047  0.6976  0.2128  0.8209
  236ccc     O211424   3.674   3.170  -0.067  0.8093  0.1538 -0.2450
  236ccc    H1311425   3.666   3.581  -0.512  0.5627 -0.8237 -0.7317
  236ccc    H1411426   3.644   3.590  -0.321 -0.3955  1.3170 -0.9518
  236ccc     C911427   3.525   3.456  -0.431  0.0749 -0.2217  0.2130
  236ccc    H1511428   3.499   3.406  -0.336 -2.1386  0.9804  0.2973
  236ccc    H1611429   3.536   3.385  -0.514 -2.2115 -0.6560  0.2179
  236ccc    C1011430   3.408   3.550  -0.486 -0.4079 -0.4622  0.0145
  236ccc     O411431   3.415   3.670  -0.506 -0.8023 -0.5809 -0.4488
  236ccc    C1111432   3.783   3.170   0.479 -0.0017  0.0960  0.1525
  236ccc    C1211433   3.670   3.119   0.387  0.2911 -0.3331 -0.6508
  236ccc    H1711434   3.758   3.266   0.524 -0.7777  0.7625 -1.5996
  236ccc    C1311435   3.655   3.195   0.255  0.2945  0.7008  0.9070
  236ccc    C1411436   3.789   3.218   0.183  0.1448  0.3471  0.3304
  236ccc    C1511437   3.889   3.273   0.286 -0.2049 -0.3380 -0.0443
  236ccc    H1811438   3.822   3.119   0.149  1.2314  1.7990 -3.3302
  236ccc    H1911439   3.623   3.299   0.274  2.0582  1.8069 -1.5988
  236ccc    H2011440   3.852   3.368   0.326  0.5376 -0.5480  1.1952
  236ccc     O111441   4.013   3.293   0.225 -0.1665 -0.2412  0.1094
  236ccc     O611442   3.563   3.113   0.178 -0.1624  0.1010  0.5479
  236ccc    C1611443   3.805   3.071   0.598 -0.7003  0.5502  0.4080
  236ccc    H2111444   3.583   3.115   0.083 -1.2387 -1.8730  0.2103
  236ccc    H2211445   3.812   3.398   0.094  1.1712  0.5032 -0.3254
  236ccc    H2311446   3.857   2.979   0.571  1.0697  1.5902  0.0754
  236ccc    H2411447   3.713   3.033   0.643  0.6255 -6.3757 -1.6304
  236ccc     O711448   3.882   3.144   0.700 -0.2181  0.4185 -0.2306
  236ccc    H2511449   3.965   3.138   0.649  0.1545 -2.1249  0.5379
  236ccc     O811450   3.905   3.181   0.396 -0.8546 -0.0007  0.0903
  236ccc    H2611451   3.999   3.291   0.129  1.1326  2.0936 -0.2017
  236ccc    H2711452   3.696   3.013   0.377 -3.4434 -1.7379  2.1432
  236ccc     O911453   3.549   3.118   0.468 -0.2089 -0.0195  0.0909
  236ccc    H2811454   3.543   3.203   0.514  0.6570 -0.5066  1.1651
  236ccc     N311455   3.781   3.305   0.068  0.7907  0.5061  0.1129
  236ccc    C1711456   3.024   3.187  -0.412 -0.4493  0.4814  0.2550
  236ccc    C1811457   3.090   3.165  -0.549 -0.3974 -0.7666  0.5695
  236ccc    H2911458   2.948   3.264  -0.429 -1.6178 -0.2135  2.1137
  236ccc    C1911459   3.154   3.301  -0.595  0.4520  0.0728 -0.2894
  236ccc    C2011460   3.246   3.359  -0.485  0.4818  0.2378  0.0150
  236ccc    C2111461   3.177   3.356  -0.350 -0.3180  0.7779  0.2883
  236ccc    H3011462   3.330   3.289  -0.483 -0.1547 -0.5383  0.3460
  236ccc    H3111463   3.076   3.379  -0.600  0.4781  0.1907  0.8638
  236ccc    H3211464   3.103   3.436  -0.359  0.6512  1.7236  0.5368
  236ccc    O1011465   3.270   3.389  -0.242 -0.2738  0.0692  0.1245
  236ccc    O1111466   3.224   3.286  -0.724  0.1893 -0.2444 -0.0257
  236ccc    C2211467   2.952   3.057  -0.358  0.2219 -0.3801  0.1190
  236ccc    H3311468   3.248   3.379  -0.740 -0.2735  0.5754  3.2868
  236ccc    H3411469   3.223   3.560  -0.566 -0.2038  1.4166  2.5435
  236ccc    H3511470   3.014   2.966  -0.353  0.4059 -0.2412  0.3461
  236ccc    H3611471   2.874   3.040  -0.434 -0.4514  0.8077  0.5237
  236ccc    O1211472   2.884   3.067  -0.226  0.4844 -0.6311  0.0717
  236ccc    H3711473   2.843   2.982  -0.205 -0.8242 -0.7595 -2.5504
  236ccc    O1311474   3.119   3.229  -0.321 -0.2017  0.3076 -0.2387
  236ccc    H3811475   3.338   3.319  -0.244  1.5936  1.8229 -0.1061
  236ccc    H3911476   3.181   3.105  -0.539  1.0937  1.2290 -0.4778
  236ccc     O511477   3.002   3.114  -0.650 -0.3249  0.0635  0.2890
  236ccc    H4011478   3.059   3.133  -0.727 -0.4853 -1.6115 -0.2698
  236ccc     N411479   3.292   3.496  -0.528 -0.1513 -0.2957 -0.1569
  236ccc    H4111480   3.765   3.379  -0.489 -0.1707 -0.9835  0.8201
  237ccc     N111481   4.322   4.412  -0.622 -0.3078  0.5950 -0.2934
  237ccc     H411482   4.289   4.359  -0.702  0.2908 -1.9787  1.0447
  237ccc     C311483   4.397   4.533  -0.659 -0.5648  0.6218  0.7471
  237ccc     H511484   4.332   4.596  -0.720  0.1181  1.3954  0.8112
  237ccc     C411485   4.532   4.481  -0.709  0.2921 -0.0637 -0.2830
  237ccc     H611486   4.417   4.584  -0.564  0.7986 -0.4308  1.0711
  237ccc     H711487   4.519   4.409  -0.790 -0.7221  2.3810 -2.4446
  237ccc     H811488   4.579   4.426  -0.626 -0.8354 -1.2341 -0.3929
  237ccc     N211489   4.633   4.591  -0.744 -0.0654 -0.4052 -0.4072
  237ccc     C511490   4.597   4.672  -0.867  0.2279  0.6001  0.6110
  237ccc     C611491   4.766   4.505  -0.767  0.4641 -0.0635 -0.5069
  237ccc     H911492   4.859   4.556  -0.739 -0.6533  1.2765  0.9623
  237ccc     C711493   4.780   4.429  -0.904  0.9455 -0.6636 -0.9215
  237ccc    H1011494   4.765   4.431  -0.686 -1.1169  0.0815 -0.3660
  237ccc    H1111495   4.823   4.503  -0.972 -1.0037  0.2988 -1.1743
  237ccc    H1211496   4.679   4.407  -0.943  1.5747 -1.2824 -2.2913
  237ccc     C811497   4.876   4.309  -0.899 -0.2541 -0.7273  0.6036
  237ccc     O211498   4.899   4.244  -0.799  0.3275  0.6880 -0.4624
  237ccc    H1311499   4.514   4.732  -0.829  1.9416  2.1820  2.0623
  237ccc    H1411500   4.550   4.612  -0.946 -1.7034 -0.1064  2.2277
  237ccc     C911501   4.703   4.772  -0.926  0.2302 -0.0160 -0.0781
  237ccc    H1511502   4.667   4.807  -1.023 -1.2360  2.7804  1.3670
  237ccc    H1611503   4.804   4.735  -0.944  0.8840  1.8698 -0.4744
  237ccc    C1011504   4.723   4.886  -0.826  0.0854 -0.3663 -0.0925
  237ccc     O411505   4.710   4.873  -0.705  0.1639 -0.0674 -0.1423
  237ccc    C1111506   5.045   3.922  -1.233  0.5260  0.3678  0.2634
  237ccc    C1211507   5.166   4.002  -1.169  0.0632  0.0386  0.4047
  237ccc    H1711508   5.008   3.969  -1.325 -1.6277  0.8045  1.2813
  237ccc    C1311509   5.125   4.137  -1.108  0.7342 -0.8538 -0.3011
  237ccc    C1411510   4.995   4.127  -1.034 -0.1975 -0.8369 -0.4219
  237ccc    C1511511   4.886   4.045  -1.106 -0.4046  0.3255  0.6930
  237ccc    H1811512   5.011   4.068  -0.944  1.0715 -0.9947 -0.7344
  237ccc    H1911513   5.116   4.206  -1.193  0.2243  0.4441  0.7621
  237ccc    H2011514   4.856   4.099  -1.196  0.8707  3.0395  1.7908
  237ccc     O111515   4.776   4.020  -1.026  0.6861 -0.1225 -0.0898
  237ccc     O611516   5.226   4.191  -1.024 -0.0871 -0.2914 -0.1815
  237ccc    C1611517   5.089   3.783  -1.284  0.7905  0.1976  0.1041
  237ccc    H2111518   5.285   4.244  -1.081  2.0470 -2.2372  0.0722
  237ccc    H2211519   4.925   4.316  -1.099  1.3189  1.7834  0.7869
  237ccc    H2311520   5.171   3.788  -1.357  1.6937  2.6684  1.2009
  237ccc    H2411521   5.008   3.731  -1.338  2.4198 -0.4291 -1.8960
  237ccc     O711522   5.145   3.699  -1.171 -0.1541 -1.4320 -0.3747
  237ccc    H2511523   5.103   3.733  -1.091 -3.5413  0.6088 -2.7620
  237ccc     O811524   4.938   3.915  -1.136  0.1590  0.3165 -0.4706
  237ccc    H2611525   4.698   4.028  -1.083 -0.7292  0.2148  1.8098
  237ccc    H2711526   5.212   3.946  -1.086  0.6196  1.6346  1.2110
  237ccc     O911527   5.271   4.035  -1.262 -0.5366 -0.0835  0.2380
  237ccc    H2811528   5.356   4.041  -1.216  0.3128  0.5430 -1.3387
  237ccc     N311529   4.939   4.268  -1.011 -0.1567 -0.2154  0.0029
  237ccc    C1711530   4.739   5.423  -0.831  0.0539  0.3347 -0.0687
  237ccc    C1811531   4.612   5.345  -0.792 -0.7115 -0.2821 -0.1684
  237ccc    H2911532   4.735   5.429  -0.941  2.3492 -0.3146 -0.2297
  237ccc    C1911533   4.616   5.204  -0.833 -0.4961  0.0551  0.0110
  237ccc    C2011534   4.748   5.122  -0.808  0.6033 -0.2420  0.0315
  237ccc    C2111535   4.874   5.218  -0.842 -0.1187  0.0469 -0.3311
  237ccc    H3011536   4.755   5.099  -0.701 -1.7681  2.0011  0.7815
  237ccc    H3111537   4.609   5.196  -0.942  0.6596 -0.0752 -0.0593
  237ccc    H3211538   4.882   5.245  -0.948  0.7065  1.9548  0.1696
  237ccc    O1011539   4.993   5.170  -0.789  0.1446 -0.1022 -0.1329
  237ccc    O1111540   4.497   5.137  -0.777 -0.0445  0.1857 -0.3382
  237ccc    C2211541   4.735   5.562  -0.772 -0.0343 -0.9132  0.0265
  237ccc    H3311542   4.472   5.062  -0.834  2.6955 -1.8734  0.9157
  237ccc    H3411543   4.764   5.013  -0.983 -0.9797  0.1093  0.4884
  237ccc    H3511544   4.721   5.548  -0.664  1.4844  0.7062  0.4885
  237ccc    H3611545   4.647   5.609  -0.818 -0.8946 -1.5165  1.0250
  237ccc    O1211546   4.858   5.636  -0.794 -0.0524  0.0228  0.0590
  237ccc    H3711547   4.849   5.683  -0.879  1.3627  0.4609  0.1163
  237ccc    O1311548   4.853   5.348  -0.774 -0.1277  0.0113  0.2203
  237ccc    H3811549   5.014   5.091  -0.843 -1.0162 -1.6145  1.4963
  237ccc    H3911550   4.596   5.353  -0.683 -1.0330 -0.2976 -0.2136
  237ccc     O511551   4.501   5.401  -0.864  0.4015  0.6247 -0.4659
  237ccc    H4011552   4.428   5.341  -0.840  1.7967 -1.6368 -1.5628
  237ccc     N411553   4.748   5.000  -0.883 -0.1768 -0.2729  0.5739
  237ccc    H4111554   4.650   4.656  -0.666 -1.0171  0.5624 -0.9793
  238ccc     N111555   4.302   3.687   1.993  0.0732  0.0482  0.4918
  238ccc     H411556   4.398   3.657   2.005 -0.8727 -2.5815  2.4877
  238ccc     C311557   4.221   3.656   2.107  1.0888 -0.4189  0.0460
  238ccc     H511558   4.217   3.751   2.163  2.8163  0.9414 -1.9648
  238ccc     C411559   4.265   3.541   2.199 -0.2352  0.1552  0.3621
  238ccc     H611560   4.118   3.634   2.078  0.0530  0.5464  2.6055
  238ccc     H711561   4.370   3.557   2.226  0.5298 -1.4278 -1.4187
  238ccc     H811562   4.259   3.458   2.127 -1.7047  1.0635 -0.6016
  238ccc     N211563   4.184   3.498   2.319 -0.1116 -0.5343 -0.7508
  238ccc     C511564   4.178   3.612   2.416  0.0126  0.2308 -0.1880
  238ccc     C611565   4.238   3.372   2.387 -0.2684  0.2720 -0.0128
  238ccc     H911566   4.286   3.312   2.309  1.0668  2.7469 -1.2314
  238ccc     C711567   4.139   3.280   2.462  0.2110 -0.0344  0.1468
  238ccc    H1011568   4.314   3.405   2.459 -2.0205  0.5534  1.7626
  238ccc    H1111569   4.054   3.270   2.393  0.8655 -1.4619 -0.4864
  238ccc    H1211570   4.108   3.323   2.558 -0.7877 -1.0155  0.2864
  238ccc     C811571   4.194   3.148   2.513 -0.5567 -0.6014 -0.1765
  238ccc     O211572   4.313   3.128   2.541 -0.0539  0.4302 -0.3890
  238ccc    H1311573   4.117   3.575   2.499 -0.5159 -1.3819 -1.2386
  238ccc    H1411574   4.121   3.694   2.372 -2.1521 -0.9483  0.2867
  238ccc     C911575   4.306   3.682   2.463 -0.0285  0.5778 -0.2261
  238ccc    H1511576   4.376   3.695   2.380 -1.1393  1.3030 -1.0807
  238ccc    H1611577   4.360   3.617   2.532  0.8242  1.2163 -0.2806
  238ccc    C1011578   4.275   3.813   2.537  0.2086 -0.0428 -0.0813
  238ccc     O411579   4.169   3.877   2.531 -0.4884 -0.0177 -0.8479
  238ccc    C1111580   3.968   2.679   2.619  0.7192  0.7060  0.6093
  238ccc    C1211581   4.076   2.686   2.510 -1.1711  0.2736  0.6149
  238ccc    H1711582   3.883   2.725   2.567  1.4508  1.7865  0.3400
  238ccc    C1311583   4.105   2.832   2.457 -0.5107 -0.0882  0.1119
  238ccc    C1411584   4.111   2.929   2.583  0.1208  0.0724 -0.0033
  238ccc    C1511585   4.003   2.902   2.689 -0.0357  0.4656  0.2035
  238ccc    H1811586   4.209   2.920   2.630  0.6770  0.0929 -1.1355
  238ccc    H1911587   4.024   2.868   2.392 -0.3616  2.3861  1.1696
  238ccc    H2011588   3.909   2.933   2.643  1.2304  2.3783 -1.2952
  238ccc     O111589   4.013   2.984   2.797 -0.0384 -0.5550 -0.3328
  238ccc     O611590   4.232   2.848   2.389  0.2265  0.3373 -0.0121
  238ccc    C1611591   3.937   2.531   2.668  0.2854  0.3901  0.3932
  238ccc    H2111592   4.314   2.833   2.439 -0.9346  1.8398  2.5382
  238ccc    H2211593   4.010   3.067   2.475 -0.1153 -2.3329  0.4021
  238ccc    H2311594   4.020   2.495   2.730  1.4814  0.4207 -1.1208
  238ccc    H2411595   3.934   2.474   2.575  0.7884  3.3927 -1.6293
  238ccc     O711596   3.826   2.520   2.748  0.0983  0.4999  0.2217
  238ccc    H2511597   3.827   2.428   2.780 -1.3854 -0.3258 -1.8731
  238ccc     O811598   4.005   2.765   2.723 -0.5213 -0.0101  0.0193
  238ccc    H2611599   3.929   2.968   2.843  0.7781 -0.8235  1.1438
  238ccc    H2711600   4.171   2.658   2.557  0.8062 -1.5499 -3.9226
  238ccc     O911601   4.045   2.602   2.398  0.0870  0.1931  0.6763
  238ccc    H2811602   4.132   2.573   2.364 -0.5879 -0.5520 -0.4586
  238ccc     N311603   4.096   3.063   2.528  0.1274  0.0881  0.3287
  238ccc    C1711604   4.514   4.105   2.922  0.6816  0.2300 -0.0675
  238ccc    C1811605   4.498   4.176   2.788 -0.4165  0.0614 -0.0258
  238ccc    H2911606   4.598   4.034   2.909 -1.3233 -2.2429 -0.3197
  238ccc    C1911607   4.471   4.075   2.678  0.0864  0.3076  0.1839
  238ccc    C2011608   4.360   3.964   2.712 -0.3404 -0.2287  0.6659
  238ccc    C2111609   4.377   3.915   2.855  0.0773 -0.7218  0.2371
  238ccc    H3011610   4.257   4.003   2.717 -0.3762 -0.5190  3.6250
  238ccc    H3111611   4.564   4.026   2.646 -1.3412 -0.7234 -2.7674
  238ccc    H3211612   4.455   3.839   2.866  0.8106 -0.4273 -2.2426
  238ccc    O1011613   4.250   3.853   2.897  0.0179 -0.9953  0.0865
  238ccc    O1111614   4.422   4.152   2.560  0.6707  0.0792  0.0951
  238ccc    C2211615   4.535   4.192   3.042 -0.4823 -0.1982  0.3279
  238ccc    H3311616   4.397   4.080   2.500 -1.8788  2.7721 -2.4042
  238ccc    H3411617   4.460   3.795   2.613 -2.1062 -2.4674 -0.6333
  238ccc    H3511618   4.437   4.235   3.069 -0.9711 -2.0410  1.6254
  238ccc    H3611619   4.607   4.273   3.026 -0.6039 -0.0832  0.3604
  238ccc    O1211620   4.588   4.123   3.156 -0.1295 -0.2704  0.4144
  238ccc    H3711621   4.600   4.194   3.221 -1.1054 -0.4239  0.7911
  238ccc    O1311622   4.395   4.022   2.944 -0.1299 -0.1843  0.1651
  238ccc    H3811623   4.225   3.888   2.985  0.3255 -0.8778  0.1290
  238ccc    H3911624   4.410   4.241   2.800  1.2534  2.2101  1.3786
  238ccc     O511625   4.615   4.253   2.750  0.7025  0.6560 -0.0382
  238ccc    H4011626   4.606   4.331   2.808 -0.0018  0.3917  0.2199
  238ccc     N411627   4.375   3.851   2.608 -0.2747  0.5259 -0.8091
  238ccc    H4111628   4.089   3.473   2.289  0.0049  1.8034 -3.4836
  239ccc     N111629   4.511   3.403   1.315  0.2276  0.1579  0.1138
  239ccc     H411630   4.513   3.462   1.233 -0.6045  1.1201  0.7576
  239ccc     C311631   4.624   3.311   1.341 -0.5860  0.6419  0.0972
  239ccc     H511632   4.696   3.350   1.415  2.1255 -1.6217 -1.1698
  239ccc     C411633   4.702   3.284   1.214 -0.0705  0.2307  0.4312
  239ccc     H611634   4.588   3.214   1.376  1.4373  0.1509  0.9565
  239ccc     H711635   4.729   3.381   1.169 -0.7738  0.7000  1.0133
  239ccc     H811636   4.640   3.232   1.140  0.8690 -0.8284  0.3533
  239ccc     N211637   4.832   3.203   1.225 -0.0266  0.6260  0.0219
  239ccc     C511638   4.794   3.070   1.284  0.3584 -0.4756 -0.3160
  239ccc     C611639   4.932   3.281   1.308  0.6611  0.3272 -0.3299
  239ccc     H911640   4.884   3.305   1.404 -0.9630  4.1096 -1.8904
  239ccc     C711641   4.975   3.416   1.250 -0.3169 -0.1397  0.3569
  239ccc    H1011642   5.024   3.222   1.317 -0.2055 -1.2368 -1.3213
  239ccc    H1111643   4.890   3.477   1.214 -0.2213 -0.4497 -0.4177
  239ccc    H1211644   5.038   3.404   1.161 -1.4785  3.0435 -1.0832
  239ccc     C811645   5.049   3.497   1.359 -0.4732  0.4610 -0.1167
  239ccc     O211646   5.000   3.577   1.435 -0.1929  0.0579  0.0155
  239ccc    H1311647   4.702   3.029   1.240 -1.1969  1.9043  0.4822
  239ccc    H1411648   4.769   3.088   1.390 -0.1368  0.6547 -0.6075
  239ccc     C911649   4.906   2.970   1.285 -0.0327 -0.3216 -1.0129
  239ccc    H1511650   4.980   2.999   1.361  2.0041 -0.4986 -2.8168
  239ccc    H1611651   4.953   2.963   1.186  1.9749 -2.6433 -0.0053
  239ccc    C1011652   4.864   2.824   1.311 -0.3662 -0.3093  0.3736
  239ccc     O411653   4.749   2.794   1.306  0.1003 -0.9549  0.3552
  239ccc    C1111654   5.323   3.555   1.771 -0.8341  0.0419 -0.1761
  239ccc    C1211655   5.311   3.408   1.728 -0.4330  0.0178 -0.1390
  239ccc    H1711656   5.230   3.605   1.802 -0.7267 -0.7536  1.5994
  239ccc    C1311657   5.223   3.386   1.602 -0.6387  0.4441  0.6134
  239ccc    C1411658   5.267   3.481   1.487  0.0315 -0.3751 -0.2163
  239ccc    C1511659   5.278   3.627   1.538 -0.4800  0.4793 -0.5320
  239ccc    H1811660   5.371   3.462   1.458  0.2050  0.4183 -0.1458
  239ccc    H1911661   5.116   3.392   1.628 -1.5827  0.6919 -2.7757
  239ccc    H2011662   5.178   3.654   1.574 -0.9757 -1.6881 -0.1624
  239ccc     O111663   5.334   3.724   1.452 -0.5113 -0.6161  0.1930
  239ccc     O611664   5.260   3.250   1.570 -0.5094 -0.3739 -0.2220
  239ccc    C1611665   5.420   3.582   1.882 -0.2689 -0.6852  0.3754
  239ccc    H2111666   5.352   3.233   1.543 -1.1232 -0.7236 -2.2585
  239ccc    H2211667   5.227   3.386   1.318  0.2904  0.7605 -2.3424
  239ccc    H2311668   5.517   3.536   1.862  0.4195  1.6215 -2.1086
  239ccc    H2411669   5.381   3.542   1.976 -0.6419 -1.4597 -0.1022
  239ccc     O711670   5.436   3.726   1.908  0.1477 -0.4588 -0.2124
  239ccc    H2511671   5.462   3.774   1.826 -1.2560 -0.4773 -0.6890
  239ccc     O811672   5.367   3.632   1.654 -0.3418  0.6265 -0.4547
  239ccc    H2611673   5.261   3.786   1.434  0.5157  0.8670  1.0343
  239ccc    H2711674   5.411   3.382   1.694 -1.3074 -1.6232 -1.5907
  239ccc     O911675   5.278   3.328   1.845  0.1609 -0.2870  0.9039
  239ccc    H2811676   5.316   3.239   1.833  1.6277  0.2083  1.7024
  239ccc     N311677   5.181   3.462   1.367  0.0939 -0.5553 -0.3536
  239ccc    C1711678   4.954   2.230   1.162  1.0913  0.3231  0.6261
  239ccc    C1811679   5.119   2.307   1.233  0.2071 -0.2368 -0.0526
  239ccc    H2911680   4.958   2.227   1.053 -0.5644 -1.3983  0.5639
  239ccc    C1911681   5.118   2.486   1.318 -0.3332  0.1756 -0.4259
  239ccc    C2011682   4.943   2.585   1.352  0.2600 -0.7646 -0.7529
  239ccc    C2111683   4.765   2.497   1.280  0.1125 -0.0581  0.2765
  239ccc    H3011684   4.931   2.576   1.461  1.0012 -1.0520 -0.6845
  239ccc    H3111685   5.167   2.547   1.241 -0.8384  0.4298 -0.5510
  239ccc    H3211686   4.725   2.571   1.210 -0.1746 -0.2170  0.2694
  239ccc    O1011687   4.665   2.488   1.382 -0.1599 -0.2701 -0.2846
  239ccc    O1111688   5.208   2.484   1.439 -0.0434 -0.3965 -0.1009
  239ccc    C2211689   4.940   2.075   1.190  0.1454 -0.5343  1.1908
  239ccc    H3311690   5.297   2.456   1.410  1.2607  1.5474  1.7150
  239ccc    H3411691   5.052   2.762   1.329 -0.5068  1.2414 -3.8970
  239ccc    H3511692   4.969   2.049   1.293  1.9640 -0.7418  0.6572
  239ccc    H3611693   5.007   2.022   1.121  0.6984  1.7795 -0.1704
  239ccc    O1211694   4.806   2.052   1.169 -0.2871 -0.6477  0.0611
  239ccc    H3711695   4.764   2.136   1.194 -1.1620 -0.4305 -1.9519
  239ccc    O1311696   4.784   2.325   1.192 -0.7322  0.4044  0.5755
  239ccc    H3811697   4.601   2.558   1.361  1.2040  0.8737 -0.7646
  239ccc    H3911698   5.158   2.236   1.307  0.5486  0.1629  0.1565
  239ccc     O511699   5.223   2.304   1.134  0.4259 -0.0626 -0.3945
  239ccc    H4011700   5.298   2.331   1.189  0.9174 -0.9433 -0.6151
  239ccc     N411701   4.956   2.730   1.323 -0.3311 -0.3210 -0.6459
  239ccc    H4111702   4.868   3.187   1.130 -0.7144 -0.3351 -0.0946
  240ccc     N111703   4.059   4.892   2.803 -0.0817  0.2012  0.1011
  240ccc     H411704   3.965   4.906   2.769  0.1983  0.6662 -0.5184
  240ccc     C311705   4.128   5.014   2.851 -0.2352  0.7709  0.3134
  240ccc     H511706   4.178   4.987   2.945  0.7570  0.9797 -0.1390
  240ccc     C411707   4.024   5.130   2.867  0.0016  0.0501  0.0803
  240ccc     H611708   4.211   5.035   2.782 -0.9472  1.1561 -0.4446
  240ccc     H711709   3.942   5.086   2.925  0.1346 -1.5421 -0.8777
  240ccc     H811710   3.984   5.155   2.768  1.8782  0.0727 -0.7237
  240ccc     N211711   4.081   5.264   2.932  0.4664  0.2925  0.2478
  240ccc     C511712   4.134   5.235   3.080  0.6043 -0.0494 -0.0889
  240ccc     C611713   3.979   5.370   2.926 -0.0716  0.2754 -0.1037
  240ccc     H911714   3.945   5.385   2.823 -0.4057  0.9233  0.0928
  240ccc     C711715   4.022   5.504   2.975 -0.6212 -0.0769  0.2312
  240ccc    H1011716   3.893   5.330   2.981  0.8387 -1.3461  0.2078
  240ccc    H1111717   4.114   5.528   2.921  0.3060  1.4058  2.3368
  240ccc    H1211718   4.048   5.502   3.082 -0.4418  3.8831  0.4015
  240ccc     C811719   3.926   5.623   2.963  0.6056 -0.1832 -0.3036
  240ccc     O211720   3.890   5.686   3.064 -0.6598  0.3229  0.3996
  240ccc    H1311721   4.190   5.316   3.129  1.6126 -1.7463  1.7031
  240ccc    H1411722   4.214   5.161   3.068  1.0668 -0.0333  2.3041
  240ccc     C911723   4.035   5.184   3.185  0.2817  0.2539  0.0960
  240ccc    H1511724   3.992   5.091   3.146  0.5497 -0.2722  1.0180
  240ccc    H1611725   3.955   5.257   3.203 -0.3747 -1.0426  3.0205
  240ccc    C1011726   4.096   5.160   3.324 -0.0549 -0.0104  0.2975
  240ccc     O411727   4.207   5.201   3.356  0.8923 -0.6566  0.5703
  240ccc    C1111728   3.699   5.981   2.630 -0.4390  0.3663  0.1048
  240ccc    C1211729   3.612   5.887   2.717  0.5723 -0.2927 -0.2833
  240ccc    H1711730   3.719   5.939   2.530  0.5277  1.2177 -0.0722
  240ccc    C1311731   3.685   5.755   2.719 -0.0252 -0.5033  0.1273
  240ccc    C1411732   3.808   5.778   2.807 -0.3089 -0.3715  0.2423
  240ccc    C1511733   3.902   5.878   2.729  0.7001  0.4184 -0.2160
  240ccc    H1811734   3.761   5.814   2.899  1.5417  0.3598  0.9298
  240ccc    H1911735   3.709   5.725   2.617 -2.1037 -1.7627 -0.0429
  240ccc    H2011736   3.931   5.838   2.632  0.9899  0.1448 -0.0180
  240ccc     O111737   4.016   5.917   2.805  0.0490  0.2236  0.3133
  240ccc     O611738   3.595   5.659   2.779 -0.1241 -0.5127  0.2546
  240ccc    C1611739   3.629   6.117   2.622 -0.5518 -0.0210  0.0422
  240ccc    H2111740   3.615   5.565   2.765 -0.7624 -0.4163 -1.5125
  240ccc    H2211741   3.914   5.612   2.755  0.9048  1.4694 -0.1747
  240ccc    H2311742   3.616   6.156   2.723  4.4750 -2.5839  2.0303
  240ccc    H2411743   3.533   6.117   2.570 -0.2736  0.8174 -0.5097
  240ccc     O711744   3.717   6.206   2.545  0.5639 -0.1150  0.1371
  240ccc    H2511745   3.671   6.290   2.560 -0.1451 -0.6776  1.2270
  240ccc     O811746   3.830   5.995   2.704 -0.2016  0.0397 -0.1435
  240ccc    H2611747   4.089   5.860   2.774  2.7453  1.9862  2.9558
  240ccc    H2711748   3.610   5.933   2.817  0.4010  1.3035 -0.9833
  240ccc     O911749   3.476   5.879   2.658  0.0936 -0.0046  0.3304
  240ccc    H2811750   3.452   5.786   2.648  1.5099 -0.1614 -2.9593
  240ccc     N311751   3.876   5.656   2.839 -0.1279  0.6701 -0.2002
  240ccc    C1711752   3.635   5.091   3.585 -0.4160  0.2960 -0.1871
  240ccc    C1811753   3.683   5.217   3.514 -0.0145  0.2575  0.4159
  240ccc    H2911754   3.687   5.100   3.681  1.3058 -0.9335 -0.9511
  240ccc    C1911755   3.837   5.214   3.502  0.0320  1.0878 -0.7593
  240ccc    C2011756   3.886   5.083   3.435  0.8121 -0.7419 -0.4583
  240ccc    C2111757   3.833   4.963   3.512  0.5553  0.1127  0.5435
  240ccc    H3011758   3.839   5.083   3.336  2.7090  0.8842 -1.4386
  240ccc    H3111759   3.877   5.221   3.603 -0.2113  0.8661 -0.6464
  240ccc    H3211760   3.870   4.962   3.615  0.7033  1.4676  0.5281
  240ccc    O1011761   3.864   4.838   3.449  0.1853 -0.5201  0.4554
  240ccc    O1111762   3.880   5.330   3.437 -0.0062  0.0030  0.0970
  240ccc    C2211763   3.484   5.081   3.589  0.0554  0.6606 -0.1355
  240ccc    H3311764   3.958   5.356   3.489  0.7397 -4.6177  1.6979
  240ccc    H3411765   4.075   5.082   3.514 -1.5250 -1.3802  1.0367
  240ccc    H3511766   3.444   5.045   3.493  1.9024  1.8855 -1.4233
  240ccc    H3611767   3.432   5.176   3.607  0.3081  0.8185 -0.2331
  240ccc    O1211768   3.444   4.988   3.697  0.3591 -0.4210  0.3619
  240ccc    H3711769   3.525   4.964   3.745  1.2595  1.5976 -0.0547
  240ccc    O1311770   3.689   4.969   3.517 -0.6925 -0.3367  0.2422
  240ccc    H3811771   3.941   4.799   3.494 -0.0094  0.5645  1.8248
  240ccc    H3911772   3.640   5.212   3.413  2.1717  0.1822 -0.5766
  240ccc     O511773   3.638   5.331   3.581  0.3287  0.1658  0.1331
  240ccc    H4011774   3.639   5.406   3.519  0.4660  0.7913  0.8702
  240ccc     N411775   4.035   5.084   3.420  0.5989  0.8051  0.0789
  240ccc    H4111776   4.161   5.292   2.874  0.5362  0.2721  0.3336
  241ccc     N111777   3.998   4.167   2.992  0.1603  0.2297  0.6336
  241ccc     H411778   4.015   4.261   3.025 -0.0267  0.8092 -0.8104
  241ccc     C311779   3.931   4.063   3.072  0.1005  0.2599 -0.2584
  241ccc     H511780   3.828   4.051   3.036  0.1272 -0.2587 -0.1656
  241ccc     C411781   3.936   4.086   3.224 -0.1136 -0.1214 -0.3427
  241ccc     H611782   3.976   3.966   3.047 -1.1934 -0.2003 -0.8660
  241ccc     H711783   3.844   4.037   3.254 -1.7838  0.3974 -4.0137
  241ccc     H811784   3.928   4.195   3.230  1.6751  0.2861 -3.2583
  241ccc     N211785   4.058   4.034   3.303  0.4286  0.0960 -0.1034
  241ccc     C511786   4.019   4.022   3.452 -0.4110 -0.6457  0.6608
  241ccc     C611787   4.173   4.136   3.274 -0.1558  0.3249 -0.3918
  241ccc     H911788   4.170   4.159   3.167 -2.5710  0.8861 -0.2667
  241ccc     C711789   4.313   4.083   3.327  0.4807 -0.8899 -0.3162
  241ccc    H1011790   4.152   4.229   3.329 -2.1272 -0.6795  0.6634
  241ccc    H1111791   4.318   4.069   3.435  1.9012  1.0946 -0.0782
  241ccc    H1211792   4.387   4.161   3.307 -0.8503 -0.0603 -2.3060
  241ccc     C811793   4.346   3.951   3.262 -0.5778 -0.3930 -0.0007
  241ccc     O211794   4.278   3.896   3.179 -0.4806  0.1151  0.6312
  241ccc    H1311795   3.984   4.119   3.490 -1.2750 -1.0735  0.9701
  241ccc    H1411796   4.115   4.018   3.505 -0.5933 -0.8395  0.9790
  241ccc     C911797   3.942   3.902   3.498  0.4252 -0.2609  0.8131
  241ccc    H1511798   3.848   3.890   3.443 -0.1497  3.7606  0.5720
  241ccc    H1611799   3.917   3.918   3.604  0.0807 -0.0461  0.6996
  241ccc    C1011800   4.019   3.773   3.484  0.1218 -0.3574 -0.0176
  241ccc     O411801   4.138   3.775   3.450 -0.0594  0.5105 -0.4670
  241ccc    C1111802   4.708   3.552   3.270  0.1248 -0.2826 -0.3878
  241ccc    C1211803   4.557   3.523   3.308 -0.3143  0.3780  0.3328
  241ccc    H1711804   4.766   3.587   3.356  1.3536 -1.5291 -0.6694
  241ccc    C1311805   4.493   3.651   3.357 -0.0952 -0.8696  0.5278
  241ccc    C1411806   4.505   3.756   3.247 -0.4758 -1.0783  0.5553
  241ccc    C1511807   4.653   3.772   3.206  0.5223  0.4848 -0.1740
  241ccc    H1811808   4.449   3.722   3.159  2.7074 -2.2861 -1.2004
  241ccc    H1911809   4.530   3.686   3.454 -0.2735  1.0960 -0.0730
  241ccc    H2011810   4.713   3.816   3.286 -0.5274  0.5507  0.5995
  241ccc     O111811   4.647   3.852   3.092 -0.9005 -0.2791 -0.2966
  241ccc     O611812   4.348   3.628   3.368 -0.3947  0.4254 -0.2690
  241ccc    C1611813   4.779   3.435   3.207 -0.2572 -0.0412  0.0968
  241ccc    H2111814   4.299   3.711   3.381  1.6755  1.6775 -0.0192
  241ccc    H2211815   4.516   3.933   3.372  0.7015  1.8001 -1.8630
  241ccc    H2311816   4.768   3.349   3.274  0.5187 -0.6703 -0.5646
  241ccc    H2411817   4.883   3.467   3.195 -0.2774 -0.0516 -0.1140
  241ccc     O711818   4.726   3.399   3.077 -0.3025  0.2585  0.3513
  241ccc    H2511819   4.789   3.333   3.045  0.4275  0.7411  0.7712
  241ccc     O811820   4.702   3.648   3.168  0.0946 -0.3500  0.3401
  241ccc    H2611821   4.644   3.943   3.127  0.1170  1.0120 -3.2252
  241ccc    H2711822   4.509   3.496   3.214  1.7840 -1.9933 -0.1533
  241ccc     O911823   4.547   3.416   3.407  0.4370 -0.2062 -0.2732
  241ccc    H2811824   4.542   3.456   3.496 -1.9240  5.1824 -2.3763
  241ccc     N311825   4.454   3.886   3.306 -0.0285 -0.0551  0.0367
  241ccc    C1711826   3.957   3.375   3.165 -1.0065 -0.3447 -0.2044
  241ccc    C1811827   3.863   3.332   3.289  0.1800 -0.2875 -0.3735
  241ccc    H2911828   4.054   3.331   3.193 -1.6865 -1.2354  0.8612
  241ccc    C1911829   3.875   3.442   3.398  0.4067  0.5904  0.0393
  241ccc    C2011830   3.915   3.587   3.366 -0.0157  0.4206 -0.3788
  241ccc    C2111831   4.014   3.592   3.247 -0.4009 -0.5524 -0.3307
  241ccc    H3011832   3.823   3.632   3.328  0.6601  0.7236 -1.7439
  241ccc    H3111833   3.958   3.402   3.457  0.2296 -3.5568 -2.1699
  241ccc    H3211834   4.116   3.559   3.271 -1.1731 -1.6272  1.6801
  241ccc    O1011835   4.009   3.722   3.182 -0.0248  1.2736  0.2409
  241ccc    O1111836   3.751   3.442   3.476 -0.1235  0.8025  0.4259
  241ccc    C2211837   3.916   3.300   3.027  0.1121 -0.0103 -0.6242
  241ccc    H3311838   3.732   3.352   3.510 -0.7876  0.8051  0.0706
  241ccc    H3411839   3.863   3.654   3.551  1.3549  0.4995  0.9947
  241ccc    H3511840   3.818   3.336   2.993 -0.8800 -0.3654  1.7031
  241ccc    H3611841   3.901   3.195   3.051  2.4727 -0.5999 -1.4377
  241ccc    O1211842   4.022   3.296   2.930  0.5905 -0.1601  0.2699
  241ccc    H3711843   3.984   3.267   2.846 -0.8469 -1.7320  1.4097
  241ccc    O1311844   3.957   3.516   3.145 -0.5047  0.4067  0.2005
  241ccc    H3811845   3.916   3.731   3.155 -0.6595  0.0381  1.8123
  241ccc    H3911846   3.759   3.342   3.255 -0.0578  2.5786  0.9210
  241ccc     O511847   3.891   3.209   3.342 -0.3560  0.0548  0.1775
  241ccc    H4011848   3.862   3.145   3.275 -0.2817  1.5055 -1.3025
  241ccc     N411849   3.947   3.660   3.494  0.2842  0.0343 -0.7229
  241ccc    H4111850   4.090   3.943   3.268  2.0715  0.4574  0.3570
  242ccc     N111851   2.892   4.767   3.347 -0.5472  0.5563 -0.7864
  242ccc     H411852   2.939   4.765   3.257  2.5016 -2.5894  0.6928
  242ccc     C311853   2.745   4.773   3.353  0.3595 -0.3813  0.2058
  242ccc     H511854   2.709   4.694   3.421  0.1678  0.7076  1.4063
  242ccc     C411855   2.683   4.746   3.208 -0.1989  0.5353 -0.3497
  242ccc     H611856   2.701   4.867   3.388  0.7036 -0.4791  0.9270
  242ccc     H711857   2.720   4.648   3.175 -0.9132  0.6262 -1.4615
  242ccc     H811858   2.730   4.803   3.127  0.7395 -0.3651 -0.4512
  242ccc     N211859   2.535   4.755   3.189  0.0829 -0.3311 -0.4128
  242ccc     C511860   2.449   4.681   3.285  0.1871  0.8719  0.1686
  242ccc     C611861   2.506   4.713   3.046 -0.4589 -0.2100 -0.5899
  242ccc     H911862   2.574   4.768   2.980 -1.7691  0.9246 -1.0503
  242ccc     C711863   2.369   4.777   2.999  0.9685 -0.2710 -0.5105
  242ccc    H1011864   2.509   4.605   3.027  0.9367 -0.5865  1.5043
  242ccc    H1111865   2.365   4.883   3.025  0.6030 -0.1717 -0.9502
  242ccc    H1211866   2.282   4.735   3.051  0.1803  2.1683  0.2775
  242ccc     C811867   2.354   4.767   2.847  0.0224  0.4719  0.4746
  242ccc     O211868   2.444   4.745   2.769 -0.0728 -0.4949  0.4792
  242ccc    H1311869   2.346   4.691   3.249 -0.1046 -0.7649  0.4356
  242ccc    H1411870   2.454   4.740   3.377 -3.2578  0.7786  0.5508
  242ccc     C911871   2.481   4.532   3.313 -0.4446 -0.3539 -0.5472
  242ccc    H1511872   2.589   4.525   3.333 -0.6644 -1.2802  0.4390
  242ccc    H1611873   2.455   4.461   3.234  0.5236 -0.9513 -0.3458
  242ccc    C1011874   2.405   4.482   3.440  0.1240 -0.0645 -0.4564
  242ccc     O411875   2.313   4.535   3.500 -0.2772 -0.0984 -0.2957
  242ccc    C1111876   2.044   4.703   2.390  0.1011  0.4220 -0.7695
  242ccc    C1211877   2.053   4.850   2.438  0.3986  0.6748  0.3228
  242ccc    H1711878   1.958   4.658   2.440  1.4124  0.6959  1.9415
  242ccc    C1311879   2.086   4.861   2.588  0.0704 -1.1822 -0.4877
  242ccc    C1411880   2.205   4.785   2.637 -0.2940  0.3014 -0.3373
  242ccc    C1511881   2.197   4.640   2.578  0.0853  0.5427  0.2089
  242ccc    H1811882   2.289   4.831   2.584  0.3157 -2.1467 -1.6325
  242ccc    H1911883   1.998   4.818   2.637 -0.1101 -0.9428 -0.5982
  242ccc    H2011884   2.123   4.584   2.636  2.6966  0.9220  4.3260
  242ccc     O111885   2.328   4.583   2.595  0.0014 -0.5380  0.2679
  242ccc     O611886   2.101   5.001   2.637  0.2271  0.3680  0.5324
  242ccc    C1611887   2.038   4.682   2.243  0.1007 -0.1428 -0.0686
  242ccc    H2111888   2.031   5.057   2.599 -0.3826  0.9744  2.4448
  242ccc    H2211889   2.144   4.787   2.841  1.7240  0.2082  2.3629
  242ccc    H2311890   1.946   4.715   2.193  1.3104  0.2770 -2.1317
  242ccc    H2411891   2.039   4.575   2.219 -1.5506  0.1487 -1.6109
  242ccc     O711892   2.139   4.747   2.171 -0.5431 -0.1568  0.3391
  242ccc    H2511893   2.133   4.721   2.078  0.7331  0.1615  0.1461
  242ccc     O811894   2.165   4.629   2.432  0.1019 -0.1632 -0.4616
  242ccc    H2611895   2.369   4.652   2.650  5.0059 -2.4906 -0.4911
  242ccc    H2711896   2.123   4.899   2.369  0.4273  0.4007  0.1554
  242ccc     O911897   1.928   4.918   2.414  0.5487  0.7216  0.0058
  242ccc    H2811898   1.947   4.978   2.339  0.9432  1.8808  0.9966
  242ccc     N311899   2.231   4.786   2.788  0.1423  0.0610 -0.4303
  242ccc    C1711900   2.152   4.216   3.762  0.1946 -0.0520 -0.1778
  242ccc    C1811901   2.161   4.142   3.629 -1.0950 -0.0906 -0.0216
  242ccc    H2911902   2.089   4.305   3.746  2.8725  1.5895 -2.5171
  242ccc    C1911903   2.257   4.214   3.523  0.0600  0.8083 -0.7478
  242ccc    C2011904   2.388   4.275   3.583  0.1395 -0.5764  0.0856
  242ccc    C2111905   2.346   4.348   3.709  0.5386 -0.1141 -0.3228
  242ccc    H3011906   2.457   4.193   3.608  0.2891 -1.4744 -2.8821
  242ccc    H3111907   2.196   4.300   3.491 -3.2620 -0.6514  1.1448
  242ccc    H3211908   2.279   4.431   3.687  1.0004 -0.0641 -1.6203
  242ccc    O1011909   2.460   4.391   3.778 -0.3030 -0.6040 -0.4655
  242ccc    O1111910   2.296   4.121   3.422 -0.0358  0.0718  0.5568
  242ccc    C2211911   2.077   4.139   3.875  0.1112  0.6398 -0.3661
  242ccc    H3311912   2.214   4.088   3.383 -0.6036  1.0331  0.8945
  242ccc    H3411913   2.523   4.319   3.428  1.3585  0.6105  0.4032
  242ccc    H3511914   2.129   4.043   3.882 -0.8726  0.1650  0.7494
  242ccc    H3611915   1.974   4.119   3.841 -0.6054  1.8428  0.9955
  242ccc    O1211916   2.075   4.211   3.998 -0.0734 -0.5524 -0.2801
  242ccc    H3711917   2.032   4.151   4.060  0.0855 -0.4143 -0.0355
  242ccc    O1311918   2.288   4.260   3.803  0.4794  0.1248 -0.0747
  242ccc    H3811919   2.448   4.348   3.865 -0.4872 -1.0829 -0.7219
  242ccc    H3911920   2.211   4.050   3.659  1.4391  1.4210  0.6760
  242ccc     O511921   2.033   4.128   3.572  0.2569 -0.7900 -0.1424
  242ccc    H4011922   1.987   4.048   3.605 -0.0387 -0.7993 -0.5745
  242ccc     N411923   2.459   4.371   3.488 -0.1210 -0.2565 -0.3716
  242ccc    H4111924   2.515   4.856   3.191 -0.5223 -0.3768 -2.3215
  243ccc     N111925   3.516   4.536   4.046 -0.0014 -0.1758  0.4035
  243ccc     H411926   3.563   4.458   4.002  0.6888  0.4311  0.0507
  243ccc     C311927   3.523   4.553   4.190  0.1972 -0.0397  0.1203
  243ccc     H511928   3.587   4.639   4.216 -0.9712  0.9513 -0.1926
  243ccc     C411929   3.554   4.424   4.257 -0.2431  0.1828 -0.3307
  243ccc     H611930   3.426   4.583   4.230 -0.5246 -1.3406 -0.5898
  243ccc     H711931   3.659   4.399   4.234 -0.2966 -0.1815 -0.1811
  243ccc     H811932   3.503   4.336   4.217 -0.9611  0.1209  0.6961
  243ccc     N211933   3.542   4.437   4.409  0.1874 -0.0165  0.0937
  243ccc     C511934   3.680   4.436   4.475 -0.1194  0.4061  0.1549
  243ccc     C611935   3.459   4.316   4.460  0.5568 -0.7733 -0.7664
  243ccc     H911936   3.524   4.230   4.439 -0.0180 -1.3294 -0.3109
  243ccc     C711937   3.320   4.300   4.401 -0.0899 -0.1319  0.6860
  243ccc    H1011938   3.447   4.324   4.569 -1.9869  1.5422 -1.1302
  243ccc    H1111939   3.274   4.201   4.417  0.2372 -0.5595 -0.8393
  243ccc    H1211940   3.311   4.316   4.293 -0.0043  1.0246  0.8355
  243ccc     C811941   3.218   4.397   4.460  0.5572 -0.4310  0.4062
  243ccc     O211942   3.204   4.510   4.416  0.4991  0.8739  0.0045
  243ccc    H1311943   3.722   4.338   4.449  0.4128  0.5336  0.5320
  243ccc    H1411944   3.678   4.432   4.584 -1.1431 -1.2425  0.1141
  243ccc     C911945   3.775   4.541   4.426 -0.5340 -0.2775  0.4399
  243ccc    H1511946   3.751   4.638   4.471  2.3045  0.4160  0.7096
  243ccc    H1611947   3.768   4.563   4.319 -1.5755 -0.9052  0.3738
  243ccc    C1011948   3.915   4.503   4.473 -0.3820 -0.5971  0.8495
  243ccc     O411949   3.943   4.395   4.529  0.1206  0.2908  0.8131
  243ccc    C1111950   2.861   4.650   4.712 -0.4586  0.5606 -0.1664
  243ccc    C1211951   2.807   4.526   4.629  0.3183 -0.2100 -0.7880
  243ccc    H1711952   2.896   4.712   4.628 -1.4339 -1.6920 -2.3707
  243ccc    C1311953   2.913   4.445   4.552 -0.1284 -0.1455  0.5838
  243ccc    C1411954   3.036   4.420   4.639 -0.3453  0.8686  0.4212
  243ccc    C1511955   3.080   4.557   4.699 -0.3323 -0.1807 -0.2216
  243ccc    H1811956   3.014   4.360   4.728 -0.7624  1.0757  0.4603
  243ccc    H1911957   2.934   4.494   4.457  0.8919  0.9882  1.3572
  243ccc    H2011958   3.091   4.628   4.618  0.0008 -0.2599 -0.2470
  243ccc     O111959   3.202   4.540   4.773  0.4177 -0.7952 -0.3703
  243ccc     O611960   2.855   4.321   4.514  0.5816 -0.1805  0.8999
  243ccc    C1611961   2.758   4.733   4.801 -0.6011  0.2045 -0.0284
  243ccc    H2111962   2.930   4.270   4.480  0.9695  1.2203 -0.4487
  243ccc    H2211963   3.166   4.258   4.610  2.8866  0.7765 -1.0636
  243ccc    H2311964   2.683   4.777   4.735  0.7864  0.8424 -1.2431
  243ccc    H2411965   2.811   4.817   4.848 -1.4551  3.1667 -3.8040
  243ccc     O711966   2.694   4.656   4.905 -0.1914  0.3122 -0.2245
  243ccc    H2511967   2.761   4.595   4.941 -0.4332  0.7404  0.9886
  243ccc     O811968   2.976   4.608   4.784 -0.2083 -0.5735  0.4031
  243ccc    H2611969   3.196   4.451   4.812  0.0990 -0.6157 -0.0032
  243ccc    H2711970   2.759   4.457   4.699 -1.8263  0.4319 -1.5615
  243ccc     O911971   2.705   4.581   4.540 -0.2863 -0.7331 -0.0836
  243ccc    H2811972   2.624   4.594   4.592 -1.1030 -1.1293 -1.2051
  243ccc     N311973   3.142   4.346   4.564  0.0716  0.4318 -0.4581
  243ccc    C1711974   4.199   4.836   4.168  0.3885 -0.5975 -0.2324
  243ccc    C1811975   4.114   4.718   4.111 -0.7797 -0.7529  0.2218
  243ccc    H2911976   4.291   4.786   4.201 -0.2902 -1.0429  1.0627
  243ccc    C1911977   4.089   4.612   4.219  0.0504 -0.0040  0.1041
  243ccc    C2011978   4.032   4.680   4.346 -0.0112 -0.2388 -0.5233
  243ccc    C2111979   4.107   4.803   4.395 -0.6277 -0.2940 -0.4789
  243ccc    H3011980   3.935   4.717   4.312 -1.3696 -2.2037  0.9514
  243ccc    H3111981   4.185   4.569   4.250  1.1335  1.6290 -0.8207
  243ccc    H3211982   4.208   4.785   4.434 -0.5047  2.6065  0.8143
  243ccc    O1011983   4.036   4.878   4.495  0.7265  0.7642  0.2501
  243ccc    O1111984   3.999   4.508   4.169 -0.0318  0.0138  0.0454
  243ccc    C2211985   4.222   4.955   4.073 -0.2111 -0.5372 -0.0434
  243ccc    H3311986   3.956   4.541   4.088 -2.1595 -0.7442  0.7839
  243ccc    H3411987   4.108   4.554   4.493  0.7729  1.1660 -0.8917
  243ccc    H3511988   4.134   5.021   4.068 -2.0087 -2.8583 -0.5493
  243ccc    H3611989   4.247   4.905   3.979 -0.9844 -1.4709  0.2311
  243ccc    O1211990   4.329   5.029   4.130  0.0865  0.0567 -0.2882
  243ccc    H3711991   4.314   5.039   4.226  1.1802  0.4296 -0.1352
  243ccc    O1311992   4.129   4.895   4.287 -0.0002  0.4908 -0.0893
  243ccc    H3811993   3.942   4.862   4.476  1.4389 -1.3751 -1.8284
  243ccc    H3911994   4.026   4.763   4.065 -0.7202 -1.1579 -0.3001
  243ccc     O511995   4.190   4.651   4.003 -0.1487 -0.2741  0.6469
  243ccc    H4011996   4.125   4.590   3.964 -0.1284 -0.0888  0.3215
  243ccc     N411997   4.017   4.590   4.463 -0.0078 -0.1973 -0.2224
  243ccc    H4111998   3.489   4.519   4.441  3.5047  1.8132  1.4286
  244ccc     N111999   2.468   4.693   3.855 -0.2247 -0.2284  0.1446
  244ccc     H412000   2.489   4.673   3.953 -0.4306  1.0079  0.4527
  244ccc     C312001   2.336   4.728   3.809  0.4837  0.2158  0.6208
  244ccc     H512002   2.308   4.649   3.738 -0.7039  1.3907 -0.2663
  244ccc     C412003   2.318   4.866   3.739 -0.5371 -0.3213 -0.2718
  244ccc     H612004   2.274   4.716   3.898  1.8853 -0.5058  1.5312
  244ccc     H712005   2.374   4.869   3.645 -1.0148 -2.2454 -0.6426
  244ccc     H812006   2.358   4.942   3.808 -0.4094 -1.5828  1.1007
  244ccc     N212007   2.169   4.903   3.719  0.0825 -0.1076  0.0661
  244ccc     C512008   2.100   4.803   3.622 -0.2348  0.0640 -0.1825
  244ccc     C612009   2.156   5.037   3.657 -0.4852 -0.1301 -0.2377
  244ccc     H912010   2.052   5.049   3.626 -0.5095 -1.8344 -0.9346
  244ccc     C712011   2.249   5.093   3.550  0.4995 -0.6453  1.2445
  244ccc    H1012012   2.163   5.106   3.742  1.3238 -0.5331 -0.0101
  244ccc    H1112013   2.354   5.084   3.581  0.3166  1.4344  2.6585
  244ccc    H1212014   2.240   5.201   3.530  1.7149 -0.9542 -1.4811
  244ccc     C812015   2.230   5.018   3.412 -0.5826 -0.0490 -0.5919
  244ccc     O212016   2.315   4.941   3.366 -0.3787  0.4512  0.3323
  244ccc    H1312017   2.179   4.765   3.556  1.3706 -0.3457  1.8768
  244ccc    H1412018   2.027   4.855   3.559 -0.2206 -0.0895 -0.3252
  244ccc     C912019   2.020   4.697   3.698 -0.4205 -0.0579  0.0803
  244ccc    H1512020   1.932   4.734   3.752  0.1990  1.8692 -0.1557
  244ccc    H1612021   2.081   4.641   3.770  2.1201  1.1879 -0.9587
  244ccc    C1012022   1.968   4.579   3.619 -0.5007 -0.1956 -0.0475
  244ccc     O412023   2.031   4.486   3.576 -0.4428  0.3390 -0.3227
  244ccc    C1112024   1.876   4.901   3.032 -0.7799 -0.2543  0.4716
  244ccc    C1212025   1.987   5.000   2.980 -0.1822  0.1038  0.3354
  244ccc    H1712026   1.791   4.958   3.072 -0.5435 -0.6372  1.5421
  244ccc    C1312027   2.039   5.076   3.107  0.3702 -0.2930  0.8981
  244ccc    C1412028   2.081   4.974   3.216 -0.5139  0.3515 -0.5229
  244ccc    C1512029   1.963   4.873   3.246  0.5619 -0.2723 -0.3381
  244ccc    H1812030   2.165   4.918   3.173 -0.4124 -0.0475  0.1785
  244ccc    H1912031   1.966   5.139   3.159  0.0789 -1.4667  1.9666
  244ccc    H2012032   1.888   4.937   3.296  0.7308 -0.7165  0.5025
  244ccc     O112033   1.990   4.764   3.333  0.3021  0.0356  0.1848
  244ccc     O612034   2.147   5.162   3.063 -0.7289  0.8070 -0.0216
  244ccc    C1612035   1.822   4.805   2.925 -0.0218 -0.6852 -0.0921
  244ccc    H2112036   2.150   5.235   3.127  0.0874 -0.2554  1.1942
  244ccc    H2212037   2.053   5.113   3.374 -0.8223  0.4395 -2.4522
  244ccc    H2312038   1.799   4.862   2.834  0.9948  2.2362  1.3289
  244ccc    H2412039   1.725   4.762   2.949 -0.4081 -0.4795 -1.2024
  244ccc     O712040   1.921   4.712   2.892 -0.2170  0.0476 -0.2724
  244ccc    H2512041   1.898   4.628   2.937 -0.0691 -0.9582 -1.9743
  244ccc     O812042   1.927   4.814   3.133  0.1136 -0.2628  0.1945
  244ccc    H2612043   1.912   4.711   3.310 -0.3750  1.6079 -1.4826
  244ccc    H2712044   2.063   4.940   2.929 -2.0859 -0.8533 -1.4971
  244ccc     O912045   1.921   5.087   2.888 -0.3982  0.6552  0.5700
  244ccc    H2812046   1.996   5.145   2.866 -0.4434  0.5357  0.1031
  244ccc     N312047   2.119   5.041   3.344  0.4567  0.3442  0.2427
  244ccc    C1712048   1.723   4.220   3.401 -0.4376  0.3114  0.1163
  244ccc    C1812049   1.663   4.235   3.543 -0.4440 -0.0284  0.4927
  244ccc    H2912050   1.824   4.180   3.417  0.4047  0.7947 -3.1754
  244ccc    C1912051   1.720   4.356   3.613 -0.0662  0.5023 -0.7090
  244ccc    C2012052   1.745   4.484   3.534  0.5358  0.0188  0.0878
  244ccc    C2112053   1.796   4.457   3.387 -1.0726 -0.1048  0.2674
  244ccc    H3012054   1.645   4.525   3.516  1.0774  1.0344 -0.7352
  244ccc    H3112055   1.820   4.323   3.645 -0.2915  1.1329  0.7453
  244ccc    H3212056   1.904   4.440   3.392 -0.5466  2.5412 -0.5817
  244ccc    O1012057   1.771   4.573   3.311 -0.2251 -0.2502  0.4051
  244ccc    O1112058   1.645   4.382   3.729  0.6286  0.0286  0.5778
  244ccc    C2212059   1.650   4.118   3.309 -0.4610 -0.4382 -0.1274
  244ccc    H3312060   1.698   4.423   3.799 -2.2291  2.1268  1.7320
  244ccc    H3412061   1.779   4.665   3.637 -3.8206 -1.8133 -0.7453
  244ccc    H3512062   1.665   4.019   3.353  0.4946  0.1093  0.8326
  244ccc    H3612063   1.696   4.112   3.210 -0.9430 -0.4219 -0.3591
  244ccc    O1212064   1.514   4.148   3.294 -0.0590  0.0406  0.1220
  244ccc    H3712065   1.475   4.065   3.261 -1.6164 -0.6060  3.2274
  244ccc    O1312066   1.724   4.344   3.326  0.0020  0.1995  0.1559
  244ccc    H3812067   1.676   4.587   3.299 -0.5287 -0.4029  2.3768
  244ccc    H3912068   1.554   4.226   3.545 -0.5430 -0.3812 -2.3686
  244ccc     O512069   1.699   4.110   3.609  0.1497 -0.4387 -0.7068
  244ccc    H4012070   1.634   4.105   3.680  1.4737  0.1005  0.5864
  244ccc     N412071   1.829   4.583   3.603 -0.5479 -0.0789 -0.4673
  244ccc    H4112072   2.112   4.891   3.804 -0.2245 -1.5646 -0.3089
  245ccc     N112073   2.651   4.021   4.071  0.2715  0.0410  0.1965
  245ccc     H412074   2.592   3.996   3.993 -0.8118  0.1579  0.9599
  245ccc     C312075   2.658   3.927   4.181 -0.4761  0.8603  0.2953
  245ccc     H512076   2.686   3.963   4.281  1.3106  2.2317 -0.6201
  245ccc     C412077   2.758   3.808   4.157  0.9327  0.4679  0.6052
  245ccc     H612078   2.558   3.887   4.199 -0.6113  0.4135 -1.3051
  245ccc     H712079   2.749   3.734   4.237 -0.1094  0.8611  0.8719
  245ccc     H812080   2.860   3.847   4.173  0.0368  2.2883  2.2929
  245ccc     N212081   2.740   3.729   4.023  0.2371 -0.5268  0.4847
  245ccc     C512082   2.614   3.649   4.039  0.0278 -0.7248 -0.3491
  245ccc     C612083   2.858   3.651   3.975  0.4885  0.3967  0.1618
  245ccc     H912084   2.887   3.581   4.054 -1.5255  0.2474  0.8020
  245ccc     C712085   2.989   3.725   3.943  0.5558 -0.4117  0.1105
  245ccc    H1012086   2.832   3.590   3.888  4.7067 -0.2468 -0.8716
  245ccc    H1112087   3.042   3.644   3.892  1.2350  0.7520 -1.1033
  245ccc    H1212088   3.056   3.753   4.025  2.3760  1.8738 -2.0091
  245ccc     C812089   2.970   3.843   3.854 -0.6733 -0.6309  0.7258
  245ccc     O212090   2.962   3.959   3.893 -0.2012  0.0776 -0.3486
  245ccc    H1312091   2.532   3.706   4.085  0.5440  0.3753 -0.7431
  245ccc    H1412092   2.619   3.558   4.100 -0.1156 -1.1865 -1.0277
  245ccc     C912093   2.550   3.619   3.903  0.0638 -0.0131  0.1950
  245ccc    H1512094   2.611   3.551   3.842 -1.1338 -0.4569 -0.5544
  245ccc    H1612095   2.546   3.710   3.841  0.7807  0.3944  0.7291
  245ccc    C1012096   2.411   3.558   3.920  0.0316 -0.4408 -0.6244
  245ccc     O412097   2.371   3.507   4.027  0.1517  0.6183 -0.2484
  245ccc    C1112098   2.683   3.952   3.394 -0.7521  0.6812  0.5164
  245ccc    C1212099   2.619   3.970   3.534 -0.0296 -0.2452 -0.1366
  245ccc    H1712100   2.680   3.847   3.361  1.4743  0.8663 -0.4721
  245ccc    C1312101   2.697   3.883   3.636  0.2722 -0.1987  1.0018
  245ccc    C1412102   2.852   3.908   3.639 -0.5143 -0.0312  0.2870
  245ccc    C1512103   2.907   3.911   3.491  0.6506  0.6791  0.2994
  245ccc    H1812104   2.873   4.013   3.664 -0.2498  0.2049 -0.8802
  245ccc    H1912105   2.690   3.776   3.610  2.3846  0.1761 -1.5507
  245ccc    H2012106   2.905   3.809   3.450  2.4595  1.3901 -1.7006
  245ccc     O112107   3.043   3.942   3.471 -0.8975  0.1574 -0.4233
  245ccc     O612108   2.646   3.909   3.761  0.2045  0.3196  0.1399
  245ccc    C1612109   2.623   4.037   3.274 -0.5805 -0.5972  0.5062
  245ccc    H2112110   2.549   3.909   3.751  0.1809  0.0921  0.3659
  245ccc    H2212111   2.931   3.719   3.707  0.6971  0.1961  0.8132
  245ccc    H2312112   2.524   3.999   3.245 -0.7188 -0.9453  1.4141
  245ccc    H2412113   2.682   4.025   3.182 -1.3365  1.5892 -0.3378
  245ccc     O712114   2.615   4.172   3.317 -0.4041 -0.2573  0.0183
  245ccc    H2512115   2.612   4.217   3.231  0.3030 -1.6224 -0.7696
  245ccc     O812116   2.823   3.995   3.406  0.2497  0.5342 -0.1643
  245ccc    H2612117   3.074   3.874   3.408  3.1057  0.4288  0.9304
  245ccc    H2712118   2.635   4.071   3.575 -0.7486 -0.5808  1.0236
  245ccc     O912119   2.485   3.927   3.537  0.0719  0.0480  0.1819
  245ccc    H2812120   2.435   3.993   3.485  1.0872 -0.3435 -1.3155
  245ccc     N312121   2.938   3.819   3.727  0.0207  0.4265 -0.0469
  245ccc    C1712122   2.244   3.658   3.408  0.8646  0.1639  0.6231
  245ccc    C1812123   2.176   3.745   3.512 -0.0603 -0.3334 -0.1220
  245ccc    H2912124   2.176   3.572   3.393  0.0627  1.2405 -2.7577
  245ccc    C1912125   2.187   3.695   3.658  0.2910  0.3508 -0.4015
  245ccc    C2012126   2.323   3.640   3.696 -0.5605 -0.0062 -0.3653
  245ccc    C2112127   2.390   3.554   3.586 -0.1356 -0.5644  0.0726
  245ccc    H3012128   2.393   3.724   3.704 -1.1941  0.3994  1.0854
  245ccc    H3112129   2.116   3.615   3.682  1.1083 -0.2382  0.0777
  245ccc    H3212130   2.353   3.451   3.589 -3.3863  0.4183 -1.8501
  245ccc    O1012131   2.526   3.552   3.612  0.8243 -0.2530 -0.1075
  245ccc    O1112132   2.152   3.799   3.749 -0.0808  0.5568 -0.0817
  245ccc    C2212133   2.253   3.716   3.265 -0.9238 -0.4133 -0.1290
  245ccc    H3312134   2.117   3.740   3.818  1.7541  0.7747  1.0651
  245ccc    H3412135   2.239   3.523   3.840  1.3910 -2.6480  0.7005
  245ccc    H3512136   2.327   3.796   3.273 -1.4556 -0.0611  2.1599
  245ccc    H3612137   2.157   3.759   3.232 -1.0858  1.6159  2.5642
  245ccc    O1212138   2.302   3.618   3.178 -0.2512  0.7736  0.1562
  245ccc    H3712139   2.240   3.544   3.167 -1.4180  1.6021  0.9452
  245ccc    O1312140   2.370   3.615   3.455 -0.2800 -0.4450 -0.2328
  245ccc    H3812141   2.562   3.564   3.522 -2.7299  2.5083 -1.3988
  245ccc    H3912142   2.220   3.844   3.501  0.0520 -0.5506 -1.9030
  245ccc     O512143   2.032   3.743   3.484  0.2485  0.1178 -0.0125
  245ccc    H4012144   1.996   3.800   3.555 -1.1306  0.7422 -1.1634
  245ccc     N412145   2.320   3.584   3.829 -0.0711 -0.7380  0.0417
  245ccc    H4112146   2.721   3.790   3.942 -2.3350 -1.2304  0.4598
  246ccc     N112147   5.329   1.924   3.035  0.2434 -0.4223 -0.1749
  246ccc     H412148   5.300   1.973   2.951 -0.4549  0.7495  0.7199
  246ccc     C312149   5.460   1.860   3.039 -0.8564  0.6018 -0.2678
  246ccc     H512150   5.510   1.875   3.135 -0.9288  1.1874 -0.3174
  246ccc     C412151   5.553   1.880   2.914 -0.2453 -0.1136  0.6705
  246ccc     H612152   5.428   1.755   3.038 -0.2636  0.3546 -3.5064
  246ccc     H712153   5.491   1.852   2.828 -1.1622  1.9428  0.6108
  246ccc     H812154   5.636   1.808   2.926 -0.5781 -0.7807 -0.8545
  246ccc     N212155   5.604   2.025   2.886  0.8145  0.1362  0.0631
  246ccc     C512156   5.672   2.035   2.747  0.1884 -0.3846 -0.3069
  246ccc     C612157   5.692   2.078   3.001  0.7476  0.4930 -1.0065
  246ccc     H912158   5.744   1.990   3.044  1.1637  1.1757 -0.0681
  246ccc     C712159   5.628   2.149   3.122  0.1423 -0.3029  0.2048
  246ccc    H1012160   5.775   2.138   2.961  1.3663  0.3357 -0.0093
  246ccc    H1112161   5.565   2.075   3.172 -0.4276 -0.1164 -0.2220
  246ccc    H1212162   5.573   2.234   3.079  0.9040 -0.1173 -0.4324
  246ccc     C812163   5.736   2.197   3.213  0.3187 -0.2623 -0.6261
  246ccc     O212164   5.854   2.194   3.193 -0.2330  0.4211  0.2438
  246ccc    H1312165   5.767   1.980   2.754 -0.9140 -2.3484 -0.3223
  246ccc    H1412166   5.701   2.140   2.735  2.4783 -0.6170  2.1602
  246ccc     C912167   5.594   1.980   2.627  0.0397 -0.6125 -0.4761
  246ccc    H1512168   5.497   2.030   2.612  0.9085  1.4878  0.5064
  246ccc    H1612169   5.583   1.873   2.643 -1.8116 -0.6056 -1.3642
  246ccc    C1012170   5.680   1.992   2.501 -0.6621  0.4982  0.6390
  246ccc     O412171   5.762   1.903   2.464 -0.1197 -0.3518 -0.3225
  246ccc    C1112172   5.808   2.462   3.676 -0.3705 -0.1262  0.5830
  246ccc    C1212173   5.810   2.302   3.684  0.4459 -0.2515  0.0241
  246ccc    H1712174   5.701   2.485   3.690 -0.6292 -0.6018 -0.5140
  246ccc    C1312175   5.719   2.251   3.566 -0.3075  0.2327 -0.0862
  246ccc    C1412176   5.770   2.311   3.430 -0.2374 -0.7326  0.2143
  246ccc    C1512177   5.763   2.463   3.438  0.0702  0.1453  0.1671
  246ccc    H1812178   5.872   2.273   3.417 -0.2660 -1.7890  2.4985
  246ccc    H1912179   5.616   2.286   3.583 -0.5425  0.0306 -1.0382
  246ccc    H2012180   5.658   2.482   3.463 -0.2073 -1.2789  0.1725
  246ccc     O112181   5.795   2.521   3.311 -0.4181  0.1787 -0.5966
  246ccc     O612182   5.721   2.109   3.557 -0.5859 -0.3280  0.0206
  246ccc    C1612183   5.900   2.529   3.784  0.0068 -0.1586 -0.2291
  246ccc    H2112184   5.638   2.074   3.521  0.9424 -4.0946 -0.2037
  246ccc    H2212185   5.588   2.260   3.324 -0.2373 -0.5678 -2.0249
  246ccc    H2312186   5.860   2.509   3.883  1.6030  2.0465  0.9534
  246ccc    H2412187   5.898   2.639   3.783  0.4103 -0.1480 -0.7225
  246ccc     O712188   6.037   2.489   3.781  0.2750 -0.0783 -0.0313
  246ccc    H2512189   6.062   2.452   3.867 -2.7061 -1.4100  0.3717
  246ccc     O812190   5.851   2.505   3.543  0.1164  0.3661  0.2890
  246ccc    H2612191   5.735   2.486   3.243 -1.2931 -0.7854  0.6440
  246ccc    H2712192   5.916   2.277   3.670  0.5921  1.1601 -1.7666
  246ccc     O912193   5.756   2.265   3.814  0.2177  0.7499 -0.2213
  246ccc    H2812194   5.717   2.176   3.817  1.5289  0.1757  0.6749
  246ccc     N312195   5.690   2.263   3.317 -0.0131  0.1514  0.5205
  246ccc    C1712196   5.740   2.335   2.088  0.2091  0.1743 -0.2987
  246ccc    C1812197   5.858   2.353   2.185 -0.7145  0.4076 -0.0760
  246ccc    H2912198   5.653   2.389   2.127  0.8541  1.5261 -0.6419
  246ccc    C1912199   5.827   2.299   2.331 -0.2104  0.0524  0.3029
  246ccc    C2012200   5.755   2.160   2.323  0.0193 -0.1640 -0.3532
  246ccc    C2112201   5.660   2.142   2.203 -0.0080 -0.9554  0.5371
  246ccc    H3012202   5.836   2.087   2.308  1.7149  1.3963  0.7901
  246ccc    H3112203   5.753   2.362   2.382 -1.5924 -1.7198  0.5717
  246ccc    H3212204   5.562   2.188   2.221  0.8891  2.4558 -2.2388
  246ccc    O1012205   5.645   2.003   2.178  0.1911 -0.1797  0.3167
  246ccc    O1112206   5.955   2.310   2.400 -0.7078  0.4584 -0.0748
  246ccc    C2212207   5.764   2.393   1.948 -0.7306 -0.2814  0.1592
  246ccc    H3312208   5.933   2.317   2.494 -2.3130 -2.6166 -0.1126
  246ccc    H3412209   5.625   2.190   2.472 -1.3266 -0.6790 -0.1381
  246ccc    H3512210   5.802   2.494   1.964 -1.3084  0.1299 -1.0023
  246ccc    H3612211   5.667   2.418   1.903 -0.2650  1.4548  0.0392
  246ccc    O1212212   5.851   2.310   1.862  0.3002 -0.7447  0.0541
  246ccc    H3712213   5.816   2.221   1.878 -0.8085 -0.3506 -0.0559
  246ccc    O1312214   5.705   2.198   2.077 -0.0203 -0.2251 -0.3437
  246ccc    H3812215   5.551   1.995   2.199  0.0557  2.1741  0.9770
  246ccc    H3912216   5.941   2.288   2.155 -0.8683 -1.1690  2.5723
  246ccc     O512217   5.895   2.490   2.189  0.2662 -0.4568 -0.3113
  246ccc    H4012218   5.825   2.530   2.243  0.2352  0.1926 -0.8311
  246ccc     N412219   5.691   2.115   2.450  0.1173  0.4240  0.3142
  246ccc    H4112220   5.528   2.090   2.860  1.1145 -0.2858 -2.1235
  247ccc     N112221   5.051   2.289   3.546 -0.2088 -0.0100 -0.1372
  247ccc     H412222   5.142   2.270   3.508  0.1006  1.2833 -0.0858
  247ccc     C312223   5.042   2.414   3.618  0.3583 -0.7821  0.0607
  247ccc     H512224   5.106   2.487   3.566 -1.7654 -1.2601 -3.5840
  247ccc     C412225   5.080   2.404   3.769  0.2645  0.5790 -0.0246
  247ccc     H612226   4.940   2.450   3.605  0.3341 -0.2542  1.6022
  247ccc     H712227   5.187   2.385   3.781  0.0998  0.6933  1.9465
  247ccc     H812228   5.033   2.312   3.808  2.3757 -1.4091 -1.8137
  247ccc     N212229   5.043   2.531   3.848  0.1487 -0.2464 -0.2905
  247ccc     C512230   5.154   2.633   3.834  0.1592 -0.1175 -0.3372
  247ccc     C612231   5.002   2.498   3.993 -0.2210  0.1814  0.7048
  247ccc     H912232   5.075   2.434   4.045  0.2741  0.5479  0.4790
  247ccc     C712233   4.850   2.442   4.009 -0.0170  0.8798  0.3901
  247ccc    H1012234   5.011   2.598   4.036  1.3407  0.7255 -0.7614
  247ccc    H1112235   4.837   2.438   4.118  2.6120 -0.2030  0.7347
  247ccc    H1212236   4.845   2.337   3.977 -0.4357  0.6887  1.0468
  247ccc     C812237   4.746   2.528   3.939 -0.0352 -1.4962 -0.0933
  247ccc     O212238   4.739   2.547   3.820 -0.0871  0.4725 -0.3789
  247ccc    H1312239   5.162   2.635   3.725 -0.6647 -0.1526 -0.4063
  247ccc    H1412240   5.249   2.593   3.871  0.1702  0.1937 -0.0223
  247ccc     C912241   5.128   2.777   3.887 -0.6328  1.0854  0.0167
  247ccc    H1512242   5.132   2.782   3.996 -2.0163 -0.8849  0.2067
  247ccc    H1612243   5.022   2.801   3.870 -0.6390  1.9410  1.1513
  247ccc    C1012244   5.216   2.884   3.820  0.1357  0.7760  0.5161
  247ccc     O412245   5.340   2.883   3.817  0.4406 -0.0188 -0.0192
  247ccc    C1112246   4.415   2.931   4.032 -0.0013  0.4014 -0.0665
  247ccc    C1212247   4.550   2.951   3.965  0.2782 -0.9062 -0.2417
  247ccc    H1712248   4.407   2.926   4.141 -2.3902  1.2615 -0.1352
  247ccc    C1312249   4.640   2.832   3.992  0.0338  0.2164  0.1840
  247ccc    C1412250   4.571   2.699   3.971  0.6005  0.6479  0.7027
  247ccc    C1512251   4.427   2.696   4.031 -0.5505 -0.2992  0.3542
  247ccc    H1812252   4.560   2.691   3.862 -1.3085  2.1369  0.7274
  247ccc    H1912253   4.672   2.844   4.097  1.6610 -0.8801 -0.1527
  247ccc    H2012254   4.435   2.711   4.139  2.0064 -1.1074  0.3425
  247ccc     O112255   4.353   2.576   3.988  0.0797 -0.8536  0.3670
  247ccc     O612256   4.761   2.841   3.913 -0.5121 -0.6130 -0.2156
  247ccc    C1612257   4.316   3.047   4.000 -0.1712  0.3217  0.0628
  247ccc    H2112258   4.745   2.788   3.832 -2.2870 -2.1982  1.0602
  247ccc    H2212259   4.655   2.577   4.118  0.5956  0.4793 -0.2882
  247ccc    H2312260   4.340   3.137   4.058 -0.9600  0.8523 -0.4123
  247ccc    H2412261   4.220   3.013   4.039 -1.2224  1.5677 -1.3278
  247ccc     O712262   4.304   3.075   3.863  0.1469  0.3344 -0.2620
  247ccc    H2512263   4.389   3.112   3.833  1.5415 -1.6146  1.0354
  247ccc     O812264   4.350   2.808   3.985 -0.2947  0.4658  0.1214
  247ccc    H2612265   4.344   2.513   4.062 -0.8054  1.4308  2.3297
  247ccc    H2712266   4.532   2.958   3.857 -0.4360 -0.3020 -0.0918
  247ccc     O912267   4.621   3.070   4.010 -0.0369 -0.3666  0.3865
  247ccc    H2812268   4.693   3.078   3.945 -0.3694 -2.1962 -0.2960
  247ccc     N312269   4.651   2.581   4.017 -0.8318  0.4066 -0.2623
  247ccc    C1712270   4.778   3.176   3.686 -0.7069 -0.1579 -0.4404
  247ccc    C1812271   4.850   3.108   3.569 -0.1616  0.1019  0.5186
  247ccc    H2912272   4.814   3.279   3.691 -2.5449  0.4692  1.9122
  247ccc    C1912273   5.000   3.084   3.590  0.5468  1.2377 -0.7874
  247ccc    C2012274   5.012   3.013   3.731 -0.6555 -0.2158  0.6816
  247ccc    C2112275   4.951   3.100   3.838  0.3992 -0.1221 -0.2428
  247ccc    H3012276   4.955   2.920   3.722  2.1873 -1.9568 -0.8045
  247ccc    H3112277   5.056   3.178   3.580  1.3796  0.8152 -0.2500
  247ccc    H3212278   4.999   3.198   3.846  1.4756 -0.5127 -1.5156
  247ccc    O1012279   4.952   3.041   3.966  0.0011  0.1064 -0.4169
  247ccc    O1112280   5.055   2.989   3.503  0.4669  0.3993 -0.2508
  247ccc    C2212281   4.625   3.176   3.664 -0.2605  0.5992 -0.2904
  247ccc    H3312282   5.063   3.024   3.413  1.8807 -0.8958 -0.6707
  247ccc    H3412283   5.220   3.052   3.707  0.3311  1.1172  2.0803
  247ccc    H3512284   4.589   3.075   3.642 -3.5535  1.0884  2.0953
  247ccc    H3612285   4.605   3.233   3.572  0.4072 -0.1569 -0.9235
  247ccc    O1212286   4.551   3.234   3.768 -0.7333  0.0917  0.2767
  247ccc    H3712287   4.564   3.330   3.757  1.8441 -0.0687  1.2061
  247ccc    O1312288   4.807   3.115   3.815 -0.1746 -0.1549 -0.0817
  247ccc    H3812289   4.885   2.972   3.964 -0.1882  0.2954 -0.7585
  247ccc    H3912290   4.804   3.010   3.551  1.4636 -0.6605  0.3648
  247ccc     O512291   4.834   3.194   3.456  0.1757 -0.5410  0.2510
  247ccc    H4012292   4.904   3.171   3.392 -0.5899  0.1142 -0.8674
  247ccc     N412293   5.161   2.985   3.757  0.5150  0.2322  1.1628
  247ccc    H4112294   4.960   2.576   3.807 -0.6965 -3.0147 -1.8912
  248ccc     N112295   4.530   1.551   4.581  0.4484 -0.3994  0.0652
  248ccc     H412296   4.429   1.554   4.591  0.3898 -1.9216  0.1204
  248ccc     C312297   4.597   1.427   4.572 -0.1444  1.0506  0.6977
  248ccc     H512298   4.705   1.439   4.585  0.2596  0.5178 -1.7113
  248ccc     C412299   4.576   1.345   4.439  0.0630 -0.5114  0.2217
  248ccc     H612300   4.560   1.365   4.655 -1.9828  1.2676  0.0870
  248ccc     H712301   4.475   1.304   4.433  0.5883 -1.8700  0.2624
  248ccc     H812302   4.637   1.254   4.447  0.1978 -0.2988  2.3751
  248ccc     N212303   4.596   1.407   4.298 -0.5367  0.1131  0.1394
  248ccc     C512304   4.740   1.450   4.284  0.2533  0.0573  0.1222
  248ccc     C612305   4.493   1.511   4.271 -0.1445  0.0628  0.4447
  248ccc     H912306   4.391   1.471   4.271 -0.3854  0.6091 -0.8581
  248ccc     C712307   4.506   1.595   4.145 -0.3882 -0.6731 -0.5797
  248ccc    H1012308   4.483   1.586   4.350 -1.2517  0.4465 -0.0354
  248ccc    H1112309   4.408   1.626   4.106  0.8033  2.0098 -1.7630
  248ccc    H1212310   4.552   1.533   4.067 -1.2049 -0.3491 -1.3410
  248ccc     C812311   4.594   1.719   4.166  0.0855 -0.0788  0.1086
  248ccc     O212312   4.582   1.793   4.260 -0.3644 -0.1026  0.0127
  248ccc    H1312313   4.750   1.542   4.343 -0.2124  0.6651 -0.7235
  248ccc    H1412314   4.758   1.469   4.178  0.6415 -0.0439  0.1679
  248ccc     C912315   4.844   1.347   4.343 -0.7092  0.3361  0.0925
  248ccc    H1512316   4.809   1.247   4.317 -2.2640  0.9858 -0.4272
  248ccc    H1612317   4.860   1.338   4.451  0.2220  0.2013 -0.0500
  248ccc    C1012318   4.981   1.377   4.279  0.3646 -0.0762 -0.0776
  248ccc     O412319   5.074   1.435   4.329 -0.2276  0.3750  0.0281
  248ccc    C1112320   5.015   1.943   3.922  0.6949  0.0946 -0.4122
  248ccc    C1212321   4.885   2.005   3.888  0.6637 -0.6181  0.0422
  248ccc    H1712322   5.024   1.860   3.850  0.2868 -0.1375 -0.2008
  248ccc    C1312323   4.763   1.913   3.908  0.1289  0.2879 -0.7014
  248ccc    C1412324   4.771   1.848   4.052 -1.1387 -0.3302  0.8264
  248ccc    C1512325   4.909   1.791   4.081 -0.0855 -0.1341  0.5435
  248ccc    H1812326   4.737   1.934   4.112 -2.3566  0.1911 -0.5271
  248ccc    H1912327   4.756   1.835   3.832 -1.4351 -0.7015  0.3876
  248ccc    H2012328   4.921   1.698   4.023 -0.4608 -0.6111  1.2204
  248ccc     O112329   4.912   1.747   4.216 -0.1339 -0.8363 -0.6247
  248ccc     O612330   4.643   1.982   3.897 -0.0652  0.3648 -0.0957
  248ccc    C1612331   5.138   2.035   3.907  0.2691  0.0298 -0.1531
  248ccc    H2112332   4.576   1.912   3.903 -0.8722  0.9523 -1.6491
  248ccc    H2212333   4.684   1.676   3.981  0.5079 -0.6813  0.8594
  248ccc    H2312334   5.137   2.073   3.803 -0.2756 -0.4613 -0.3323
  248ccc    H2412335   5.230   1.981   3.933 -0.1236  0.3385  2.0656
  248ccc     O712336   5.129   2.159   3.985  0.4652 -0.5309  0.3085
  248ccc    H2512337   5.081   2.134   4.066  2.3267 -2.0964  1.0182
  248ccc     O812338   5.017   1.887   4.060  0.0931 -0.2758 -0.2243
  248ccc    H2612339   4.953   1.819   4.268  2.0312 -2.1359 -0.4442
  248ccc    H2712340   4.878   2.090   3.957  0.9691 -0.6161  0.0723
  248ccc     O912341   4.873   2.047   3.754 -0.3576  0.2981 -0.5444
  248ccc    H2812342   4.783   2.021   3.728 -0.1289  0.1468 -1.2073
  248ccc     N312343   4.673   1.744   4.056  0.6047  0.7546 -0.3798
  248ccc    C1712344   5.416   1.362   4.043  0.6149 -0.3946  0.0323
  248ccc    C1812345   5.363   1.223   4.075  0.2776  0.0573 -0.1649
  248ccc    H2912346   5.428   1.413   4.139  0.7002 -0.4101  0.0290
  248ccc    C1912347   5.233   1.230   4.159 -0.5504  0.5570 -0.4911
  248ccc    C2012348   5.121   1.313   4.083 -0.0923  0.3080 -0.6210
  248ccc    C2112349   5.182   1.452   4.045  0.0095  0.1406  0.5860
  248ccc    H3012350   5.106   1.262   3.987 -0.9554  1.4268 -1.1193
  248ccc    H3112351   5.256   1.272   4.257 -0.2149  1.4592 -0.9437
  248ccc    H3212352   5.204   1.505   4.138  2.3992  1.4693 -0.6209
  248ccc    O1012353   5.093   1.531   3.957 -0.3210 -0.3593 -0.0796
  248ccc    O1112354   5.190   1.097   4.181 -0.3083  0.2759  0.0823
  248ccc    C2212355   5.546   1.371   3.962 -0.8210 -0.0114  0.0860
  248ccc    H3312356   5.156   1.082   4.271 -0.4652 -2.5875 -0.3782
  248ccc    H3412357   4.923   1.253   4.137 -1.9562  1.9956 -0.0252
  248ccc    H3512358   5.526   1.339   3.859 -1.4394 -1.3953  0.6175
  248ccc    H3612359   5.623   1.307   4.007  1.7117  2.4227 -0.4998
  248ccc    O1212360   5.599   1.508   3.954 -0.2906  0.0550 -0.4511
  248ccc    H3712361   5.550   1.555   4.024 -1.1080  1.5122 -1.9214
  248ccc    O1312362   5.304   1.432   3.976 -0.2446  0.4406 -0.2154
  248ccc    H3812363   5.150   1.585   3.899 -1.9149  1.4517 -0.0822
  248ccc    H3912364   5.333   1.167   3.986  1.3363 -0.3111 -0.2938
  248ccc     O512365   5.460   1.155   4.151  0.6382  0.2381 -0.2125
  248ccc    H4012366   5.419   1.069   4.167  0.6106 -0.2994 -2.7385
  248ccc     N412367   4.992   1.325   4.159 -0.0060  0.2668 -0.1794
  248ccc    H4112368   4.585   1.335   4.225  0.3494  1.9011 -1.8891
  249ccc     N112369   5.032   1.878   4.596 -0.0141  0.1952 -0.1705
  249ccc     H412370   5.023   1.858   4.695 -0.5754 -0.9368 -0.4283
  249ccc     C312371   5.105   1.773   4.518  0.1055  0.4158 -0.4485
  249ccc     H512372   5.030   1.701   4.484  1.5995 -1.5796  0.2545
  249ccc     C412373   5.199   1.695   4.602  0.2157  0.0783  0.1043
  249ccc     H612374   5.150   1.811   4.426 -1.3897 -0.3604 -1.5332
  249ccc     H712375   5.149   1.669   4.696  1.7803  0.2994  1.0471
  249ccc     H812376   5.297   1.744   4.610  1.5830 -2.0373 -2.0777
  249ccc     N212377   5.248   1.571   4.532 -0.0895 -0.5253  0.3227
  249ccc     C512378   5.343   1.492   4.622 -0.5186  0.5376 -0.5299
  249ccc     C612379   5.314   1.602   4.397 -0.5346 -0.3500 -0.3066
  249ccc     H912380   5.346   1.503   4.362 -2.9669 -1.8712  1.4845
  249ccc     C712381   5.429   1.701   4.400 -0.8435 -0.7252  0.3883
  249ccc    H1012382   5.228   1.638   4.339 -0.8840  0.7503  0.8414
  249ccc    H1112383   5.497   1.658   4.475 -0.6341  0.5861  0.9801
  249ccc    H1212384   5.389   1.797   4.436  0.9256 -0.3533  1.4590
  249ccc     C812385   5.508   1.713   4.274 -0.9937 -0.5871 -0.1328
  249ccc     O212386   5.494   1.642   4.183  0.4510  0.4110 -0.1942
  249ccc    H1312387   5.302   1.495   4.724  1.3238 -0.4297  0.2998
  249ccc    H1412388   5.440   1.541   4.640  0.6673 -1.8443  0.0873
  249ccc     C912389   5.367   1.339   4.579 -0.6056 -0.1065 -0.2524
  249ccc    H1512390   5.291   1.313   4.505 -0.8793  1.3696 -0.5392
  249ccc    H1612391   5.362   1.275   4.668 -1.3597  1.9301  1.2725
  249ccc    C1012392   5.502   1.316   4.510  0.1973  0.0523  0.1139
  249ccc     O412393   5.551   1.377   4.416  0.2994  0.1857  1.0626
  249ccc    C1112394   5.805   1.875   3.903  0.7672 -0.0465 -1.1729
  249ccc    C1212395   5.689   1.973   3.937 -0.4002  0.5658 -0.0678
  249ccc    H1712396   5.752   1.795   3.850  0.3020  0.8126 -2.0299
  249ccc    C1312397   5.591   1.913   4.046  0.4059  0.2871 -0.2408
  249ccc    C1412398   5.675   1.877   4.169 -0.2101 -0.3479 -0.1235
  249ccc    C1512399   5.802   1.794   4.132  0.0251  0.0311  0.8884
  249ccc    H1812400   5.719   1.972   4.200  0.9032 -0.4163 -1.3976
  249ccc    H1912401   5.556   1.820   4.000  1.0619  0.6464 -1.5372
  249ccc    H2012402   5.764   1.693   4.112 -0.2428  0.6829 -2.3541
  249ccc     O112403   5.896   1.798   4.241  0.5763  0.2438  0.6059
  249ccc     O612404   5.480   1.996   4.085 -0.2962 -0.0093  0.1286
  249ccc    C1612405   5.902   1.943   3.804  0.4454 -0.2355 -0.1821
  249ccc    H2112406   5.419   1.939   4.136  0.6799 -0.5212  0.7503
  249ccc    H2212407   5.579   1.893   4.349 -0.4470 -0.6063  1.3864
  249ccc    H2312408   5.927   2.045   3.837  0.3198 -0.0989 -0.4986
  249ccc    H2412409   5.846   1.962   3.711 -0.3488  2.4933  0.7554
  249ccc     O712410   6.021   1.869   3.795  0.2928  0.5481 -0.0983
  249ccc    H2512411   5.994   1.778   3.816 -0.3707  0.7798  0.1136
  249ccc     O812412   5.875   1.841   4.022 -0.3156 -0.6625  0.0025
  249ccc    H2612413   5.847   1.782   4.324 -1.8144  1.0552 -0.5370
  249ccc    H2712414   5.740   2.064   3.972  3.5067 -1.3902 -0.1502
  249ccc     O912415   5.616   2.009   3.818 -0.2904  0.1633 -0.2381
  249ccc    H2812416   5.588   1.928   3.771 -0.1572  0.2038 -0.3888
  249ccc     N312417   5.596   1.820   4.280 -0.4597  0.5118  0.1865
  249ccc    C1712418   5.902   0.826   4.438  0.2719 -0.0081  0.0752
  249ccc    C1812419   5.798   0.936   4.319 -0.6528  0.3382 -0.1090
  249ccc    H2912420   5.851   0.729   4.443 -0.2736  0.2638 -0.0819
  249ccc    C1912421   5.704   1.087   4.364  0.4707 -0.2462  0.4976
  249ccc    C2012422   5.713   1.169   4.530  0.5907 -0.6509 -0.3514
  249ccc    C2112423   5.806   1.091   4.671  0.2784 -0.2081 -0.1979
  249ccc    H3012424   5.763   1.265   4.514 -1.0322  0.4892  1.0913
  249ccc    H3112425   5.604   1.043   4.355  1.4819 -2.6401  0.1945
  249ccc    H3212426   5.723   1.071   4.740 -0.7512  0.6451 -1.1577
  249ccc    O1012427   5.865   1.198   4.753  0.2244  1.1741 -0.1099
  249ccc    O1112428   5.720   1.182   4.258  0.2532 -0.0696 -0.2920
  249ccc    C2212429   6.034   0.776   4.383 -0.3551  0.7386  0.5421
  249ccc    H3312430   5.644   1.169   4.199  0.1760 -0.9924  0.0021
  249ccc    H3412431   5.537   1.166   4.643  1.3540 -0.1420  0.0987
  249ccc    H3512432   6.095   0.855   4.335  2.7200 -1.8258 -0.1316
  249ccc    H3612433   6.022   0.695   4.310  2.0437  0.2249  0.6328
  249ccc    O1212434   6.107   0.727   4.496 -0.4969  0.2452 -0.2847
  249ccc    H3712435   6.061   0.782   4.562 -2.4086 -1.3100 -0.2222
  249ccc    O1312436   5.918   0.886   4.600  0.2971 -0.2629 -0.2465
  249ccc    H3812437   5.897   1.141   4.825  0.2711  0.3194 -0.8070
  249ccc    H3912438   5.728   0.865   4.272 -0.5361 -0.0685  0.3239
  249ccc     O512439   5.878   0.971   4.208  0.2268  0.0531 -0.0379
  249ccc    H4012440   5.821   1.018   4.145 -0.6166  0.4981  1.0464
  249ccc     N412441   5.579   1.221   4.568 -0.1560 -0.2771 -0.8849
  249ccc    H4112442   5.164   1.513   4.516 -2.3042  2.3298  0.8713
  250ccc     N112443   3.646   1.858   3.418 -0.2431 -0.2155  0.3281
  250ccc     H412444   3.601   1.945   3.393  1.4812  0.5963 -0.1021
  250ccc     C312445   3.713   1.860   3.548 -0.1845 -0.6553 -0.0101
  250ccc     H512446   3.649   1.816   3.626  0.8974  2.2281  2.7141
  250ccc     C412447   3.719   2.003   3.602 -0.0109 -0.0312  0.4309
  250ccc     H612448   3.807   1.805   3.534  0.5989  1.1083 -2.3166
  250ccc     H712449   3.720   2.015   3.711  1.1383  0.7086  0.3616
  250ccc     H812450   3.622   2.048   3.576 -0.5940 -1.5927 -0.2067
  250ccc     N212451   3.841   2.088   3.564  0.0875 -0.4666  0.1587
  250ccc     C512452   3.976   2.048   3.621 -0.7735 -0.0265 -0.7881
  250ccc     C612453   3.792   2.232   3.602  0.1442 -0.0727  0.1951
  250ccc     H912454   3.729   2.231   3.692  0.0810  2.1742  0.2329
  250ccc     C712455   3.728   2.311   3.486  0.1828 -0.3665  0.1710
  250ccc    H1012456   3.876   2.291   3.640  0.2730 -0.5422  0.6623
  250ccc    H1112457   3.664   2.241   3.431  0.0843  1.8739 -2.7978
  250ccc    H1212458   3.803   2.333   3.409 -2.4188 -0.7985 -2.6703
  250ccc     C812459   3.655   2.431   3.524  0.1009 -0.8897 -0.5455
  250ccc     O212460   3.628   2.457   3.641 -0.0830  0.5366  0.5017
  250ccc    H1312461   3.983   2.067   3.729 -1.2603 -0.2465 -0.7141
  250ccc    H1412462   4.049   2.110   3.568  0.4363  0.1282  0.9574
  250ccc     C912463   4.025   1.908   3.603 -0.1775 -0.4008 -0.4273
  250ccc    H1512464   4.025   1.882   3.496  3.0974 -0.0231 -0.6361
  250ccc    H1612465   3.968   1.838   3.665 -0.1088  1.4120  1.7889
  250ccc    C1012466   4.164   1.887   3.656 -0.4684  0.1205  0.3498
  250ccc     O412467   4.240   1.975   3.691  0.2979  0.4464  0.1790
  250ccc    C1112468   3.566   2.910   3.600 -0.8627 -0.0034 -0.9167
  250ccc    C1212469   3.712   2.885   3.543 -0.4677 -0.0543  0.0932
  250ccc    H1712470   3.560   2.887   3.706 -1.5956  1.4923 -0.5984
  250ccc    C1312471   3.744   2.735   3.512 -0.2831  0.3291 -0.1043
  250ccc    C1412472   3.618   2.666   3.449  0.7803 -0.2409 -0.2668
  250ccc    C1512473   3.485   2.695   3.531 -0.6547 -0.5052  0.5921
  250ccc    H1812474   3.612   2.724   3.356 -0.0827  2.6254  1.4499
  250ccc    H1912475   3.763   2.681   3.605 -1.4761  0.8808  0.4795
  250ccc    H2012476   3.484   2.658   3.634  0.8601  0.1248  0.8621
  250ccc     O112477   3.370   2.643   3.470 -0.5226 -0.7612 -0.0381
  250ccc     O612478   3.866   2.725   3.433  0.2587  0.6009 -0.7486
  250ccc    C1612479   3.525   3.065   3.587 -0.1572 -0.0054 -0.5149
  250ccc    H2112480   3.935   2.720   3.501 -1.0368  2.2646  0.7764
  250ccc    H2212481   3.704   2.509   3.344 -0.1634 -1.0326 -0.4830
  250ccc    H2312482   3.581   3.117   3.666 -0.5348 -1.1741  0.5519
  250ccc    H2412483   3.418   3.079   3.609  0.0439  1.2698 -0.2303
  250ccc     O712484   3.559   3.119   3.461 -0.0992  0.1928  0.1247
  250ccc    H2512485   3.524   3.062   3.390  0.1958 -0.4937  0.5220
  250ccc     O812486   3.466   2.835   3.529  0.1937 -0.0236  0.7944
  250ccc    H2612487   3.312   2.722   3.474  0.7781  0.2026  0.2292
  250ccc    H2712488   3.722   2.942   3.450 -0.5292  0.8117  0.6043
  250ccc     O912489   3.811   2.925   3.639 -0.6958 -0.0026  0.3842
  250ccc    H2812490   3.892   2.918   3.585 -0.6674 -0.9813  0.5343
  250ccc     N312491   3.640   2.520   3.423  0.2723  0.1522 -0.2789
  250ccc    C1712492   4.592   1.584   3.741 -0.1362  0.0138 -0.3825
  250ccc    C1812493   4.544   1.584   3.594 -0.4609 -0.0409 -0.5971
  250ccc    H2912494   4.555   1.493   3.791  1.8395 -1.5547 -1.5901
  250ccc    C1912495   4.399   1.617   3.581 -0.3971 -0.0865  0.0456
  250ccc    C2012496   4.359   1.735   3.663  0.0692 -0.2815 -0.2258
  250ccc    C2112497   4.406   1.718   3.808  0.1626 -0.7171 -0.8418
  250ccc    H3012498   4.419   1.816   3.620 -2.4266  1.6238 -0.3742
  250ccc    H3112499   4.337   1.531   3.610  0.3975 -1.5636 -2.3891
  250ccc    H3212500   4.358   1.631   3.854 -0.4590 -0.7404 -1.5262
  250ccc    O1012501   4.383   1.832   3.890  0.1678  0.3925  0.4749
  250ccc    O1112502   4.380   1.635   3.440  0.0133 -0.0954 -0.0041
  250ccc    C2212503   4.747   1.575   3.736  0.8614  0.6128 -1.0511
  250ccc    H3312504   4.359   1.548   3.403 -2.2295  0.7911 -1.0361
  250ccc    H3412505   4.152   1.693   3.606  0.8620  1.0281 -3.0693
  250ccc    H3512506   4.795   1.670   3.711 -0.2020  1.6446  0.6351
  250ccc    H3612507   4.781   1.499   3.664 -1.4149 -1.7316  0.1570
  250ccc    O1212508   4.793   1.545   3.871  0.3083 -0.1308 -0.1861
  250ccc    H3712509   4.786   1.448   3.875 -0.9210 -0.0232  1.3024
  250ccc    O1312510   4.551   1.705   3.807  0.4789  0.0731  0.4618
  250ccc    H3812511   4.286   1.840   3.887 -0.0272 -1.3776  0.9928
  250ccc    H3912512   4.588   1.666   3.536 -2.4770  0.8850 -0.9207
  250ccc     O512513   4.562   1.456   3.529 -0.0231 -0.1531  0.1533
  250ccc    H4012514   4.582   1.475   3.436  1.6124  1.7809  0.8183
  250ccc     N412515   4.208   1.764   3.654  0.0423 -0.1813 -0.1113
  250ccc    H4112516   3.850   2.098   3.461  2.6975  0.6467  0.4104
  251ccc     N112517   3.068   1.300   2.857  0.2544 -0.6928 -0.2039
  251ccc     H412518   3.055   1.370   2.785  1.0396 -1.2009 -0.8553
  251ccc     C312519   3.115   1.169   2.804  0.0813 -0.7046 -0.1268
  251ccc     H512520   3.153   1.182   2.702  0.6157  0.8259  0.2328
  251ccc     C412521   3.013   1.051   2.799  0.2175  0.5321  0.1216
  251ccc     H612522   3.200   1.136   2.865 -1.5388 -0.6171  2.3514
  251ccc     H712523   2.988   1.019   2.900  0.8167  0.3498  0.2148
  251ccc     H812524   3.064   0.965   2.753 -0.1087  0.3020  0.1863
  251ccc     N212525   2.876   1.079   2.736 -0.0351  0.1890 -0.3258
  251ccc     C512526   2.781   0.963   2.768 -0.3165  0.0396 -0.0132
  251ccc     C612527   2.873   1.115   2.588  0.2133  0.7733 -0.1154
  251ccc     H912528   2.969   1.160   2.563  0.2597 -0.5071 -2.5734
  251ccc     C712529   2.778   1.228   2.543  0.2349 -0.2631 -0.3575
  251ccc    H1012530   2.863   1.017   2.539  0.8773  0.9461 -0.6138
  251ccc    H1112531   2.672   1.204   2.556 -0.7147  1.3770 -3.9908
  251ccc    H1212532   2.780   1.237   2.434 -3.5001 -0.9540 -0.6162
  251ccc     C812533   2.811   1.363   2.617 -0.6569 -0.6166  0.1299
  251ccc     O212534   2.893   1.445   2.576 -0.3060  0.1599 -0.0068
  251ccc    H1312535   2.813   0.862   2.739 -0.5422 -0.0751  0.1437
  251ccc    H1412536   2.697   0.968   2.698 -2.1355 -1.9123  1.9045
  251ccc     C912537   2.738   0.935   2.920 -0.6681 -0.0019 -0.1646
  251ccc    H1512538   2.828   0.929   2.982 -0.8303  3.0009  0.4956
  251ccc    H1612539   2.697   0.833   2.915 -1.2439  0.0604  2.1127
  251ccc    C1012540   2.663   1.059   2.978 -0.3191  0.1342  0.3334
  251ccc     O412541   2.706   1.173   2.974  0.1205 -0.0041  0.3662
  251ccc    C1112542   2.585   1.726   2.951 -0.6085 -0.4768 -0.2207
  251ccc    C1212543   2.692   1.640   3.018  0.1484  0.4492  0.4879
  251ccc    H1712544   2.488   1.689   2.988 -0.2244 -0.9346  0.3428
  251ccc    C1312545   2.700   1.501   2.951 -0.8437 -0.2765  0.1577
  251ccc    C1412546   2.730   1.512   2.796  0.1283 -0.3948 -0.5471
  251ccc    C1512547   2.609   1.586   2.744 -0.0367 -0.4426  0.2851
  251ccc    H1812548   2.820   1.571   2.777 -0.3268  0.5404  0.1160
  251ccc    H1912549   2.603   1.450   2.959 -0.6301 -0.7220 -0.0582
  251ccc    H2012550   2.522   1.522   2.762  0.0105 -0.7048 -0.3690
  251ccc     O112551   2.630   1.608   2.609  0.3352 -0.3413  0.9421
  251ccc     O612552   2.799   1.427   3.023  0.5942 -0.4884 -0.0200
  251ccc    C1612553   2.601   1.874   3.000 -0.0604  0.2397 -0.5801
  251ccc    H2112554   2.778   1.334   3.007 -1.5483  0.3269 -2.6351
  251ccc    H2212555   2.647   1.342   2.739 -0.4559  0.6755  0.3082
  251ccc    H2312556   2.702   1.908   2.975 -0.1334  1.5528  0.7040
  251ccc    H2412557   2.597   1.859   3.108  2.0125 -0.7880 -0.6153
  251ccc     O712558   2.509   1.971   2.943  0.1961  0.4084 -0.0836
  251ccc    H2512559   2.420   1.953   2.976  0.4655 -1.5021 -0.2517
  251ccc     O812560   2.597   1.724   2.804 -0.1917 -0.1007  0.2234
  251ccc    H2612561   2.577   1.685   2.584 -0.9858 -1.1362  1.1955
  251ccc    H2712562   2.790   1.687   3.003  1.1396 -1.1697  1.4992
  251ccc     O912563   2.669   1.630   3.162 -0.5449 -0.0830  0.1179
  251ccc    H2812564   2.730   1.560   3.192 -0.1198  0.0222 -0.4644
  251ccc     N312565   2.739   1.385   2.730  0.0129 -0.3110  0.2105
  251ccc    C1712566   2.419   1.381   3.256 -0.3038 -0.1619  0.5982
  251ccc    C1812567   2.340   1.350   3.124  0.8346 -0.1893 -0.8470
  251ccc    H2912568   2.515   1.426   3.225 -0.7426  1.4575  1.4552
  251ccc    C1912569   2.411   1.239   3.039 -0.9028  0.1414 -0.3465
  251ccc    C2012570   2.461   1.121   3.125  0.7594  0.3664  0.3057
  251ccc    C2112571   2.532   1.166   3.252  0.3170  0.1920 -0.9767
  251ccc    H3012572   2.375   1.063   3.161  0.0616  0.6634 -0.8232
  251ccc    H3112573   2.496   1.286   2.987 -0.6728 -0.3737 -0.4405
  251ccc    H3212574   2.631   1.207   3.232  0.8344 -0.1135  0.8007
  251ccc    O1012575   2.553   1.061   3.342 -0.1210  0.1533  0.1709
  251ccc    O1112576   2.324   1.193   2.934  0.6023 -0.2032 -0.2786
  251ccc    C2212577   2.349   1.483   3.344  0.5018  0.2260 -0.5528
  251ccc    H3312578   2.380   1.171   2.858  0.0203 -1.3452 -0.4080
  251ccc    H3412579   2.500   0.943   3.033 -0.7860  0.4042  0.6849
  251ccc    H3512580   2.260   1.443   3.394  1.6304  1.2427  2.5281
  251ccc    H3612581   2.327   1.565   3.275  1.0562  0.0772 -0.9098
  251ccc    O1212582   2.444   1.534   3.446  0.2628  0.3802 -0.2743
  251ccc    H3712583   2.399   1.601   3.500 -1.2428  0.7135 -1.8487
  251ccc    O1312584   2.449   1.254   3.327 -0.6278 -0.5471 -0.2588
  251ccc    H3812585   2.464   1.036   3.374 -0.7097  0.5962 -1.0415
  251ccc    H3912586   2.237   1.325   3.153  1.1071  1.1475  1.4883
  251ccc     O512587   2.337   1.460   3.033  0.8964  0.5565  0.1161
  251ccc    H4012588   2.316   1.431   2.943 -1.0819  1.6065  0.1733
  251ccc     N412589   2.545   1.033   3.043  0.0337  0.1210 -0.3255
  251ccc    H4112590   2.837   1.157   2.792 -0.1862 -0.5008  0.5418
  252ccc     N112591   3.572   2.865   4.034 -0.3894  0.7341 -0.4450
  252ccc     H412592   3.512   2.883   4.114  0.4711  5.5313 -0.5943
  252ccc     C312593   3.701   2.928   4.027  0.6044 -0.2723 -0.0109
  252ccc     H512594   3.711   2.948   3.919 -1.7596  1.7878  0.0629
  252ccc     C412595   3.815   2.846   4.086 -0.1932  0.1655 -0.0068
  252ccc     H612596   3.696   3.026   4.076  3.1658 -0.0150 -0.1408
  252ccc     H712597   3.796   2.841   4.194 -0.0818  0.3829  0.0235
  252ccc     H812598   3.907   2.903   4.067 -1.1733  1.8304  0.0916
  252ccc     N212599   3.830   2.703   4.039  0.1154 -0.7777  0.1919
  252ccc     C512600   3.908   2.611   4.140 -0.0976  0.1839  0.7029
  252ccc     C612601   3.894   2.703   3.896  0.5983 -0.1116  0.0989
  252ccc     H912602   3.872   2.602   3.859  1.3889  0.0282 -0.8095
  252ccc     C712603   4.045   2.722   3.882 -0.1234 -0.6175  0.1231
  252ccc    H1012604   3.833   2.773   3.838 -1.3998 -2.1182 -0.3699
  252ccc    H1112605   4.100   2.634   3.918  0.8165 -0.5622 -1.0940
  252ccc    H1212606   4.080   2.800   3.950 -2.5727 -0.5990  1.4503
  252ccc     C812607   4.075   2.757   3.737  0.4659 -0.1131  0.3509
  252ccc     O212608   4.024   2.708   3.641  0.0649 -0.3175 -0.0012
  252ccc    H1312609   3.996   2.667   4.173  0.6005 -0.7792  0.4862
  252ccc    H1412610   3.937   2.522   4.084 -0.3928  2.1086 -2.7879
  252ccc     C912611   3.829   2.560   4.258  0.3933 -0.0661 -0.3357
  252ccc    H1512612   3.806   2.635   4.335  1.8401 -1.2737  1.3712
  252ccc    H1612613   3.876   2.477   4.314  0.7082  0.0790 -0.3813
  252ccc    C1012614   3.695   2.506   4.210 -0.0797 -0.2072 -0.4232
  252ccc     O412615   3.594   2.571   4.192  0.7934 -0.2794 -0.3819
  252ccc    C1112616   4.385   3.055   3.407 -0.4836  0.2579 -0.1825
  252ccc    C1212617   4.418   2.909   3.435  0.1976 -0.0420  0.5183
  252ccc    H1712618   4.442   3.124   3.470  0.8769 -1.2136  0.2736
  252ccc    C1312619   4.377   2.869   3.578 -0.5193  0.3102 -0.2238
  252ccc    C1412620   4.222   2.882   3.583 -0.4158  0.6561 -0.3596
  252ccc    C1512621   4.195   3.024   3.553  0.1282 -0.1159  0.0923
  252ccc    H1812622   4.169   2.822   3.509  0.7993 -0.9199 -0.0097
  252ccc    H1912623   4.416   2.945   3.647 -0.8108  0.7324 -0.5209
  252ccc    H2012624   4.230   3.094   3.630  1.9359  0.0519 -0.8328
  252ccc     O112625   4.050   3.035   3.541 -0.0820  0.0726  0.4533
  252ccc     O612626   4.421   2.733   3.610 -0.0666 -0.5618 -0.5544
  252ccc    C1612627   4.411   3.100   3.259 -1.1632  0.9909 -0.2598
  252ccc    H2112628   4.511   2.742   3.647 -0.4310  1.2027 -0.0082
  252ccc    H2212629   4.227   2.877   3.802  0.3407 -2.0995  0.9671
  252ccc    H2312630   4.342   3.055   3.186  0.3573  1.9253 -2.3767
  252ccc    H2412631   4.514   3.078   3.229 -1.0170  2.4791 -0.9359
  252ccc     O712632   4.397   3.237   3.237  0.1609 -0.1734  0.2478
  252ccc    H2512633   4.463   3.277   3.295  0.1398  1.7210 -0.9326
  252ccc     O812634   4.245   3.063   3.430 -0.4937  0.2705 -0.6071
  252ccc    H2612635   4.038   3.125   3.505  0.4363 -1.2464 -3.4077
  252ccc    H2712636   4.367   2.846   3.361 -0.2593  0.4659  0.3915
  252ccc     O912637   4.565   2.891   3.429 -0.0948 -0.0087  0.6195
  252ccc    H2812638   4.580   2.873   3.335 -0.1983 -0.0626  0.6141
  252ccc     N312639   4.179   2.842   3.719  0.4602 -0.1411  0.0036
  252ccc    C1712640   3.517   2.114   3.906 -0.9009  0.4224  0.0787
  252ccc    C1812641   3.488   2.079   4.060 -0.2269  0.1877  0.4703
  252ccc    H2912642   3.609   2.062   3.875 -0.1565  2.3886 -1.1805
  252ccc    C1912643   3.579   2.162   4.156  0.4092 -0.2913 -0.2801
  252ccc    C2012644   3.600   2.306   4.103  0.4346 -0.8748 -0.0921
  252ccc    C2112645   3.646   2.309   3.957  0.0623  0.5679 -0.3277
  252ccc    H3012646   3.501   2.353   4.111  1.7545  2.5238 -1.7693
  252ccc    H3112647   3.679   2.118   4.162 -0.2526 -1.8450 -0.0331
  252ccc    H3212648   3.740   2.256   3.938 -0.8316 -1.4296  0.5610
  252ccc    O1012649   3.659   2.442   3.903 -0.5610 -0.6436 -0.8010
  252ccc    O1112650   3.525   2.173   4.294 -0.5831 -0.0999  0.6036
  252ccc    C2212651   3.410   2.066   3.818 -0.0927  0.6626 -0.3989
  252ccc    H3312652   3.458   2.240   4.270  0.1013  0.3242 -0.2061
  252ccc    H3412653   3.784   2.325   4.199 -0.4907 -0.4818 -0.6457
  252ccc    H3512654   3.429   1.959   3.805 -2.5681  0.2965 -1.5042
  252ccc    H3612655   3.420   2.097   3.713 -0.1343 -2.8447 -1.5750
  252ccc    O1212656   3.283   2.091   3.869 -0.3843 -0.2617  0.0175
  252ccc    H3712657   3.221   2.032   3.823 -0.1537 -0.1788 -0.4012
  252ccc    O1312658   3.537   2.253   3.881  0.0726  0.3158  0.1577
  252ccc    H3812659   3.630   2.437   3.810  2.2687 -1.3162 -1.7417
  252ccc    H3912660   3.389   2.120   4.083  0.4097  1.5758  0.9145
  252ccc     O512661   3.491   1.937   4.084  0.2461 -0.1895 -0.3141
  252ccc    H4012662   3.416   1.910   4.140  0.3666 -2.1542 -1.0020
  252ccc     N412663   3.697   2.376   4.186 -0.2338  0.1570  0.1131
  252ccc    H4112664   3.737   2.659   4.035 -0.1753 -0.0955 -0.7851
  253ccc     N112665   2.986   2.074   4.051  0.5859 -0.0541 -0.1024
  253ccc     H412666   2.969   2.082   3.952 -1.1724  0.9106  0.2242
  253ccc     C312667   2.916   1.980   4.137  0.0693 -0.1524 -0.5569
  253ccc     H512668   2.991   1.924   4.195 -0.1155 -0.3735 -0.5333
  253ccc     C412669   2.827   1.879   4.065  0.0371 -0.1988  0.8423
  253ccc     H612670   2.858   2.035   4.212  1.9651  1.4577 -0.1778
  253ccc     H712671   2.755   1.940   4.009  0.5115 -1.1986 -0.9394
  253ccc     H812672   2.768   1.832   4.146  0.8741  1.7168  2.6457
  253ccc     N212673   2.899   1.789   3.964 -0.8141 -0.1954 -0.7093
  253ccc     C512674   2.790   1.723   3.870 -0.1531  0.2435 -0.0649
  253ccc     C612675   2.981   1.678   4.029  0.3109 -0.0129 -0.7779
  253ccc     H912676   2.926   1.649   4.120 -1.2892  1.5696 -1.1847
  253ccc     C712677   3.124   1.717   4.057  0.5244  0.4380  0.5207
  253ccc    H1012678   2.968   1.586   3.971 -1.6842 -0.4025  0.1907
  253ccc    H1112679   3.179   1.636   4.107 -1.3666 -2.4151 -1.7089
  253ccc    H1212680   3.135   1.800   4.128  0.9722 -0.8644  2.0399
  253ccc     C812681   3.187   1.750   3.923 -0.6283  0.0722 -0.4918
  253ccc     O212682   3.150   1.827   3.839  0.4317 -0.1754  0.1516
  253ccc    H1312683   2.717   1.798   3.838  1.2915  0.4665 -3.1867
  253ccc    H1412684   2.739   1.654   3.938  0.5551  0.6021  0.8573
  253ccc     C912685   2.831   1.656   3.734 -0.6981 -0.1243 -0.0865
  253ccc    H1512686   2.894   1.570   3.760  1.8507  1.4149 -0.8411
  253ccc    H1612687   2.887   1.724   3.669 -0.2125 -0.7934 -0.3795
  253ccc    C1012688   2.704   1.625   3.657  0.0198  0.5876  0.6586
  253ccc     O412689   2.601   1.690   3.667 -0.3676  0.1937 -0.5202
  253ccc    C1112690   3.381   1.373   3.588  0.4088 -0.5745 -0.2079
  253ccc    C1212691   3.243   1.350   3.656  0.0861  0.7175  0.1164
  253ccc    H1712692   3.449   1.341   3.667 -1.1068  2.6348  2.6532
  253ccc    C1312693   3.237   1.437   3.786  0.2635 -0.1186  0.3261
  253ccc    C1412694   3.268   1.588   3.758  0.1317  0.5550  0.3327
  253ccc    C1512695   3.398   1.602   3.677 -0.4553 -0.8493 -0.1085
  253ccc    H1812696   3.183   1.617   3.695  1.4654  0.3311 -1.6757
  253ccc    H1912697   3.316   1.413   3.859 -0.4227  0.5674  1.3183
  253ccc    H2012698   3.480   1.569   3.741 -0.1287 -1.3946 -0.7985
  253ccc     O112699   3.422   1.730   3.617 -0.4879  0.1914 -0.1363
  253ccc     O612700   3.103   1.423   3.840 -0.4862  0.2346 -0.3903
  253ccc    C1612701   3.409   1.291   3.457  0.7776 -0.0603 -0.6083
  253ccc    H2112702   3.106   1.329   3.864  1.1063  0.5659  0.9743
  253ccc    H2212703   3.315   1.594   3.953  0.3433 -0.1456 -0.9624
  253ccc    H2312704   3.415   1.188   3.493  4.3721  0.4073  0.5766
  253ccc    H2412705   3.512   1.309   3.426  1.0702 -0.3840  0.1380
  253ccc     O712706   3.311   1.314   3.364  0.5755  0.2767  0.4261
  253ccc    H2512707   3.331   1.256   3.288 -1.5023  1.0391 -0.7832
  253ccc     O812708   3.400   1.518   3.558  0.2973  0.1432 -0.6376
  253ccc    H2612709   3.347   1.789   3.635 -0.8112 -0.4071  0.4960
  253ccc    H2712710   3.162   1.376   3.586 -1.4450 -1.8128  0.8357
  253ccc     O912711   3.230   1.215   3.703 -0.0785 -0.1823  0.1668
  253ccc    H2812712   3.199   1.155   3.633  1.9362 -0.8923 -0.1861
  253ccc     N312713   3.277   1.660   3.884 -0.6540  0.2877 -0.0335
  253ccc    C1712714   2.865   1.130   3.496 -0.4876  0.2667  0.7902
  253ccc    C1812715   2.906   1.241   3.384  1.6140 -0.1654 -0.2109
  253ccc    H2912716   2.770   1.082   3.467 -0.3542  0.4352  0.0591
  253ccc    C1912717   2.824   1.369   3.400  0.0659  0.0561 -0.3277
  253ccc    C2012718   2.798   1.413   3.550  0.4354  0.5269 -0.1166
  253ccc    C2112719   2.745   1.289   3.625 -0.5337  0.1627  0.3030
  253ccc    H3012720   2.898   1.439   3.586  0.7769 -1.5677  0.5783
  253ccc    H3112721   2.728   1.338   3.358 -0.0394  0.9774 -0.7773
  253ccc    H3212722   2.661   1.235   3.581  0.9871 -2.5901  0.5131
  253ccc    O1012723   2.710   1.313   3.759  0.1512 -0.0361 -0.7771
  253ccc    O1112724   2.867   1.482   3.318 -0.1910 -0.1149 -0.2285
  253ccc    C2212725   2.970   1.008   3.506  0.2031  0.2665  0.3900
  253ccc    H3312726   2.954   1.512   3.349 -0.4202 -0.3371  0.6543
  253ccc    H3412727   2.610   1.506   3.530  1.5609 -3.2285 -0.4685
  253ccc    H3512728   2.956   0.969   3.404 -0.4455  0.0962  0.5372
  253ccc    H3612729   2.945   0.939   3.587 -2.4939  2.3856  1.5388
  253ccc    O1212730   3.108   1.059   3.507  0.2846  0.6633 -0.0873
  253ccc    H3712731   3.163   0.997   3.457 -1.5053 -0.7100 -0.4578
  253ccc    O1312732   2.852   1.191   3.623  0.0954 -0.0776  0.2888
  253ccc    H3812733   2.667   1.232   3.792 -0.2875  0.2859 -0.5439
  253ccc    H3912734   3.009   1.274   3.399  1.6389  0.5427 -1.7789
  253ccc     O512735   2.868   1.185   3.259  0.3584  0.2844  0.0313
  253ccc    H4012736   2.918   1.229   3.188  0.1318  0.6456  0.0967
  253ccc     N412737   2.700   1.525   3.573  0.4500 -0.0422  0.7205
  253ccc    H4112738   2.954   1.848   3.900  1.5792  0.9082  2.1008
  254SOL     OW12739   8.550   1.789   4.808  0.2056 -0.3012  0.6286
  254SOL    HW112740   8.460   1.757   4.797  0.1883 -0.1148  0.1934
  254SOL    HW212741   8.572   1.767   4.898 -0.4881  0.1700  0.9261
  255SOL     OW12742   1.377   7.754   3.958  0.6690 -0.4726  0.0643
  255SOL    HW112743   1.407   7.838   3.921 -0.6886 -0.4580 -1.0595
  255SOL    HW212744   1.458   7.710   3.983  1.4515  0.9479  0.1906
  256SOL     OW12745   6.215   9.983   8.253  0.3236 -0.0807 -0.0972
  256SOL    HW112746   6.274  10.000   8.326 -0.4224 -0.3253  0.5733
  256SOL    HW212747   6.270   9.993   8.175  1.2662 -0.3623  0.5122
  257SOL     OW12748   0.337   6.231   0.043 -0.3505  0.0720  0.2566
  257SOL    HW112749   0.302   6.282   0.117  2.2653  0.1531  1.5524
  257SOL    HW212750   0.414   6.280   0.014  0.3532 -1.4645 -0.6014
  258SOL     OW12751   7.992   9.133   8.598 -0.4930 -0.1502 -0.2311
  258SOL    HW112752   7.959   9.222   8.615  1.5028  0.8762 -1.3747
  258SOL    HW212753   8.072   9.147   8.548 -0.3867 -2.6509 -0.8507
  259SOL     OW12754   8.842   4.019   8.112  0.4695 -0.4071  0.6352
  259SOL    HW112755   8.807   4.057   8.031  0.7068  0.0025  0.7230
  259SOL    HW212756   8.816   3.927   8.108  0.6482 -0.4363 -0.0038
  260SOL     OW12757   5.293   4.970   5.224 -0.2841  0.1927  0.4520
  260SOL    HW112758   5.264   5.060   5.212 -0.7773 -0.0578 -0.3924
  260SOL    HW212759   5.308   4.961   5.318 -0.4247  1.0941  0.5691
  261SOL     OW12760  10.291   0.257   2.587 -0.4729 -0.2397  0.4088
  261SOL    HW112761  10.230   0.268   2.514  0.2816 -0.1835 -0.2318
  261SOL    HW212762  10.322   0.346   2.606  1.8595 -0.5677 -1.4557
  262SOL     OW12763   1.405   1.197   9.797 -0.5320 -0.0121 -0.0108
  262SOL    HW112764   1.431   1.277   9.841  1.8485 -2.1051  2.8150
  262SOL    HW212765   1.471   1.184   9.728  0.0888 -0.3065  0.6210
  263SOL     OW12766   8.135   2.014   8.686 -0.0343  0.4837  0.3472
  263SOL    HW112767   8.105   1.942   8.631  2.1248 -1.0779  1.0227
  263SOL    HW212768   8.163   2.082   8.625  2.4755 -1.2746 -0.6428
  264SOL     OW12769  10.027   4.820   7.768 -0.5619 -0.1583  0.1401
  264SOL    HW112770   9.966   4.890   7.746 -0.4101  0.3651  1.3261
  264SOL    HW212771  10.107   4.842   7.721 -0.5297  0.4474  0.4687
  265SOL     OW12772   5.403   9.327   3.048  0.6231  0.2963 -0.1991
  265SOL    HW112773   5.340   9.388   3.085  0.4298 -0.6188  1.0444
  265SOL    HW212774   5.487   9.352   3.088  1.2051  1.8456 -2.2451
  266SOL     OW12775   2.302   2.036   2.618 -0.1998  0.0616 -0.4084
  266SOL    HW112776   2.308   1.941   2.611  1.3220  0.0951 -0.0366
  266SOL    HW212777   2.367   2.069   2.556  0.8469  0.7673  0.9804
  267SOL     OW12778   2.070   6.075   4.671  0.9721  0.4556 -0.0369
  267SOL    HW112779   2.051   6.062   4.764  1.1046 -1.2602 -0.2231
  267SOL    HW212780   2.158   6.113   4.670  1.1707  0.0314  0.5346
  268SOL     OW12781   5.590  10.221   4.166  0.2187 -0.4431  0.0897
  268SOL    HW112782   5.658  10.287   4.150  1.7964 -1.9248  0.4699
  268SOL    HW212783   5.537  10.222   4.086  0.6011  0.7967 -0.1803
  269SOL     OW12784  10.190   6.191   6.921 -0.2930  0.2595  0.7176
  269SOL    HW112785  10.098   6.170   6.936 -0.5715  0.6213 -0.4302
  269SOL    HW212786  10.238   6.110   6.941 -1.0595 -0.5877 -0.7908
  270SOL     OW12787   5.135  10.107   5.438  0.3839  0.3005 -0.3320
  270SOL    HW112788   5.168  10.040   5.498  1.2172 -1.8823 -3.0060
  270SOL    HW212789   5.106  10.178   5.495  1.7608 -1.2787  2.5784
  271SOL     OW12790   8.420   3.787   4.727 -0.6242  0.1230 -0.7323
  271SOL    HW112791   8.492   3.808   4.785  0.0107  0.9439 -1.7838
  271SOL    HW212792   8.388   3.871   4.696 -0.2670 -0.3045 -2.3603
  272SOL     OW12793   9.494   1.419   0.268  0.3328 -0.0408  0.4335
  272SOL    HW112794   9.559   1.363   0.225 -0.7949 -0.3556 -0.8986
  272SOL    HW212795   9.439   1.358   0.317 -0.5961 -0.0776 -0.6248
  273SOL     OW12796   8.655   3.772   6.089  0.2865 -0.0040  0.0112
  273SOL    HW112797   8.643   3.777   5.995 -0.8630 -2.6321 -0.0559
  273SOL    HW212798   8.581   3.822   6.126 -0.1297 -0.2373 -0.4967
  274SOL     OW12799   1.456   9.221   3.866 -0.3442  0.5398  0.1714
  274SOL    HW112800   1.451   9.255   3.776 -0.0650  1.1857  0.3937
  274SOL    HW212801   1.497   9.292   3.916  1.3770 -0.5517  0.4160
  275SOL     OW12802   1.206   1.696   6.054  0.6821  0.3125 -0.4003
  275SOL    HW112803   1.206   1.724   5.963  1.9492 -2.2849 -1.3039
  275SOL    HW212804   1.298   1.687   6.076  0.3715  0.0999  0.8801
  276SOL     OW12805   7.475   1.942   9.068  0.5466 -0.1442  0.1769
  276SOL    HW112806   7.550   1.898   9.109  2.7502  1.6562 -1.6387
  276SOL    HW212807   7.449   1.883   8.997  1.4068 -0.0302 -0.2549
  277SOL     OW12808   8.463   7.623  10.139  0.7661 -0.3403 -0.6198
  277SOL    HW112809   8.537   7.638  10.198 -0.6309  2.2853  0.6465
  277SOL    HW212810   8.472   7.691  10.072  0.4026 -1.0626 -1.4129
  278SOL     OW12811   2.846   5.867   3.924  0.0669 -0.5821  0.0428
  278SOL    HW112812   2.836   5.798   3.858  1.0697 -2.7121  1.9608
  278SOL    HW212813   2.762   5.913   3.924 -0.6834 -1.8814 -1.2726
  279SOL     OW12814   2.207   6.845   2.966  0.1053  0.1822 -0.0082
  279SOL    HW112815   2.135   6.842   3.029  0.4819 -0.1659  0.4194
  279SOL    HW212816   2.233   6.937   2.963 -0.1487  0.2587  0.0731
  280SOL     OW12817   0.909   6.673   7.174  0.0626  0.2072  0.4906
  280SOL    HW112818   0.895   6.695   7.266 -0.7828  0.8097  0.2311
  280SOL    HW212819   0.957   6.590   7.176 -0.0604  0.1480  1.4717
  281SOL     OW12820   7.476   0.906   8.006 -0.0705  0.6010  0.5208
  281SOL    HW112821   7.569   0.912   7.985 -0.3322  0.0262 -0.9126
  281SOL    HW212822   7.434   0.885   7.922 -1.4020  0.1092  1.2877
  282SOL     OW12823   7.410   1.593   6.312  0.0440 -0.7299  0.1952
  282SOL    HW112824   7.462   1.549   6.379  0.9187 -0.1718 -0.1056
  282SOL    HW212825   7.461   1.670   6.289 -0.1029 -1.0489 -1.3031
  283SOL     OW12826   8.639   0.156   6.384 -0.3033  0.5598 -0.3301
  283SOL    HW112827   8.725   0.175   6.422 -0.8514 -0.7988  1.7232
  283SOL    HW212828   8.657   0.138   6.292  1.6088  0.4273  0.0341
  284SOL     OW12829   9.523   3.989   9.876 -0.3754 -0.4316 -0.2156
  284SOL    HW112830   9.567   4.030   9.801 -1.4010 -1.2313 -1.2986
  284SOL    HW212831   9.448   4.046   9.893 -0.2262 -0.3319  0.1193
  285SOL     OW12832   2.153   8.848   5.665  0.3485 -0.0856  0.6467
  285SOL    HW112833   2.133   8.812   5.579 -0.2765  2.6354 -0.4752
  285SOL    HW212834   2.249   8.850   5.669  0.4202 -2.4235  1.0842
  286SOL     OW12835   6.739   6.544   1.575 -0.0195 -0.3653  0.0535
  286SOL    HW112836   6.702   6.475   1.630 -0.0786 -0.7328 -0.4427
  286SOL    HW212837   6.816   6.574   1.623 -1.1029  0.6395  1.2696
  287SOL     OW12838   7.421   0.762   6.876  0.1334  0.1745  0.0369
  287SOL    HW112839   7.379   0.678   6.892 -1.2786  0.6993 -0.7027
  287SOL    HW212840   7.385   0.820   6.943  1.8488 -0.0040  1.1726
  288SOL     OW12841   0.594   4.295   4.718  0.1599  0.0192  0.0008
  288SOL    HW112842   0.593   4.212   4.670  1.0069 -0.2413  0.4101
  288SOL    HW212843   0.515   4.340   4.689 -0.3312 -0.9392 -0.2224
  289SOL     OW12844   3.206   4.411   8.919 -0.3614  0.3899  0.7153
  289SOL    HW112845   3.152   4.332   8.911 -0.4899  0.4695  0.8061
  289SOL    HW212846   3.149   4.482   8.890  0.1748  0.2885 -0.6348
  290SOL     OW12847   7.177   3.989   0.220 -0.9295  0.2158  0.2127
  290SOL    HW112848   7.106   4.027   0.271 -1.1914 -0.2331  0.1908
  290SOL    HW212849   7.177   3.896   0.245 -0.9192  0.0370 -0.4454
  291SOL     OW12850   1.104   6.482   7.223 -0.4485 -0.0683  0.1027
  291SOL    HW112851   1.123   6.413   7.288 -0.7322  0.3505  0.6312
  291SOL    HW212852   1.163   6.462   7.150 -0.7190 -1.0367  0.1299
  292SOL     OW12853  10.321   0.341   9.481 -0.4878 -0.4107 -0.4030
  292SOL    HW112854  10.272   0.341   9.399 -0.8610 -0.3811 -0.1820
  292SOL    HW212855  10.396   0.283   9.464 -1.1256 -1.2399 -0.4336
  293SOL     OW12856   3.443   1.042   4.879 -0.2165 -0.1960  0.0712
  293SOL    HW112857   3.350   1.051   4.899  0.1821  0.6107  1.7651
  293SOL    HW212858   3.460   1.107   4.811 -0.7762  0.0423  0.1555
  294SOL     OW12859   0.697   1.352   8.653 -0.0949 -0.2876  0.7304
  294SOL    HW112860   0.660   1.321   8.736  0.7005 -2.5959  0.2870
  294SOL    HW212861   0.790   1.366   8.672 -0.0919  0.1111  0.4449
  295SOL     OW12862   0.364   8.041   9.033  0.4698 -0.0066  0.0753
  295SOL    HW112863   0.394   8.082   9.114  0.0630 -0.0974  0.2772
  295SOL    HW212864   0.439   7.992   9.002  0.6247  0.0133  0.4097
  296SOL     OW12865   8.401   7.174   4.806 -0.6801  0.1187  0.3619
  296SOL    HW112866   8.351   7.151   4.728 -0.9064 -0.6920  0.7365
  296SOL    HW212867   8.365   7.258   4.834  1.3055  1.9170 -2.0127
  297SOL     OW12868   5.997   0.990   8.220  0.2101 -0.4152  0.7478
  297SOL    HW112869   6.071   1.008   8.161 -1.4557  0.7976 -1.0771
  297SOL    HW212870   5.980   1.074   8.263 -1.7420  0.0537 -0.8413
  298SOL     OW12871   8.253   3.665   6.756 -0.1090  0.1819 -0.3040
  298SOL    HW112872   8.309   3.588   6.772 -1.2639 -0.7755 -0.7127
  298SOL    HW212873   8.236   3.662   6.662  0.2080  1.2291 -0.4051
  299SOL     OW12874   5.557   3.298   3.965 -0.1308  0.3458  0.3492
  299SOL    HW112875   5.615   3.246   4.020  0.5391  0.5157 -0.1757
  299SOL    HW212876   5.602   3.382   3.956 -0.7691  0.7027  0.4539
  300SOL     OW12877   2.972   7.385   3.966 -0.1806  0.3080  0.1021
  300SOL    HW112878   2.915   7.407   3.892  0.2079  0.3651 -0.1841
  300SOL    HW212879   2.966   7.290   3.975  0.1298  0.2476 -0.3017
  301SOL     OW12880  10.178   1.692   0.079 -0.1591 -0.5519 -0.3075
  301SOL    HW112881  10.213   1.685  -0.010  0.3620  2.3538 -0.4232
  301SOL    HW212882  10.248   1.658   0.135  0.6550  0.1727 -0.8681
  302SOL     OW12883   0.277   4.569   0.557 -1.2626 -0.1397 -0.1733
  302SOL    HW112884   0.345   4.578   0.623 -0.2437  4.0256 -1.4499
  302SOL    HW212885   0.195   4.564   0.608 -0.3529  0.4459  1.4363
  303SOL     OW12886   8.140   3.395   3.327  0.5426 -0.2781  0.0313
  303SOL    HW112887   8.114   3.313   3.369  0.4044  0.5569  1.6379
  303SOL    HW212888   8.219   3.372   3.277  0.4125 -1.4085  0.3110
  304SOL     OW12889   1.931   9.537   5.980 -0.6015 -0.1420  0.2029
  304SOL    HW112890   1.908   9.523   6.072 -1.4712 -1.3286 -0.1751
  304SOL    HW212891   1.986   9.615   5.981 -0.6833 -0.0753  1.7181
  305SOL     OW12892   7.824   1.986   5.389  0.1171 -0.0876  0.1239
  305SOL    HW112893   7.900   1.954   5.341 -0.0746  0.1367 -0.3358
  305SOL    HW212894   7.834   2.081   5.391 -0.9389  0.0920 -1.3338
  306SOL     OW12895   7.932   8.238   1.376 -0.5163  0.2088  0.0580
  306SOL    HW112896   8.014   8.286   1.373 -1.6108  2.2874  0.8153
  306SOL    HW212897   7.950   8.161   1.430  0.8563  0.7363  0.3738
  307SOL     OW12898   1.930   7.641   9.557  0.0404 -0.4211  0.2108
  307SOL    HW112899   1.996   7.622   9.491  0.0200 -0.5901  0.2380
  307SOL    HW212900   1.881   7.559   9.567  0.2366 -0.4936  0.6486
  308SOL     OW12901   6.418   5.527   7.838  0.2562  0.6696  0.4367
  308SOL    HW112902   6.349   5.513   7.903 -0.1618  0.9077  0.0479
  308SOL    HW212903   6.403   5.459   7.772 -0.2770  1.3870 -0.2012
  309SOL     OW12904   9.295   8.345   3.130 -0.0851 -0.2118 -0.7986
  309SOL    HW112905   9.318   8.417   3.189 -0.5703 -0.3393 -0.4439
  309SOL    HW212906   9.289   8.268   3.187  0.9353 -0.6449 -1.2565
  310SOL     OW12907   2.384   9.408   0.637 -0.3330  0.1397 -0.0070
  310SOL    HW112908   2.438   9.402   0.716 -0.2224 -0.4098 -0.1226
  310SOL    HW212909   2.379   9.318   0.604 -0.0081  0.4332 -0.8780
  311SOL     OW12910   9.402   9.882   0.961 -0.2506 -0.2444 -0.4281
  311SOL    HW112911   9.436   9.919   1.042 -0.8523 -0.1359 -0.2214
  311SOL    HW212912   9.317   9.846   0.985  0.5346 -2.2948 -0.4682
  312SOL     OW12913   6.566   6.524   6.491  0.3213  0.4254 -0.1377
  312SOL    HW112914   6.655   6.537   6.460  0.5695  1.6524  0.9844
  312SOL    HW212915   6.520   6.485   6.417  2.1258 -1.6586 -0.2846
  313SOL     OW12916   3.355   0.431  10.018  0.5025 -0.4088 -0.1645
  313SOL    HW112917   3.323   0.520  10.003 -0.6219 -0.6947  0.4739
  313SOL    HW212918   3.345   0.388   9.933  0.1727 -0.2041 -0.2293
  314SOL     OW12919   1.392   2.145   3.296 -0.4582  0.1491 -0.0427
  314SOL    HW112920   1.444   2.066   3.280 -0.9132 -0.1093 -0.2701
  314SOL    HW212921   1.405   2.163   3.389  0.8576  0.6897 -0.2988
  315SOL     OW12922   1.838   3.077   4.738  0.4189  0.1413 -0.0863
  315SOL    HW112923   1.839   3.169   4.762 -0.3793  0.0686  0.2330
  315SOL    HW212924   1.863   3.031   4.818  0.7183  0.0669 -0.2187
  316SOL     OW12925   5.076   4.309   5.564  0.0379 -0.7735  0.3806
  316SOL    HW112926   5.087   4.395   5.523 -1.2413 -0.2040  1.1687
  316SOL    HW212927   4.985   4.286   5.546  0.6819 -2.5643 -0.8892
  317SOL     OW12928   8.850   2.606   1.777 -0.3490 -0.1213  0.0004
  317SOL    HW112929   8.899   2.525   1.761  0.9744  0.7438 -0.5348
  317SOL    HW212930   8.894   2.647   1.851  0.5635  1.2557 -1.2370
  318SOL     OW12931   4.842   7.471   5.184 -0.3044 -0.3723  0.2953
  318SOL    HW112932   4.773   7.426   5.232 -0.6630  1.0854  1.2249
  318SOL    HW212933   4.873   7.538   5.245  1.8443 -0.8721 -0.1419
  319SOL     OW12934   8.291   6.939   7.157  0.4665  0.0509 -0.2511
  319SOL    HW112935   8.217   6.975   7.107  0.1895 -0.3046 -0.1081
  319SOL    HW212936   8.270   6.959   7.248  0.7663  0.3343 -0.2445
  320SOL     OW12937   1.941   1.750   8.362  0.5408 -0.8258 -0.0643
  320SOL    HW112938   1.960   1.787   8.276  0.4273  1.0673  0.6857
  320SOL    HW212939   1.868   1.690   8.346 -1.3081  1.4924 -0.9160
  321SOL     OW12940   4.627   7.754   0.297  0.0958 -0.6587  0.2331
  321SOL    HW112941   4.664   7.840   0.275  0.1536 -0.4980  0.9591
  321SOL    HW212942   4.576   7.769   0.376  1.7070 -1.6799  1.5194
  322SOL     OW12943   1.637   7.650   8.972  0.0974 -0.1130  0.0183
  322SOL    HW112944   1.613   7.582   8.910 -0.6142 -0.5701  0.7821
  322SOL    HW212945   1.556   7.698   8.990 -0.4962 -1.9263  2.9229
  323SOL     OW12946   8.389   2.886   6.191  0.7591  0.6120 -0.0773
  323SOL    HW112947   8.478   2.851   6.196  0.7304  0.4581 -0.5847
  323SOL    HW212948   8.346   2.832   6.125  0.1637  0.4169  0.4609
  324SOL     OW12949  10.261   2.250   6.659 -0.1372 -0.7774 -0.2537
  324SOL    HW112950  10.215   2.272   6.578  0.8904  0.4663 -0.5294
  324SOL    HW212951  10.330   2.189   6.632  0.4885 -0.0181 -0.4150
  325SOL     OW12952   6.532   0.918   3.846 -0.2762  0.0508 -0.3915
  325SOL    HW112953   6.547   0.877   3.761 -0.3452 -0.4095 -0.1844
  325SOL    HW212954   6.602   0.982   3.854 -0.1510 -0.0425 -0.7093
  326SOL     OW12955   5.985   6.328   1.600 -0.6486  0.3409 -0.2477
  326SOL    HW112956   6.041   6.403   1.620  1.7867 -1.2341 -0.6189
  326SOL    HW212957   5.998   6.313   1.507  0.2715 -1.4842  0.1208
  327SOL     OW12958   1.337   7.286   0.944  0.2139  0.1124 -0.4973
  327SOL    HW112959   1.285   7.206   0.947  0.6559 -0.1818 -0.4686
  327SOL    HW212960   1.274   7.357   0.955 -0.1140 -0.2604  0.0447
  328SOL     OW12961   4.823   0.986   4.420  0.1144  0.5474  0.0678
  328SOL    HW112962   4.803   0.956   4.508  1.2764 -0.1866  0.0987
  328SOL    HW212963   4.915   1.013   4.424  0.0189  1.0325 -0.7799
  329SOL     OW12964   9.659   2.434   8.990 -0.0056  0.6202  0.4213
  329SOL    HW112965   9.752   2.451   9.004  0.1832  0.9258 -0.9914
  329SOL    HW212966   9.621   2.519   8.970 -0.6346  0.5267  1.1945
  330SOL     OW12967   3.381   1.907   4.764  0.3970  0.2227 -0.2976
  330SOL    HW112968   3.422   1.931   4.681 -0.1426 -0.6272 -0.8277
  330SOL    HW212969   3.407   1.815   4.777 -1.4110 -0.3863 -0.7141
  331SOL     OW12970   7.032   2.064   8.044 -0.7323  0.1436 -0.0463
  331SOL    HW112971   7.063   1.989   8.095 -2.0833  1.0013  2.1674
  331SOL    HW212972   7.012   2.131   8.109  1.8514  3.0818 -1.9952
  332SOL     OW12973   8.155   5.945   8.600  0.2184 -0.9029 -0.1264
  332SOL    HW112974   8.102   5.903   8.668  0.5771  0.1986  0.8665
  332SOL    HW212975   8.242   5.906   8.608  0.8615  0.7426  1.5453
  333SOL     OW12976   3.444   5.053   1.793  0.2854  0.0851  0.5558
  333SOL    HW112977   3.452   5.068   1.699  0.3752 -0.6059  0.4461
  333SOL    HW212978   3.383   4.979   1.801 -0.0611  0.4192  1.0594
  334SOL     OW12979   6.649   7.720   7.838 -0.6275 -0.2267  0.5486
  334SOL    HW112980   6.659   7.641   7.890  1.8825 -0.6812 -0.5035
  334SOL    HW212981   6.587   7.695   7.769 -0.1019 -1.2012  0.4085
  335SOL     OW12982   6.011  10.280   7.856  0.5194  0.1968  0.3037
  335SOL    HW112983   5.956  10.330   7.797  0.8401  0.2943  0.0849
  335SOL    HW212984   5.981  10.190   7.847 -0.6959  0.4663  1.4053
  336SOL     OW12985   0.806   8.009   8.248  0.1547  0.0556  0.5075
  336SOL    HW112986   0.827   7.944   8.180  0.0270  0.3924  0.1440
  336SOL    HW212987   0.822   8.093   8.206 -2.3171  0.3708  0.0212
  337SOL     OW12988   8.183   8.273   9.043  0.2331  0.4687 -0.2904
  337SOL    HW112989   8.262   8.324   9.062 -0.5576  1.4190  0.5774
  337SOL    HW212990   8.213   8.204   8.984  1.9817 -0.0025  1.0585
  338SOL     OW12991   4.584   7.653   0.854 -0.1305 -0.1256 -0.2546
  338SOL    HW112992   4.663   7.616   0.814  0.7821  1.0581  0.3573
  338SOL    HW212993   4.597   7.640   0.948 -1.2892 -1.0561 -0.2020
  339SOL     OW12994   8.615   9.654   3.061  0.4382  0.4816  0.3894
  339SOL    HW112995   8.621   9.749   3.062 -1.6289  0.6650  0.0327
  339SOL    HW212996   8.683   9.626   2.999 -0.9057  1.9674 -1.9337
  340SOL     OW12997   6.470   4.881   6.108 -0.1187 -0.3635  0.2030
  340SOL    HW112998   6.455   4.802   6.055  0.8618 -0.2344 -0.2887
  340SOL    HW212999   6.383   4.903   6.144 -0.4503 -1.5174  0.1470
  341SOL     OW13000   0.146   4.934   9.483 -0.1150 -0.4791  0.5698
  341SOL    HW113001   0.143   5.014   9.536 -0.9763 -0.4260  0.4504
  341SOL    HW213002   0.218   4.950   9.422 -0.5222  0.3753  0.2925
  342SOL     OW13003  10.120   3.015   8.149  0.1172 -0.0756 -0.4602
  342SOL    HW113004  10.110   3.098   8.103  0.8651  0.7450  0.8009
  342SOL    HW213005  10.030   2.990   8.172 -0.0278  1.0768  0.3151
  343SOL     OW13006   0.587   9.768   1.316 -0.6332  0.3139  0.6135
  343SOL    HW113007   0.591   9.815   1.400 -1.4851  2.3433 -0.4196
  343SOL    HW213008   0.647   9.816   1.259 -0.3389 -0.8201 -0.0468
  344SOL     OW13009   9.309   7.345   5.412 -0.1926 -0.2035  0.5443
  344SOL    HW113010   9.285   7.315   5.500  0.7880 -0.4096  0.7565
  344SOL    HW213011   9.327   7.438   5.423 -0.3605 -0.1654  0.4987
  345SOL     OW13012   1.388   1.118   4.801 -0.0584 -0.4673 -0.4720
  345SOL    HW113013   1.453   1.099   4.869 -0.0529 -0.9944 -0.6277
  345SOL    HW213014   1.440   1.133   4.722 -0.0716  0.0382 -0.3886
  346SOL     OW13015   6.919   6.007   0.583 -0.3035 -0.8131  0.4553
  346SOL    HW113016   6.848   5.953   0.548  0.5946 -0.5424 -1.9309
  346SOL    HW213017   6.918   6.087   0.530  0.8849 -0.1687  1.3343
  347SOL     OW13018   4.876   4.223   4.551 -0.1579  0.2554 -0.1404
  347SOL    HW113019   4.929   4.147   4.528  0.0342 -0.1984  1.6310
  347SOL    HW213020   4.926   4.267   4.620 -1.8403  0.0554  1.2763
  348SOL     OW13021   9.684   2.615   0.544 -0.6131  0.9932 -0.0302
  348SOL    HW113022   9.608   2.613   0.602 -0.6499 -0.6761 -0.0920
  348SOL    HW213023   9.742   2.681   0.583 -1.0654  0.6064  1.3562
  349SOL     OW13024   1.750   3.413   5.388  0.2588 -0.1895  0.7529
  349SOL    HW113025   1.720   3.326   5.360 -2.3165  1.0064 -0.6244
  349SOL    HW213026   1.823   3.396   5.447  0.1557 -3.2526  0.1571
  350SOL     OW13027   5.581   1.547   7.759 -0.2419 -0.2388 -0.0023
  350SOL    HW113028   5.555   1.574   7.847 -0.0330  3.4351 -0.8946
  350SOL    HW213029   5.505   1.568   7.704  0.4282 -0.3438 -1.0091
  351SOL     OW13030   4.637   4.416   1.877  0.4444 -0.4208 -0.1457
  351SOL    HW113031   4.621   4.416   1.971  3.1784  0.5959  0.3937
  351SOL    HW213032   4.644   4.509   1.854 -0.9477 -0.6128 -1.5501
  352SOL     OW13033   5.415   4.006   7.707 -0.0873 -0.5803  0.4353
  352SOL    HW113034   5.476   3.947   7.663  0.4519 -1.1079  1.8570
  352SOL    HW213035   5.371   3.951   7.772 -0.9676  0.1532  0.4764
  353SOL     OW13036   4.804   9.069   4.335 -0.4085  0.2276  0.1637
  353SOL    HW113037   4.847   9.054   4.420 -1.5358 -0.7855  0.5843
  353SOL    HW213038   4.779   8.981   4.305 -0.0261  0.5624 -1.2359
  354SOL     OW13039   2.634   5.994   4.617  0.2055 -0.4591 -0.8529
  354SOL    HW113040   2.593   5.951   4.692  0.3818 -1.4248 -1.2865
  354SOL    HW213041   2.695   6.057   4.655 -1.1006  0.4430 -0.2007
  355SOL     OW13042   7.788   7.525   0.170  0.7568  0.5762  0.5341
  355SOL    HW113043   7.694   7.528   0.152  0.6874 -1.0932  0.5325
  355SOL    HW213044   7.823   7.598   0.118 -0.1760 -0.5661 -1.8838
  356SOL     OW13045  10.162   7.851   0.849  0.0140 -0.3015 -0.0550
  356SOL    HW113046  10.198   7.814   0.930  1.3687  0.4618 -0.2753
  356SOL    HW213047  10.237   7.855   0.790 -0.0349  2.6927 -0.0619
  357SOL     OW13048   4.003   8.106   7.697  0.5235  0.7129  0.2098
  357SOL    HW113049   3.916   8.140   7.679  0.8462  1.5192  0.1308
  357SOL    HW213050   4.053   8.182   7.727  1.8215  0.7437 -1.8636
  358SOL     OW13051   6.059   0.142   3.461 -0.0228 -0.1267  0.3011
  358SOL    HW113052   6.148   0.177   3.468 -0.2864  1.1580 -1.7918
  358SOL    HW213053   6.050   0.120   3.368 -1.7805 -0.5472  0.5414
  359SOL     OW13054   0.362   4.374   4.601  0.0519 -0.0274  0.0481
  359SOL    HW113055   0.327   4.458   4.630 -1.0893  0.0842 -1.4819
  359SOL    HW213056   0.285   4.318   4.592  0.4655 -0.4112 -1.4387
  360SOL     OW13057   9.737   5.847   3.758  0.6516 -0.2127 -0.2888
  360SOL    HW113058   9.807   5.782   3.761 -0.5246 -1.5518 -0.3424
  360SOL    HW213059   9.728   5.876   3.849  5.3446  4.7498 -0.9142
  361SOL     OW13060   0.905   6.208   4.174  0.2449 -0.1708  0.1004
  361SOL    HW113061   0.907   6.295   4.212  2.2594 -0.2446  0.2606
  361SOL    HW213062   0.906   6.223   4.079 -0.9490 -0.0312  0.0955
  362SOL     OW13063   9.868   0.307   6.097 -0.0066 -0.1079 -0.2118
  362SOL    HW113064   9.899   0.349   6.016 -1.1008 -1.0129 -1.1420
  362SOL    HW213065   9.776   0.333   6.103  0.4507  1.2811  1.6654
  363SOL     OW13066   6.399   7.154   7.263 -0.4011 -0.0060  0.2283
  363SOL    HW113067   6.465   7.084   7.261 -1.0768 -0.6670  0.3549
  363SOL    HW213068   6.344   7.138   7.186  1.0034  2.0016 -1.2736
  364SOL     OW13069   3.133   2.516   0.989 -0.1342  0.4867 -1.1180
  364SOL    HW113070   3.163   2.475   0.908 -1.9126 -1.7099 -0.7419
  364SOL    HW213071   3.174   2.466   1.059 -1.7032 -0.2229 -0.6561
  365SOL     OW13072   0.198   7.782   8.137 -0.4077 -0.3026 -0.2895
  365SOL    HW113073   0.229   7.707   8.087 -0.9672 -0.7954  0.0950
  365SOL    HW213074   0.263   7.795   8.206 -0.0812 -0.1542 -0.6256
  366SOL     OW13075   4.648  10.192  10.111  0.0619  0.3487 -0.1306
  366SOL    HW113076   4.584  10.141  10.160 -1.7195  0.5517 -2.0828
  366SOL    HW213077   4.608  10.278  10.099  0.6558  0.4851 -1.4024
  367SOL     OW13078   0.027   9.418   0.251 -0.8903 -0.5107 -0.2862
  367SOL    HW113079   0.029   9.325   0.273  1.2358 -0.4223  0.1636
  367SOL    HW213080  -0.045   9.454   0.302 -1.5333 -1.8568 -0.2216
  368SOL     OW13081   9.545   6.171   7.188 -0.1761  0.8367  0.2565
  368SOL    HW113082   9.614   6.210   7.134  0.2899  0.4076  0.5443
  368SOL    HW213083   9.533   6.234   7.259 -1.7102  2.0698 -1.0100
  369SOL     OW13084   8.903   8.509   1.527 -1.1802  0.1768  0.4436
  369SOL    HW113085   8.881   8.442   1.592 -0.4206  0.0176  0.5392
  369SOL    HW213086   8.957   8.572   1.574 -0.4678 -0.0357 -0.0791
  370SOL     OW13087   8.367   1.087   8.309  0.3904  0.2324  0.0294
  370SOL    HW113088   8.436   1.028   8.339  0.7111 -0.0961 -1.2798
  370SOL    HW213089   8.320   1.036   8.242 -1.8293  0.0381  1.6279
  371SOL     OW13090   7.013   5.916   5.509  0.5793  0.0215 -0.0096
  371SOL    HW113091   7.002   6.008   5.485 -0.2659 -0.3801 -1.1995
  371SOL    HW213092   6.957   5.904   5.585 -0.3671  0.1698 -0.6734
  372SOL     OW13093   2.046   9.296   1.646  0.1074  0.5769 -0.2153
  372SOL    HW113094   2.000   9.213   1.657 -1.1599  1.0788 -1.5349
  372SOL    HW213095   2.112   9.296   1.716 -1.6621 -0.2937  1.5390
  373SOL     OW13096   5.114   8.459   3.293  0.3334  0.0853 -0.6487
  373SOL    HW113097   5.059   8.508   3.232 -0.7903 -2.7289 -2.0551
  373SOL    HW213098   5.184   8.423   3.239  1.8232  0.9909  0.5776
  374SOL     OW13099   0.881   5.402   5.545  0.4295 -0.3911  0.3129
  374SOL    HW113100   0.787   5.383   5.539 -0.3252  2.1247  2.4279
  374SOL    HW213101   0.902   5.448   5.463 -0.8512  1.2298  0.8365
  375SOL     OW13102   2.854   2.567   3.211  0.3753 -0.2925 -0.6992
  375SOL    HW113103   2.922   2.631   3.233 -0.8722  1.0630 -0.6215
  375SOL    HW213104   2.793   2.571   3.285 -0.3659 -0.6655 -1.2738
  376SOL     OW13105   6.146   1.932   8.700 -0.4032 -0.1660  0.1173
  376SOL    HW113106   6.148   1.912   8.793  0.0412 -1.5216 -0.1582
  376SOL    HW213107   6.096   1.860   8.661 -2.2993  1.3893 -0.4945
  377SOL     OW13108   4.397   1.053   9.596 -0.0544 -0.2829  0.6942
  377SOL    HW113109   4.473   1.054   9.653 -0.6733 -1.0209  1.5737
  377SOL    HW213110   4.324   1.029   9.654 -0.5933 -1.7898 -0.5147
  378SOL     OW13111   2.544   0.065   4.533 -0.4839 -0.8557  0.3343
  378SOL    HW113112   2.537  -0.000   4.463 -1.7509  0.4892 -0.8634
  378SOL    HW213113   2.638   0.080   4.542 -0.2894 -0.5825 -1.5942
  379SOL     OW13114   0.907   9.138   7.009 -0.2004  0.1216 -0.0464
  379SOL    HW113115   0.814   9.134   7.033  0.3485 -0.2939  2.2341
  379SOL    HW213116   0.907   9.164   6.917 -2.5852 -0.3904 -0.2517
  380SOL     OW13117   1.727   9.593   1.850  0.1872 -0.0339  0.5723
  380SOL    HW113118   1.679   9.676   1.853  0.2948  0.1056 -0.9054
  380SOL    HW213119   1.813   9.616   1.815  1.3754 -0.2962  3.1264
  381SOL     OW13120   7.645   6.649   9.151 -0.1616 -0.0497  0.5644
  381SOL    HW113121   7.595   6.690   9.081  0.2045  1.0358  0.9081
  381SOL    HW213122   7.599   6.567   9.169 -2.1211  1.1179  1.1981
  382SOL     OW13123   1.644   0.434   8.542  0.1474  0.0245  0.2944
  382SOL    HW113124   1.592   0.403   8.468 -1.4712  1.3567  0.8024
  382SOL    HW213125   1.617   0.378   8.615  0.0218  0.1982  0.3815
  383SOL     OW13126   7.959   7.136   9.476  0.3037  0.3158  0.3127
  383SOL    HW113127   7.940   7.229   9.477  0.4428  0.3754 -1.2523
  383SOL    HW213128   8.041   7.128   9.525  0.7641  1.1296 -0.3120
  384SOL     OW13129   1.710   8.150  10.310  0.0693  0.0334  0.6648
  384SOL    HW113130   1.631   8.206  10.314  0.3540  0.6322 -1.0512
  384SOL    HW213131   1.675   8.062  10.300 -0.4363  0.3655 -0.8434
  385SOL     OW13132   5.489   2.437   6.580  0.1949  0.1116  0.3578
  385SOL    HW113133   5.545   2.365   6.609  0.3604  0.8765  2.0237
  385SOL    HW213134   5.409   2.394   6.548  1.0694 -0.8973 -0.5834
  386SOL     OW13135   4.721   6.473   3.573 -0.2610  0.2982  0.1877
  386SOL    HW113136   4.654   6.462   3.506  0.8182  0.6626 -0.9834
  386SOL    HW213137   4.802   6.443   3.532  0.3717  0.1635  1.4651
  387SOL     OW13138   4.363   6.851   5.560 -0.1015  0.0221 -0.0815
  387SOL    HW113139   4.292   6.891   5.610 -0.7202  0.0818 -0.9870
  387SOL    HW213140   4.327   6.769   5.527  0.2232  0.0950 -0.6273
  388SOL     OW13141   3.190   0.078   7.119  0.1082  0.1275 -0.5095
  388SOL    HW113142   3.195   0.057   7.212  2.0203 -1.7407 -0.9635
  388SOL    HW213143   3.266   0.134   7.103  0.1430 -0.0713 -1.0591
  389SOL     OW13144   9.293   1.007   7.511  0.0990  0.1922  0.4306
  389SOL    HW113145   9.308   0.940   7.578 -0.2633 -0.0873  0.2412
  389SOL    HW213146   9.347   0.979   7.437  0.1606  0.2614  0.4498
  390SOL     OW13147   2.156   1.233   5.015 -0.2077  0.7875  0.4535
  390SOL    HW113148   2.168   1.202   4.925 -0.1285  1.1235  0.3495
  390SOL    HW213149   2.073   1.193   5.042 -0.6280  1.2981 -0.0359
  391SOL     OW13150   0.303   4.329   1.284 -0.0441 -0.0843 -0.2656
  391SOL    HW113151   0.328   4.257   1.226 -1.4032  0.3735 -1.4560
  391SOL    HW213152   0.259   4.392   1.227  1.0123  1.6738  0.7576
  392SOL     OW13153   9.605   1.719   9.531  0.2788  0.1071 -0.2670
  392SOL    HW113154   9.575   1.743   9.443 -0.3605 -0.3245 -0.1682
  392SOL    HW213155   9.632   1.802   9.570  0.6412  0.2928 -0.8990
  393SOL     OW13156   3.016   1.916   6.151 -0.0214 -0.3028  0.3646
  393SOL    HW113157   3.006   1.856   6.225 -0.3761  1.3210  1.7247
  393SOL    HW213158   2.927   1.928   6.117 -0.1386  0.3361  0.8694
  394SOL     OW13159   1.036   0.215   6.048 -0.4127 -0.1574 -0.0981
  394SOL    HW113160   1.062   0.302   6.077 -1.6597 -0.3578  1.7610
  394SOL    HW213161   1.078   0.155   6.109 -0.2192 -0.8300 -0.8680
  395SOL     OW13162   0.072   6.513   8.871 -0.0744  0.1896 -0.1953
  395SOL    HW113163   0.126   6.435   8.864 -0.4593 -0.0532 -0.4489
  395SOL    HW213164   0.055   6.539   8.781  1.3196  1.4549 -0.1486
  396SOL     OW13165   2.317   8.350   6.163 -0.2966  0.3560 -0.3263
  396SOL    HW113166   2.356   8.424   6.116  0.2548 -0.0110 -0.4478
  396SOL    HW213167   2.392   8.300   6.196 -0.6167  1.2232  1.9397
  397SOL     OW13168  10.021   5.724   6.079  0.1740 -0.4803  0.1149
  397SOL    HW113169  10.060   5.659   6.020  1.0080  0.3022 -0.2290
  397SOL    HW213170  10.096   5.775   6.110 -0.3485 -0.3508  1.2153
  398SOL     OW13171   0.973   2.084   3.198 -0.0398 -0.3672 -0.1590
  398SOL    HW113172   0.961   2.177   3.178  1.7261  0.2414  1.2668
  398SOL    HW213173   1.007   2.046   3.117  0.8320  0.6268 -0.2930
  399SOL     OW13174   2.196  10.043   0.983 -0.4586  0.3027  0.7188
  399SOL    HW113175   2.250  10.076   0.911 -0.1296 -1.3303  0.1779
  399SOL    HW213176   2.251  10.051   1.061 -0.7941  2.0251  0.8288
  400SOL     OW13177   2.943   1.814   7.470 -0.2689 -0.1455  0.1821
  400SOL    HW113178   2.926   1.854   7.555 -1.0743 -2.3292  1.1369
  400SOL    HW213179   2.862   1.769   7.447  0.3812 -0.7606 -1.0698
  401SOL     OW13180   4.575   1.133   4.240 -0.3956  0.5193  0.2891
  401SOL    HW113181   4.497   1.116   4.294 -0.5997 -0.2735 -0.2424
  401SOL    HW213182   4.647   1.095   4.289 -0.2528  1.6311  0.9935
  402SOL     OW13183   7.085   3.164  10.294 -0.6316 -0.1895  0.0955
  402SOL    HW113184   7.060   3.073  10.312  1.0163 -0.7201 -0.0724
  402SOL    HW213185   7.020   3.195  10.231 -1.3387 -1.1918  0.3121
  403SOL     OW13186   2.553   4.743   5.901  0.3647 -0.3698 -0.0288
  403SOL    HW113187   2.493   4.675   5.931 -0.3027  0.0266 -0.4403
  403SOL    HW213188   2.578   4.789   5.981 -1.1322  0.4657 -0.0067
  404SOL     OW13189   2.396   0.044   8.075  0.8962 -0.5328  0.1386
  404SOL    HW113190   2.356   0.129   8.095  1.6176  0.0863 -0.9246
  404SOL    HW213191   2.375  -0.011   8.150 -0.8394  0.1352  0.1725
  405SOL     OW13192   9.821   3.688   3.584  0.0419 -0.2958 -0.1420
  405SOL    HW113193   9.789   3.648   3.503 -0.4311  0.6779 -0.4446
  405SOL    HW213194   9.914   3.704   3.567  0.0188 -0.3986 -0.3715
  406SOL     OW13195   3.757   9.393   9.502  0.3509 -0.0140  0.4166
  406SOL    HW113196   3.744   9.459   9.434 -1.0222  0.5686  1.2063
  406SOL    HW213197   3.803   9.322   9.458 -0.0171  0.5822 -0.9735
  407SOL     OW13198   7.509   2.226   7.449  0.8224  0.5974  0.7028
  407SOL    HW113199   7.485   2.229   7.357  1.6469 -2.2646  0.2797
  407SOL    HW213200   7.435   2.184   7.492  1.1773  0.2788  1.0173
  408SOL     OW13201   8.656   6.543   6.700  0.6121 -0.2076  0.3061
  408SOL    HW113202   8.729   6.506   6.651  0.1502 -1.0811  0.2583
  408SOL    HW213203   8.579   6.497   6.666 -0.0540  1.1951 -0.1566
  409SOL     OW13204   8.625   7.803   8.921 -0.6461 -0.1573  0.1193
  409SOL    HW113205   8.539   7.810   8.880  0.1010 -0.5097 -1.5831
  409SOL    HW213206   8.626   7.872   8.987 -2.1681 -0.0518  0.0579
  410SOL     OW13207   0.101   3.756   4.100 -0.6459  0.4937  0.6852
  410SOL    HW113208   0.155   3.680   4.125 -1.8512 -0.9585 -0.8842
  410SOL    HW213209   0.046   3.772   4.177 -0.7849 -0.6228  0.8363
  411SOL     OW13210   7.167   6.664   8.037 -0.0189  0.0896  0.0338
  411SOL    HW113211   7.232   6.702   7.979 -0.2477 -0.7092 -0.7729
  411SOL    HW213212   7.088   6.715   8.022  0.3572  0.9455  0.8833
  412SOL     OW13213  10.274   9.612   4.004  0.1938  0.2516 -0.6724
  412SOL    HW113214  10.356   9.582   4.043 -0.5290 -1.6233 -0.5199
  412SOL    HW213215  10.269   9.565   3.921 -0.2783  1.0930 -1.1294
  413SOL     OW13216   0.323   3.168   8.267 -0.0506 -0.4656  0.0078
  413SOL    HW113217   0.340   3.077   8.293  0.9109 -0.2992 -0.0264
  413SOL    HW213218   0.408   3.201   8.238 -0.7158 -0.0627 -1.5730
  414SOL     OW13219   3.884   8.079   9.349  0.4366 -0.1446 -0.4315
  414SOL    HW113220   3.917   8.132   9.421  0.2423  0.5938 -0.8652
  414SOL    HW213221   3.793   8.107   9.340 -0.0027 -1.3481  0.0317
  415SOL     OW13222   8.087   0.671   9.269 -0.4815 -0.9722  0.4359
  415SOL    HW113223   8.089   0.593   9.324 -4.1309 -2.2148 -0.8414
  415SOL    HW213224   8.062   0.638   9.183  0.7732  1.3649 -0.9200
  416SOL     OW13225   0.637   9.531   6.351 -0.2856 -0.0344 -0.2900
  416SOL    HW113226   0.585   9.464   6.395  1.0599 -1.8196 -1.2879
  416SOL    HW213227   0.580   9.563   6.281 -1.1723  0.3558  0.5902
  417SOL     OW13228   2.517   8.448   9.300 -0.1506 -0.3579 -0.0441
  417SOL    HW113229   2.475   8.368   9.270  0.9120 -0.9867  0.0707
  417SOL    HW213230   2.463   8.519   9.266 -0.9802 -1.1225 -0.3399
  418SOL     OW13231   9.987   9.197   7.683  0.1139  0.2578  0.8852
  418SOL    HW113232   9.913   9.240   7.726 -0.5495 -1.7765  1.9195
  418SOL    HW213233  10.001   9.118   7.734  2.6138  0.2555  0.3081
  419SOL     OW13234   9.551   6.148   9.305  0.0760  0.3297  0.0569
  419SOL    HW113235   9.585   6.195   9.229  0.9951 -0.0070  0.2425
  419SOL    HW213236   9.521   6.064   9.270  0.4451  0.1979  0.0502
  420SOL     OW13237   5.946   0.704   6.546  0.1565  0.1071  0.2131
  420SOL    HW113238   5.993   0.635   6.592 -0.6773 -0.7527 -0.1807
  420SOL    HW213239   5.994   0.714   6.464 -0.7083 -1.2627 -0.4976
  421SOL     OW13240   9.163   2.302   9.210 -0.0200  0.8789  0.5003
  421SOL    HW113241   9.180   2.388   9.171  1.3424  0.5503  0.3322
  421SOL    HW213242   9.140   2.246   9.136 -0.7755  1.0512  0.5934
  422SOL     OW13243   9.943   2.442   1.945  0.7716 -0.1148 -0.2802
  422SOL    HW113244   9.991   2.361   1.961 -0.4177 -0.5056  1.6779
  422SOL    HW213245   9.944   2.487   2.029 -1.3816  0.3221 -0.4338
  423SOL     OW13246   8.017   3.226   7.305 -0.3904  0.1680 -0.3101
  423SOL    HW113247   7.960   3.302   7.320 -0.5702  0.0030 -0.1515
  423SOL    HW213248   7.968   3.171   7.245 -0.1151  0.3352 -0.6904
  424SOL     OW13249   6.596   1.736   2.631  0.3962 -0.4407  0.5068
  424SOL    HW113250   6.596   1.662   2.571 -1.2356 -0.8296  0.9278
  424SOL    HW213251   6.511   1.731   2.674  0.6511  1.1189  1.2453
  425SOL     OW13252   7.626   3.131   4.271  0.1801 -0.0544 -0.2127
  425SOL    HW113253   7.719   3.114   4.253 -0.5197 -2.1304 -2.3045
  425SOL    HW213254   7.604   3.068   4.340  0.3171  0.5516  0.4030
  426SOL     OW13255   4.099   2.312   8.928  0.5458  0.0719 -0.0668
  426SOL    HW113256   4.015   2.288   8.888  0.0348  0.6728  0.6053
  426SOL    HW213257   4.138   2.373   8.866 -0.8866  2.1192  0.9038
  427SOL     OW13258  10.154   1.080   1.273  0.4920 -1.1063  0.7202
  427SOL    HW113259  10.197   1.130   1.342  1.5079 -0.9065 -0.0412
  427SOL    HW213260  10.201   0.997   1.270  1.9712 -0.2712 -1.2137
  428SOL     OW13261   2.771   4.562   9.835 -0.7370  0.4485  0.4523
  428SOL    HW113262   2.678   4.556   9.855 -0.7137 -0.0312  0.4445
  428SOL    HW213263   2.813   4.503   9.898 -0.3757  1.1379  0.8611
  429SOL     OW13264   4.290   6.995   3.272  0.1378 -0.5159  0.1500
  429SOL    HW113265   4.234   6.976   3.348  1.7201 -1.5662  1.1130
  429SOL    HW213266   4.296   6.911   3.226 -1.9538  0.4099 -2.0232
  430SOL     OW13267   6.540   3.306   7.700 -0.0198 -0.2711 -0.1213
  430SOL    HW113268   6.612   3.343   7.750  0.2618 -0.0338 -0.6952
  430SOL    HW213269   6.468   3.368   7.712 -0.1958 -0.5964  0.5942
  431SOL     OW13270   0.654   3.622  10.090 -0.3771  0.0890 -0.7968
  431SOL    HW113271   0.658   3.714  10.065  0.7984  0.0699 -0.7188
  431SOL    HW213272   0.566   3.611  10.125 -0.3955  1.2766 -0.4231
  432SOL     OW13273   5.672   3.435   6.007  0.3734 -0.3138  0.2911
  432SOL    HW113274   5.615   3.372   6.052 -1.2002  0.4767 -0.4932
  432SOL    HW213275   5.687   3.396   5.921 -1.2624  0.6746 -0.4902
  433SOL     OW13276   9.481   4.868   0.419 -0.4736 -0.1077  0.1532
  433SOL    HW113277   9.559   4.921   0.404 -0.4592 -0.0838  0.3070
  433SOL    HW213278   9.506   4.780   0.393 -0.6301  0.0361 -0.5030
  434SOL     OW13279   9.096   2.623  10.232  0.0086 -0.3814 -0.1188
  434SOL    HW113280   9.163   2.686  10.206 -0.0915  0.3693  1.3287
  434SOL    HW213281   9.133   2.577  10.308 -0.8033 -0.4915  0.2258
  435SOL     OW13282   8.274   2.382   3.911  0.5916  0.3737  0.3838
  435SOL    HW113283   8.335   2.392   3.984 -0.1931 -1.4010  1.3498
  435SOL    HW213284   8.189   2.366   3.952  0.3132 -1.7637 -0.8254
  436SOL     OW13285   2.260   1.483   2.767  0.0618 -0.1224  0.2572
  436SOL    HW113286   2.276   1.443   2.682  0.5461  0.3459  0.1171
  436SOL    HW213287   2.167   1.472   2.783 -0.3132  1.0293 -0.9831
  437SOL     OW13288   3.412   6.428   0.090  0.3811 -0.1169 -0.0487
  437SOL    HW113289   3.406   6.496   0.023  1.3012  0.0014 -0.0287
  437SOL    HW213290   3.493   6.381   0.069  0.6061 -0.1652  0.8828
  438SOL     OW13291   3.161   8.010   3.574 -0.1013  0.5029  0.1621
  438SOL    HW113292   3.114   7.953   3.514 -0.0931 -0.6662  1.2267
  438SOL    HW213293   3.231   8.049   3.521 -0.8862  0.5230 -0.8850
  439SOL     OW13294   8.260   8.118   4.769  0.1988 -0.4800 -0.3165
  439SOL    HW113295   8.204   8.188   4.803 -0.5363 -0.7801 -0.8699
  439SOL    HW213296   8.347   8.158   4.761 -0.2717  0.4599 -0.8964
  440SOL     OW13297   9.422   7.128   4.959 -0.1937 -0.2173 -0.1850
  440SOL    HW113298   9.492   7.184   4.993 -0.7213 -0.2051  0.9258
  440SOL    HW213299   9.425   7.140   4.864  0.4847  0.7548 -0.0522
  441SOL     OW13300   1.864   5.851   3.814  0.0766 -0.1549 -0.2429
  441SOL    HW113301   1.891   5.894   3.896 -3.0680  1.4405  0.1006
  441SOL    HW213302   1.924   5.886   3.748  0.7775  0.8566  0.8799
  442SOL     OW13303   3.743   4.918   2.867 -0.2312  0.1653  0.0776
  442SOL    HW113304   3.710   4.922   2.777 -1.6687 -0.5789  0.5445
  442SOL    HW213305   3.710   4.997   2.908  1.3321  1.0611 -0.3019
  443SOL     OW13306   2.378   6.532   0.772  0.3007 -0.4620 -1.0461
  443SOL    HW113307   2.446   6.525   0.706 -0.3840  0.4248 -1.8733
  443SOL    HW213308   2.330   6.612   0.750  1.3081  1.0457  1.7195
  444SOL     OW13309   2.157   2.999   2.135  0.5772  0.0694 -0.2890
  444SOL    HW113310   2.121   3.029   2.218  0.6796 -1.1981  0.2313
  444SOL    HW213311   2.185   3.079   2.091 -0.1605  0.8225  0.5654
  445SOL     OW13312   8.018   7.630   3.607 -0.2879 -0.5732 -0.3382
  445SOL    HW113313   8.076   7.557   3.629  0.6559  0.1365 -0.3851
  445SOL    HW213314   8.071   7.708   3.625 -1.0018  0.0811 -1.0261
  446SOL     OW13315   2.769   6.742  10.112  0.3418  0.4495 -0.2443
  446SOL    HW113316   2.848   6.689  10.120 -0.1216 -0.1717  0.4007
  446SOL    HW213317   2.791   6.809  10.048  0.7715 -0.8533 -1.5089
  447SOL     OW13318  10.232   5.719   5.481 -0.2314 -0.8904  0.6089
  447SOL    HW113319  10.250   5.813   5.491  0.9137 -0.8363 -1.4159
  447SOL    HW213320  10.307   5.676   5.521  0.2101 -0.8729 -0.1791
  448SOL     OW13321   1.861   1.849   9.743  0.8672  0.0392  0.4385
  448SOL    HW113322   1.857   1.930   9.793  0.8104 -0.0556  0.5889
  448SOL    HW213323   1.779   1.846   9.694  0.3484 -0.4971  1.3225
  449SOL     OW13324   1.267   6.910   4.820  0.1951 -0.0068 -0.1820
  449SOL    HW113325   1.334   6.866   4.769  0.3508  0.4374 -0.3655
  449SOL    HW213326   1.242   6.986   4.768  0.6535  0.6854  0.5784
  450SOL     OW13327   6.917   1.717   1.434  0.2588  0.6547  0.5501
  450SOL    HW113328   6.993   1.660   1.428  0.5472  1.0278  0.5873
  450SOL    HW213329   6.887   1.728   1.344  2.3269  3.2549  0.0504
  451SOL     OW13330   3.017   4.413   5.419 -0.4115  0.5349  0.0941
  451SOL    HW113331   3.089   4.408   5.481 -0.7283  0.2860  0.4485
  451SOL    HW213332   2.956   4.345   5.448 -0.2424 -0.0661 -0.8998
  452SOL     OW13333   9.603   2.630   3.958 -0.1534  0.0994  0.1642
  452SOL    HW113334   9.567   2.603   3.874 -0.6307  2.8442 -0.5988
  452SOL    HW213335   9.527   2.645   4.014  0.1641 -2.9292  1.6521
  453SOL     OW13336   7.488  10.011   9.185 -0.1387  0.1670 -0.1519
  453SOL    HW113337   7.568  10.020   9.133  0.2827 -0.9799  0.2519
  453SOL    HW213338   7.466  10.100   9.211 -0.8114  0.8933 -2.9091
  454SOL     OW13339   5.082   4.432   4.355  0.2079 -0.2173  0.1067
  454SOL    HW113340   5.020   4.396   4.292  0.4488  0.8232 -0.7340
  454SOL    HW213341   5.033   4.435   4.437  0.0549 -2.0600  0.1329
  455SOL     OW13342   1.725   0.010   1.767 -0.0438 -0.3949 -0.3683
  455SOL    HW113343   1.711   0.094   1.723 -0.8162  0.7000  1.8628
  455SOL    HW213344   1.814   0.016   1.802 -0.1197 -0.4798 -0.1607
  456SOL     OW13345   3.747   5.314   5.248  0.2449  0.0877 -0.2944
  456SOL    HW113346   3.799   5.338   5.325  0.8971 -0.2083 -0.6336
  456SOL    HW213347   3.761   5.220   5.239 -0.5760 -0.0430 -0.2345
  457SOL     OW13348   3.870   9.938   7.336  0.5475  0.0331  0.5946
  457SOL    HW113349   3.814   9.973   7.266 -0.2598  0.7919  1.5802
  457SOL    HW213350   3.876   9.844   7.317  0.3973  0.2279 -0.5123
  458SOL     OW13351   0.960   7.232   7.703 -0.0740 -0.5900 -0.3919
  458SOL    HW113352   0.923   7.319   7.687 -1.0031 -0.5670  1.5845
  458SOL    HW213353   0.962   7.191   7.617 -2.0543  0.4759 -1.0018
  459SOL     OW13354   3.603   3.533   8.641  0.2111  0.0039 -0.0181
  459SOL    HW113355   3.545   3.528   8.565 -0.3214  0.9373  0.3047
  459SOL    HW213356   3.691   3.523   8.606 -0.1542 -2.4177 -0.4164
  460SOL     OW13357   0.222   1.874   1.466  0.3294 -0.5468 -0.8855
  460SOL    HW113358   0.149   1.923   1.430  0.7495  0.1877 -0.7616
  460SOL    HW213359   0.279   1.856   1.391  1.4539  1.4161 -0.5746
  461SOL     OW13360   9.836   9.082   1.273 -0.2541  0.0384  0.0134
  461SOL    HW113361   9.751   9.042   1.256 -0.3791  1.1004 -2.3594
  461SOL    HW213362   9.860   9.123   1.190  1.2194  2.3327  1.4572
  462SOL     OW13363   5.411   4.754   8.457 -0.2363 -0.7170 -0.2927
  462SOL    HW113364   5.485   4.699   8.484  0.7614 -0.5815 -2.5461
  462SOL    HW213365   5.365   4.702   8.391 -1.0471 -0.0212 -0.2879
  463SOL     OW13366   1.081   4.939   1.231  0.0548 -0.1422 -0.0309
  463SOL    HW113367   0.993   4.903   1.245  0.4634 -1.6304 -1.0787
  463SOL    HW213368   1.139   4.873   1.269  0.8734 -1.0944 -2.7546
  464SOL     OW13369   5.756   0.054   4.168 -0.0793  0.0271 -0.0141
  464SOL    HW113370   5.754   0.055   4.263  0.0985  1.4739 -0.0158
  464SOL    HW213371   5.848   0.038   4.146 -0.4201 -2.4655  0.0102
  465SOL     OW13372   5.602   3.309   6.415  0.4708  0.6837  0.0833
  465SOL    HW113373   5.544   3.326   6.490  1.1566  0.4531  0.6810
  465SOL    HW213374   5.676   3.262   6.453  1.1598  1.1763 -0.6231
  466SOL     OW13375  10.109   1.318   7.178  0.4413  0.3660  0.4322
  466SOL    HW113376  10.123   1.336   7.271 -0.4368 -0.2696  0.7035
  466SOL    HW213377  10.177   1.255   7.155  1.8380  1.9174  0.1529
  467SOL     OW13378   2.939   9.249   0.246  0.5388  0.2668  0.1893
  467SOL    HW113379   3.017   9.292   0.281  1.0091 -0.9089  0.6307
  467SOL    HW213380   2.973   9.191   0.178 -0.0194  0.1314  0.0268
  468SOL     OW13381   3.388   3.033   7.271  0.8698 -0.4696 -0.2623
  468SOL    HW113382   3.397   2.980   7.192  1.1623 -2.5133  1.0775
  468SOL    HW213383   3.447   2.992   7.334 -1.0408 -0.3199  1.7321
  469SOL     OW13384   8.849   6.860   3.891 -0.4437  0.2221 -0.2173
  469SOL    HW113385   8.908   6.839   3.818 -0.4487 -1.3706  0.1815
  469SOL    HW213386   8.766   6.883   3.850  0.1956  1.6665 -0.7614
  470SOL     OW13387   9.131   4.357   0.829 -0.4509  0.5950  0.0335
  470SOL    HW113388   9.122   4.440   0.783  1.8467  0.3845 -0.9669
  470SOL    HW213389   9.157   4.382   0.918 -1.8077  0.9466  0.3527
  471SOL     OW13390   8.341   8.286   4.505  0.5612  0.3530  0.0171
  471SOL    HW113391   8.407   8.340   4.462  0.2080  0.3974 -0.4753
  471SOL    HW213392   8.375   8.273   4.594  1.1641  0.4893 -0.1890
  472SOL     OW13393  10.278   3.500   1.284 -0.2980 -0.5204  0.1139
  472SOL    HW113394  10.308   3.495   1.193 -0.9363 -1.5655 -0.0584
  472SOL    HW213395  10.184   3.482   1.280 -0.3534 -0.4646  0.9652
  473SOL     OW13396   5.300   2.918   8.006 -0.1181  0.1479 -0.0663
  473SOL    HW113397   5.254   2.842   8.042 -0.7901  1.4434  1.9614
  473SOL    HW213398   5.392   2.891   8.004 -0.2179 -0.4124  1.5450
  474SOL     OW13399   4.063   0.038   3.467  0.7109  0.3002 -0.4061
  474SOL    HW113400   4.082   0.127   3.497  2.4559  0.1531 -0.9717
  474SOL    HW213401   4.023   0.050   3.381  0.4460  0.5374 -0.2553
  475SOL     OW13402   9.646   7.015   6.530 -0.3917 -0.4234  0.1770
  475SOL    HW113403   9.563   6.998   6.576 -0.3665 -0.6511  0.1402
  475SOL    HW213404   9.711   7.020   6.600 -0.4448 -0.1829  0.2108
  476SOL     OW13405   1.713   0.912   1.751  0.2695  0.8163 -0.4463
  476SOL    HW113406   1.625   0.879   1.736 -0.3380  2.4587 -0.7305
  476SOL    HW213407   1.717   0.993   1.699  2.0882  0.5459 -0.7806
  477SOL     OW13408   8.600   5.550   1.809  0.4544  0.4322 -0.1187
  477SOL    HW113409   8.613   5.531   1.902 -0.0161 -2.1010 -0.4960
  477SOL    HW213410   8.644   5.633   1.795  0.4359  0.9426  2.3900
  478SOL     OW13411   0.856   3.224   1.452 -0.7030  0.1883  0.7111
  478SOL    HW113412   0.886   3.287   1.387 -0.6737 -0.6908 -0.1562
  478SOL    HW213413   0.817   3.277   1.521 -3.4541  1.0766 -1.3608
  479SOL     OW13414   3.398   9.277   0.549 -0.4183  0.0958 -0.3462
  479SOL    HW113415   3.383   9.313   0.462 -0.4012 -1.7401 -1.1617
  479SOL    HW213416   3.425   9.352   0.603  1.4782  0.9848 -2.3751
  480SOL     OW13417   5.640   6.486   1.194  0.3220 -0.6560  0.2901
  480SOL    HW113418   5.683   6.542   1.259 -2.1172 -0.3201  1.7744
  480SOL    HW213419   5.611   6.409   1.244 -0.6719 -0.9009 -0.6114
  481SOL     OW13420   7.844   2.147   0.311  0.6316  0.6404  0.5226
  481SOL    HW113421   7.832   2.067   0.362 -1.1191 -0.4501 -1.3960
  481SOL    HW213422   7.851   2.217   0.376  1.3264 -0.9604  2.2493
  482SOL     OW13423   8.602   8.368   9.268 -0.0964  0.5256  0.1624
  482SOL    HW113424   8.671   8.434   9.280  0.0257  0.2993  0.7379
  482SOL    HW213425   8.640   8.305   9.207  0.6976 -0.2515  1.4065
  483SOL     OW13426   5.900   1.297   6.229  0.2580 -0.6563  0.1212
  483SOL    HW113427   5.911   1.242   6.307  1.4577  0.2850  0.6552
  483SOL    HW213428   5.988   1.301   6.191  0.5423  1.9335  0.8559
  484SOL     OW13429   2.243   6.879   1.534 -0.3107 -0.2138  0.2184
  484SOL    HW113430   2.288   6.931   1.467 -1.2324  0.8886  0.4290
  484SOL    HW213431   2.177   6.830   1.485 -0.3636 -0.1261  0.2029
  485SOL     OW13432   8.144   7.642   9.546 -0.1381  0.4042  0.2493
  485SOL    HW113433   8.129   7.692   9.627  0.7907  0.8676  0.1570
  485SOL    HW213434   8.066   7.658   9.493 -1.2284 -0.7384  1.4458
  486SOL     OW13435   9.320  10.112   7.725  0.0397 -0.4013 -0.2977
  486SOL    HW113436   9.395  10.054   7.716 -0.7621 -1.4080 -0.6104
  486SOL    HW213437   9.303  10.144   7.637  0.0735 -0.2027 -0.2330
  487SOL     OW13438   8.796   7.075   8.254  0.3880  0.0639  0.0748
  487SOL    HW113439   8.778   7.158   8.298  0.6694  0.4565 -0.5527
  487SOL    HW213440   8.873   7.092   8.200  0.3094 -0.5394 -0.2348
  488SOL     OW13441   4.586   7.730   8.400  0.2993  0.4934  0.4164
  488SOL    HW113442   4.632   7.646   8.405  1.7217  1.2606  0.7150
  488SOL    HW213443   4.501   7.713   8.441  0.9534 -0.5601  1.4007
  489SOL     OW13444   9.301   9.223   7.985  0.0043  0.0454  0.1259
  489SOL    HW113445   9.331   9.270   7.907 -2.5250  3.9070  1.1957
  489SOL    HW213446   9.358   9.253   8.055 -0.2435 -0.2697  0.4683
  490SOL     OW13447   9.071   6.839   8.943 -0.3645  0.2178 -0.0653
  490SOL    HW113448   9.083   6.757   8.991 -1.1507  0.0297 -0.1678
  490SOL    HW213449   9.138   6.897   8.978 -0.2595 -0.2455  0.5227
  491SOL     OW13450   2.418   4.433   9.147 -0.0921  0.7912 -0.2353
  491SOL    HW113451   2.384   4.521   9.163 -0.4703  0.7098 -0.5732
  491SOL    HW213452   2.467   4.411   9.226 -0.2144  1.2020 -0.0443
  492SOL     OW13453   5.349   5.862   7.188  0.0013 -0.8296  0.4536
  492SOL    HW113454   5.422   5.875   7.127  0.0077 -0.3313  0.5669
  492SOL    HW213455   5.273   5.899   7.143 -0.6349 -3.1350 -0.5541
  493SOL     OW13456   9.615   4.302   3.294  0.1939  0.2991  0.4006
  493SOL    HW113457   9.671   4.319   3.370  1.3211  1.3856 -0.6443
  493SOL    HW213458   9.674   4.270   3.226 -0.9104 -1.3803  0.1680
  494SOL     OW13459   9.226   2.543   0.043 -0.3728 -0.0858 -0.2897
  494SOL    HW113460   9.225   2.609   0.112  0.2913 -0.4301  0.0539
  494SOL    HW213461   9.315   2.546   0.008 -0.1238 -1.3057  0.2194
  495SOL     OW13462   2.281   0.522   1.601  0.1231 -0.3865 -0.3410
  495SOL    HW113463   2.331   0.515   1.682 -0.7648  0.6641  0.3160
  495SOL    HW213464   2.210   0.582   1.621 -0.7935 -1.0077 -1.5666
  496SOL     OW13465   0.933   6.366   7.775 -0.3657  0.1785 -0.0593
  496SOL    HW113466   0.846   6.405   7.760  0.3092  1.5066 -0.6808
  496SOL    HW213467   0.975   6.369   7.690 -0.4349 -2.4426 -0.2605
  497SOL     OW13468   9.469   7.222   5.889 -0.0485  0.4921  0.3760
  497SOL    HW113469   9.554   7.222   5.933  0.5332  1.7168 -0.7100
  497SOL    HW213470   9.464   7.306   5.844 -1.7381  0.3410  0.1962
  498SOL     OW13471   3.695   0.719   4.605 -0.3574  0.7231 -0.8466
  498SOL    HW113472   3.663   0.734   4.694  2.3543  1.4420  0.0897
  498SOL    HW213473   3.680   0.625   4.590  2.3291 -0.3291  1.8583
  499SOL     OW13474   6.326   8.284   7.792 -0.4992  0.4091 -0.2890
  499SOL    HW113475   6.302   8.373   7.770 -0.0111  0.1892 -1.7921
  499SOL    HW213476   6.405   8.293   7.846 -1.0387  0.8994  0.4467
  500SOL     OW13477   0.001   5.864   8.242  0.5613  0.2252  0.6579
  500SOL    HW113478   0.071   5.921   8.276  0.0464  0.8231  0.7341
  500SOL    HW213479  -0.048   5.837   8.319  2.2368 -2.3520  0.9335
  501SOL     OW13480   2.885   2.626  10.370  0.4137 -0.0540  0.2553
  501SOL    HW113481   2.873   2.554  10.307  2.6402 -2.3250  2.2366
  501SOL    HW213482   2.803   2.629  10.418  0.1946 -1.1431 -0.0163
  502SOL     OW13483   3.992   8.631   3.613 -0.3893  0.3080 -0.2527
  502SOL    HW113484   3.949   8.671   3.689 -1.3251 -0.8355 -0.1566
  502SOL    HW213485   3.993   8.701   3.547 -1.2659  0.7489  0.1786
  503SOL     OW13486   8.592   4.899   9.064  0.2974 -0.2744  0.3087
  503SOL    HW113487   8.581   4.906   9.159 -1.4485 -0.0042  0.1313
  503SOL    HW213488   8.597   4.805   9.048 -0.4346 -0.3668  0.5878
  504SOL     OW13489   2.591   3.605   8.708  0.6734 -0.5369 -0.0196
  504SOL    HW113490   2.581   3.699   8.690  0.4832 -0.6477 -0.5176
  504SOL    HW213491   2.686   3.592   8.715  0.6517 -0.0892  1.3070
  505SOL     OW13492   2.260   4.744   7.595  0.2879  0.6392 -0.1486
  505SOL    HW113493   2.195   4.694   7.546  1.4689 -0.0775 -1.0353
  505SOL    HW213494   2.301   4.679   7.652  1.1931  0.7681 -0.6342
  506SOL     OW13495   7.086   2.936   8.565  0.1817  0.6096 -0.1232
  506SOL    HW113496   7.074   3.007   8.628 -1.4005  1.5524 -1.4069
  506SOL    HW213497   7.039   2.862   8.602  1.1184  0.4675  0.8210
  507SOL     OW13498   6.697   9.454   0.509 -0.4773  0.2933  0.1727
  507SOL    HW113499   6.614   9.501   0.523  0.3744  1.7728  0.4562
  507SOL    HW213500   6.704   9.395   0.584 -0.4495  1.4308  1.0875
  508SOL     OW13501   0.945  10.391   3.770  0.2995 -0.0884  0.0529
  508SOL    HW113502   0.867  10.403   3.824 -0.0117  2.0083 -0.7812
  508SOL    HW213503   1.018  10.392   3.832 -0.1377  1.0343  0.5651
  509SOL     OW13504   9.842   4.379   6.908 -0.3054  0.6652 -0.5301
  509SOL    HW113505   9.838   4.399   6.815 -1.7526  2.2825 -0.1681
  509SOL    HW213506   9.935   4.366   6.926  0.1037  1.3914 -1.9900
  510SOL     OW13507   8.815   3.616   5.593 -0.5338 -0.1880  0.0960
  510SOL    HW113508   8.767   3.536   5.615 -0.3155  0.1485  1.9986
  510SOL    HW213509   8.907   3.593   5.605 -0.3952  0.0271 -0.5148
  511SOL     OW13510   1.113   3.415   7.319  0.1550 -0.4874  0.5581
  511SOL    HW113511   1.048   3.372   7.263 -0.1603 -1.4432  1.6142
  511SOL    HW213512   1.197   3.394   7.278 -0.1582  0.9111 -0.9236
  512SOL     OW13513   7.089   4.368   0.046  0.1749 -0.3407  0.8637
  512SOL    HW113514   7.154   4.332   0.107 -0.0116 -2.0524  0.0998
  512SOL    HW213515   7.007   4.326   0.070  0.1799 -1.3900 -0.8016
  513SOL     OW13516   0.521   6.985   1.587  0.6713  0.3369 -0.2043
  513SOL    HW113517   0.590   7.049   1.603  2.3530 -1.5793  0.7349
  513SOL    HW213518   0.499   6.952   1.674 -0.4871 -0.0191 -0.6203
  514SOL     OW13519   5.996   8.296   4.608  0.2816 -0.1058 -0.2764
  514SOL    HW113520   6.084   8.260   4.617  0.8202  1.1816 -0.0960
  514SOL    HW213521   6.002   8.350   4.529  0.0265  0.9811  0.4303
  515SOL     OW13522   6.039   5.405   3.819  0.5375  0.1630  0.4334
  515SOL    HW113523   6.059   5.327   3.870  0.2413  0.1142  0.4754
  515SOL    HW213524   5.975   5.376   3.755  0.6445  0.3062  0.2604
  516SOL     OW13525   7.891   3.036   8.146 -0.0355  0.0439  0.1651
  516SOL    HW113526   7.815   3.080   8.108 -1.5195 -1.2596  1.4733
  516SOL    HW213527   7.888   3.058   8.239 -0.6906 -2.4651  0.8279
  517SOL     OW13528   3.008   8.570   5.479  0.1039 -0.4480 -0.2554
  517SOL    HW113529   2.990   8.612   5.563 -3.0626  1.4933 -1.7499
  517SOL    HW213530   3.080   8.621   5.443  1.8805 -1.6339  1.3630
  518SOL     OW13531   8.152   0.658   0.995  0.1934 -0.0545 -0.3945
  518SOL    HW113532   8.160   0.632   1.086  0.0883  0.7196 -0.1589
  518SOL    HW213533   8.162   0.754   0.996 -1.2878  0.1389 -1.0023
  519SOL     OW13534   1.456  10.152   2.922 -0.1875 -0.0569 -0.0187
  519SOL    HW113535   1.512  10.089   2.878 -1.0326 -0.8051 -0.0377
  519SOL    HW213536   1.401  10.100   2.980 -0.1118  0.7760  0.8268
  520SOL     OW13537   1.999   0.074   3.007 -0.1056  0.6650 -0.2721
  520SOL    HW113538   2.064   0.109   3.068 -1.1633  1.7842  0.2677
  520SOL    HW213539   2.034   0.097   2.920  1.1161 -0.4145 -0.0833
  521SOL     OW13540   5.224   8.102   0.098  0.3968  0.2424  0.1280
  521SOL    HW113541   5.249   8.060   0.017 -0.1159  1.8944 -0.9459
  521SOL    HW213542   5.252   8.041   0.167  0.9173 -1.1498 -1.2577
  522SOL     OW13543   4.345   1.633   7.504 -0.6330 -0.2162 -0.6429
  522SOL    HW113544   4.419   1.652   7.446  0.0419  0.3824  0.3812
  522SOL    HW213545   4.276   1.692   7.475 -0.0129  0.7092 -0.2959
  523SOL     OW13546   6.058   1.817   0.008 -0.0041  0.5193  0.2357
  523SOL    HW113547   6.059   1.867  -0.074  1.5142  0.8770  0.4322
  523SOL    HW213548   6.143   1.837   0.049 -0.8527  0.6112  2.0568
  524SOL     OW13549   9.656   7.346   7.560 -0.4527 -0.0498 -0.1526
  524SOL    HW113550   9.639   7.275   7.622 -0.4276  0.2110  0.1555
  524SOL    HW213551   9.733   7.390   7.596 -0.8613  0.5392  0.0125
  525SOL     OW13552   8.684   3.730   5.812 -0.3808  0.1049  0.4978
  525SOL    HW113553   8.657   3.803   5.756  0.7591  0.5119  0.4435
  525SOL    HW213554   8.751   3.685   5.761 -0.2670 -0.3059  1.0082
  526SOL     OW13555   2.165   7.059   6.342  0.1528  0.1265 -0.1257
  526SOL    HW113556   2.244   7.077   6.292 -1.2617  0.4424 -2.3545
  526SOL    HW213557   2.157   7.133   6.402  0.6953  0.9030 -0.9862
  527SOL     OW13558   8.696   9.841   8.932 -0.1216  0.1967  0.2237
  527SOL    HW113559   8.768   9.781   8.950 -1.4381 -2.2904 -2.1236
  527SOL    HW213560   8.624   9.809   8.987 -0.3934  0.6048  0.1103
  528SOL     OW13561   2.318   4.209   8.720  0.1611 -0.1875  0.5765
  528SOL    HW113562   2.302   4.180   8.630  0.4275 -0.2080  0.5355
  528SOL    HW213563   2.231   4.231   8.754  0.1459  0.6104  0.0439
  529SOL     OW13564   8.269   3.684   9.548  0.3706 -0.0318  0.1407
  529SOL    HW113565   8.227   3.766   9.523  0.0538 -0.4149 -0.5970
  529SOL    HW213566   8.335   3.668   9.480  0.2168 -0.5460  0.1072
  530SOL     OW13567   6.065   5.904   0.950 -0.4131 -0.0564 -0.4134
  530SOL    HW113568   6.037   5.837   1.011 -1.8133  1.3608  0.6020
  530SOL    HW213569   6.156   5.923   0.974 -0.9949  0.6091  1.4093
  531SOL     OW13570   1.341   8.702   5.396  0.7512 -0.3723  0.2240
  531SOL    HW113571   1.389   8.619   5.391  1.2428 -0.1075  0.5244
  531SOL    HW213572   1.350   8.730   5.487  0.3447 -0.1250  0.1925
  532SOL     OW13573   4.540   1.055   5.561  0.0447 -0.5164  0.0692
  532SOL    HW113574   4.584   1.140   5.553  1.4123 -1.2798 -1.1265
  532SOL    HW213575   4.448   1.076   5.575 -0.0324  1.2265 -2.3614
  533SOL     OW13576   1.478   2.125   0.271 -0.5707 -0.2968  0.4943
  533SOL    HW113577   1.486   2.188   0.342  0.4324 -0.2471  0.3520
  533SOL    HW213578   1.417   2.058   0.304 -1.7380  0.7788  0.6018
  534SOL     OW13579   4.351   4.225   0.859  0.1678 -0.4159 -0.6893
  534SOL    HW113580   4.360   4.130   0.849  0.9262 -0.6033  1.2597
  534SOL    HW213581   4.268   4.237   0.904  1.7090 -0.5222  2.4329
  535SOL     OW13582   0.633   0.254   4.471  0.2378 -0.2064  0.0430
  535SOL    HW113583   0.604   0.269   4.561  0.3395 -0.2964  0.0902
  535SOL    HW213584   0.594   0.170   4.447 -0.2960  0.1072 -0.2075
  536SOL     OW13585   5.156   4.177   3.736 -0.2994 -0.0635 -0.0178
  536SOL    HW113586   5.194   4.089   3.736  0.4616  0.2595 -0.0472
  536SOL    HW213587   5.227   4.234   3.764 -0.3648  0.7152 -1.3298
  537SOL     OW13588   3.763   1.240   6.379  0.5279 -0.4232 -0.3061
  537SOL    HW113589   3.826   1.275   6.442 -0.3185 -0.3863  0.5417
  537SOL    HW213590   3.809   1.167   6.337  0.7973 -1.0281  1.0017
  538SOL     OW13591   4.571   4.414   4.466 -0.0857 -0.0205  0.1183
  538SOL    HW113592   4.662   4.390   4.486 -0.1166  1.1316  1.9405
  538SOL    HW213593   4.555   4.491   4.521 -1.7808  0.5698 -1.1297
  539SOL     OW13594   6.554  10.086  10.121 -0.4482 -0.0693 -0.0848
  539SOL    HW113595   6.580  10.030  10.195  1.6936  1.0327  0.0870
  539SOL    HW213596   6.567  10.176  10.153 -1.5396  0.4830 -1.1124
  540SOL     OW13597   2.226   4.822   4.809 -0.3357 -0.1111 -0.4963
  540SOL    HW113598   2.203   4.888   4.874  1.8308  0.2525 -0.0215
  540SOL    HW213599   2.142   4.786   4.780 -1.7394  3.5732 -1.5803
  541SOL     OW13600   2.942   8.178   3.574  0.3072 -0.0994  0.3628
  541SOL    HW113601   3.009   8.111   3.590 -0.8401 -1.1235  1.0196
  541SOL    HW213602   2.969   8.252   3.628  0.9658 -0.4624  0.5405
  542SOL     OW13603   4.131   9.797   4.085  0.0419  0.0069 -0.5139
  542SOL    HW113604   4.203   9.796   4.022  0.6064  0.6680  0.1058
  542SOL    HW213605   4.055   9.824   4.034  0.5208  0.6708 -0.8896
  543SOL     OW13606   8.644   6.415   3.380  0.3583 -0.3501 -0.1380
  543SOL    HW113607   8.705   6.447   3.447  1.3499  1.6239 -1.8586
  543SOL    HW213608   8.571   6.477   3.382  1.1210  0.6783 -1.8349
  544SOL     OW13609   1.089   8.926   6.678  0.2381  0.2759  0.6590
  544SOL    HW113610   1.124   8.850   6.634 -1.4661  0.7477 -1.7205
  544SOL    HW213611   1.144   8.999   6.648  0.6976  0.2586  1.4351
  545SOL     OW13612   0.509   5.887   1.261  0.1374  0.2238 -0.0654
  545SOL    HW113613   0.467   5.815   1.214 -1.3820  0.2774  1.1038
  545SOL    HW213614   0.601   5.862   1.266 -0.1411 -1.0345 -0.7573
  546SOL     OW13615   3.521   7.073   6.429  0.1415  0.5560 -0.4451
  546SOL    HW113616   3.598   7.016   6.431  0.6877  1.2171 -1.5692
  546SOL    HW213617   3.471   7.042   6.353  0.2963  1.3671 -0.8896
  547SOL     OW13618  10.239   4.527   4.184 -0.2909 -0.2909  0.2191
  547SOL    HW113619  10.271   4.616   4.169 -2.0495  0.4001  0.2779
  547SOL    HW213620  10.238   4.487   4.098 -1.1885  0.3773 -0.0968
  548SOL     OW13621   8.939   3.969   4.506  0.0254  0.2803 -0.2709
  548SOL    HW113622   8.978   4.022   4.436  1.1224 -0.2416 -0.0772
  548SOL    HW213623   9.010   3.956   4.569 -0.5613 -0.4319  0.2660
  549SOL     OW13624   1.178   4.896   7.933  0.4040  0.2921 -0.2292
  549SOL    HW113625   1.144   4.820   7.981 -1.3939  0.8515 -0.5641
  549SOL    HW213626   1.197   4.961   8.001 -0.1446  0.3332 -0.1145
  550SOL     OW13627   3.536   2.823   8.772 -0.4696  0.5446 -0.1499
  550SOL    HW113628   3.576   2.908   8.791 -0.2591  0.1019  1.5968
  550SOL    HW213629   3.463   2.842   8.714 -1.5352  2.1679  1.6279
  551SOL     OW13630   1.338   9.018   7.133  0.5797  0.0004 -0.0437
  551SOL    HW113631   1.249   8.994   7.107  0.1947  0.5976  0.6961
  551SOL    HW213632   1.351   9.106   7.098  0.8169 -0.0118  0.0082
  552SOL     OW13633   8.376   6.693   7.456  0.3202  0.0917 -0.0854
  552SOL    HW113634   8.431   6.708   7.533 -2.4255 -0.5078  2.1436
  552SOL    HW213635   8.351   6.780   7.426 -0.2735  0.3295  1.0489
  553SOL     OW13636   8.636   7.487   7.819  0.1880 -0.0801 -0.1690
  553SOL    HW113637   8.696   7.535   7.762 -0.0377 -0.2478 -0.5524
  553SOL    HW213638   8.692   7.423   7.864  0.7436  1.4348  1.3908
  554SOL     OW13639   3.688   0.458   8.077  0.7195 -0.1287 -0.1636
  554SOL    HW113640   3.783   0.466   8.079  0.7266 -0.2368  1.5675
  554SOL    HW213641   3.668   0.399   8.150 -0.6994  0.2752 -0.2041
  555SOL     OW13642   8.187   0.851   9.644 -0.0851  0.0393 -0.3195
  555SOL    HW113643   8.180   0.855   9.549 -1.5786  0.1391 -0.2370
  555SOL    HW213644   8.192   0.758   9.664 -0.8029 -0.0333 -0.4551
  556SOL     OW13645   1.924   6.275   4.280 -0.0597  0.2393 -0.2334
  556SOL    HW113646   2.002   6.296   4.331 -0.2578  0.1718  0.1055
  556SOL    HW213647   1.881   6.359   4.265 -0.3607  0.1877  0.3106
  557SOL     OW13648   4.748   3.139   0.549  0.2833 -0.0038  0.1725
  557SOL    HW113649   4.830   3.089   0.550  0.5365  0.4171  1.6942
  557SOL    HW213650   4.773   3.224   0.514  0.2465 -0.2677 -0.5124
  558SOL     OW13651   8.354   4.730   3.991 -0.4284  0.4364 -0.0288
  558SOL    HW113652   8.331   4.649   3.945  0.1214  0.8368 -1.0432
  558SOL    HW213653   8.317   4.719   4.079  0.7606 -1.4763  0.2911
  559SOL     OW13654   5.722   8.975   0.182 -0.6082  0.0891 -0.2076
  559SOL    HW113655   5.799   9.006   0.230  0.2611  0.7618 -1.9776
  559SOL    HW213656   5.656   9.043   0.196 -1.0762 -0.6621  1.6201
  560SOL     OW13657   1.693   9.578   4.942  0.3603 -0.9625  0.3538
  560SOL    HW113658   1.706   9.598   5.035  0.6494 -0.4778  0.2068
  560SOL    HW213659   1.624   9.639   4.914  3.6422  2.4992 -0.9907
  561SOL     OW13660   2.443   1.681   5.480 -0.7510  0.2711  0.5377
  561SOL    HW113661   2.457   1.673   5.386  2.4828  1.9549  0.7451
  561SOL    HW213662   2.471   1.770   5.501  0.1169 -0.5505  3.2988
  562SOL     OW13663   7.407   1.747   8.892  0.1086 -0.1618 -0.1953
  562SOL    HW113664   7.455   1.763   8.811  1.1820 -0.3305  0.3862
  562SOL    HW213665   7.439   1.661   8.921 -2.4063 -1.5115 -1.0804
  563SOL     OW13666   9.873   9.918   1.715 -0.2770  0.2194 -0.1936
  563SOL    HW113667   9.834   9.861   1.650  0.3008 -0.2494 -0.1354
  563SOL    HW213668   9.934   9.973   1.666  0.2303 -0.1994 -0.0447
  564SOL     OW13669   3.245   0.525   0.880  0.8581  0.0681 -0.1359
  564SOL    HW113670   3.327   0.545   0.835  1.3437  0.3248  0.8192
  564SOL    HW213671   3.215   0.610   0.913  1.0367 -0.2456  0.8590
  565SOL     OW13672   6.171   8.218  10.050 -0.8975  0.0290  0.2876
  565SOL    HW113673   6.159   8.131  10.010 -2.4950  0.2753  0.1398
  565SOL    HW213674   6.083   8.243  10.077 -0.2132  0.9387  1.7701
  566SOL     OW13675   3.572   7.333   6.226  0.1612 -0.4944  0.2187
  566SOL    HW113676   3.575   7.388   6.148 -2.0615 -0.1484  0.2925
  566SOL    HW213677   3.637   7.371   6.285  0.1073  0.8049 -0.5235
  567SOL     OW13678   2.541   2.275   3.804  0.0429  0.4195 -0.2014
  567SOL    HW113679   2.459   2.324   3.808  0.2547  0.7393  0.3789
  567SOL    HW213680   2.544   2.225   3.885 -0.2031 -0.6323 -0.8180
  568SOL     OW13681   8.039  10.373   6.094 -0.2072  0.2738 -0.1656
  568SOL    HW113682   8.081  10.429   6.160 -1.3338 -0.1296  0.9240
  568SOL    HW213683   8.094  10.294   6.091  0.2280  0.5706 -0.2237
  569SOL     OW13684   4.802   7.417   6.958 -0.5263 -0.9424  0.0851
  569SOL    HW113685   4.782   7.509   6.980 -0.5756 -0.7987 -0.5400
  569SOL    HW213686   4.858   7.387   7.030 -0.7479 -0.5116  0.4473
  570SOL     OW13687   7.917   7.983   2.863  0.8207 -0.0786  0.4153
  570SOL    HW113688   7.857   7.940   2.802  2.1492 -2.2059  0.5044
  570SOL    HW213689   7.958   8.052   2.812 -0.6277  0.4729 -0.0461
  571SOL     OW13690   9.763   0.817   0.018  0.1469  0.0348 -0.4929
  571SOL    HW113691   9.821   0.772   0.080 -1.8519 -0.4980  1.1003
  571SOL    HW213692   9.697   0.859   0.073 -1.0879  0.4815 -2.2204
  572SOL     OW13693   8.765   0.561   7.189 -0.5449 -0.4359  0.5281
  572SOL    HW113694   8.711   0.596   7.119 -0.4315  0.6881  0.9910
  572SOL    HW213695   8.734   0.471   7.200 -1.5248 -0.1759 -0.0056
  573SOL     OW13696   7.397   9.640   8.523 -0.5846 -0.0077 -0.3381
  573SOL    HW113697   7.395   9.731   8.552 -0.2643 -0.0700 -0.1176
  573SOL    HW213698   7.490   9.620   8.512 -0.4779 -0.9833  1.7812
  574SOL     OW13699   8.088   7.008   0.125 -0.2863 -0.1116  0.4551
  574SOL    HW113700   8.012   7.060   0.097  1.1705  1.4518 -0.8173
  574SOL    HW213701   8.129   7.061   0.194 -0.1337 -0.7732  0.8812
  575SOL     OW13702   6.653   5.928   2.494 -0.3705 -0.1252 -0.3187
  575SOL    HW113703   6.714   5.858   2.514  2.2269  1.6054 -1.6267
  575SOL    HW213704   6.596   5.933   2.571  1.5356 -1.4059  1.2835
  576SOL     OW13705   4.432   3.907   2.248 -0.9976 -0.6610  0.2474
  576SOL    HW113706   4.494   3.850   2.201 -2.1709 -0.9299 -1.0391
  576SOL    HW213707   4.465   3.996   2.233 -0.8975 -0.8027 -0.3995
  577SOL     OW13708   5.175   5.156   8.468  0.2039 -0.1637 -0.5321
  577SOL    HW113709   5.210   5.113   8.390  0.2199 -1.0000 -0.0705
  577SOL    HW213710   5.090   5.115   8.483  1.4518 -2.2421  1.6251
  578SOL     OW13711   0.102   7.664   4.319  0.0415  0.4036 -0.1037
  578SOL    HW113712   0.035   7.655   4.386 -1.0789  1.2604 -1.0538
  578SOL    HW213713   0.053   7.660   4.236  1.2857  0.0835 -0.8455
  579SOL     OW13714  10.325   5.525   1.075 -0.4152  0.3565  0.0043
  579SOL    HW113715  10.408   5.481   1.090 -1.7274 -1.8608  1.4482
  579SOL    HW213716  10.334   5.567   0.990  2.6385  1.4422  0.7633
  580SOL     OW13717   2.430   6.753   4.220 -0.2865 -0.0954 -0.3749
  580SOL    HW113718   2.488   6.741   4.296 -0.5670  1.5590  0.1567
  580SOL    HW213719   2.457   6.837   4.183 -1.0121 -0.2769 -1.3523
  581SOL     OW13720   4.610   9.085   4.770 -0.0348  0.1179 -0.0990
  581SOL    HW113721   4.689   9.126   4.735  0.1239  1.5445  1.7783
  581SOL    HW213722   4.538   9.129   4.725  0.1997  0.5270 -0.0785
  582SOL     OW13723   0.650   7.386   5.542 -0.0725 -0.0554  0.2370
  582SOL    HW113724   0.598   7.449   5.591  0.0064 -0.2747  0.5999
  582SOL    HW213725   0.640   7.304   5.589 -0.7953 -0.5007 -0.6639
  583SOL     OW13726   4.731   7.719   6.242 -0.0318  0.3830 -0.4011
  583SOL    HW113727   4.803   7.763   6.288 -0.2049  1.0511 -0.7457
  583SOL    HW213728   4.664   7.787   6.234 -0.6142 -0.1740 -0.2739
  584SOL     OW13729   9.407   7.427  10.180  0.7304  0.4004 -0.4569
  584SOL    HW113730   9.431   7.382  10.261 -0.1347  0.0634 -0.3744
  584SOL    HW213731   9.431   7.518  10.195  0.6030  0.3337  0.1800
  585SOL     OW13732   1.971   1.093   3.077 -0.6119  0.0668 -0.2935
  585SOL    HW113733   2.030   1.048   3.016 -1.4248 -2.3248  0.5447
  585SOL    HW213734   1.890   1.043   3.073 -1.2784  0.9311  1.4248
  586SOL     OW13735   2.282   7.372   9.693 -0.0302  0.2963 -0.4732
  586SOL    HW113736   2.291   7.367   9.598 -0.6748 -0.4029 -0.5057
  586SOL    HW213737   2.226   7.298   9.716  1.1580 -0.3060  0.5999
  587SOL     OW13738   9.697   9.394   0.475 -0.4467 -0.0981 -0.2770
  587SOL    HW113739   9.778   9.445   0.481  0.9462 -2.3129  0.6456
  587SOL    HW213740   9.697   9.360   0.385 -0.1408 -0.4362 -0.1487
  588SOL     OW13741   8.418   0.728   0.001 -0.7072 -0.0001  0.5782
  588SOL    HW113742   8.495   0.707   0.053 -0.0292  0.8800 -0.0409
  588SOL    HW213743   8.384   0.643  -0.027 -0.7590 -0.4565  1.9627
  589SOL     OW13744   7.453   0.742   8.236 -0.3000  0.3094 -0.0290
  589SOL    HW113745   7.541   0.738   8.273 -0.7729 -0.1305  1.1019
  589SOL    HW213746   7.465   0.775   8.147  1.1385 -1.0011 -0.3541
  590SOL     OW13747   5.957   1.281   2.976 -0.4074  0.3956 -0.0999
  590SOL    HW113748   5.970   1.224   3.053 -1.2320  2.2604  1.5123
  590SOL    HW213749   6.033   1.265   2.921  0.6111 -0.4430  1.4752
  591SOL     OW13750   6.173   3.998   2.235 -0.0754 -0.1223  0.6889
  591SOL    HW113751   6.208   3.922   2.283 -0.4493 -0.5085  0.3640
  591SOL    HW213752   6.125   4.047   2.302  1.4418  0.6633  1.2395
  592SOL     OW13753   8.049   6.325   7.402 -0.1264  0.0247 -0.4005
  592SOL    HW113754   8.084   6.317   7.491  2.0070 -1.1029 -1.2619
  592SOL    HW213755   8.046   6.419   7.386 -1.1276  0.2673  1.0624
  593SOL     OW13756   8.931   2.194   2.274  0.0590  0.3789  0.3274
  593SOL    HW113757   8.990   2.139   2.325  0.2270 -4.0434 -3.9081
  593SOL    HW213758   8.989   2.250   2.222  0.5964 -1.8013 -1.5951
  594SOL     OW13759   8.551   6.615   3.912  0.3756 -0.1750 -0.3169
  594SOL    HW113760   8.519   6.615   4.002  0.2447 -0.5656 -0.3605
  594SOL    HW213761   8.496   6.679   3.867  0.2129 -0.2308 -0.1970
  595SOL     OW13762   2.100   9.085   4.947  0.1016  0.0238 -0.4395
  595SOL    HW113763   2.083   9.077   5.041  0.7842 -0.2529 -0.3334
  595SOL    HW213764   2.083   8.998   4.912  3.3433 -0.9538  0.0310
  596SOL     OW13765   6.403   3.641   3.702  0.2405  0.0677  0.7398
  596SOL    HW113766   6.436   3.715   3.754 -1.2851  0.9457  0.5144
  596SOL    HW213767   6.480   3.609   3.655  0.6827  2.4923 -0.3255
  597SOL     OW13768   9.825   1.275   2.972  0.2679 -0.8556  0.0024
  597SOL    HW113769   9.737   1.307   2.990 -0.5806 -3.0047 -0.0470
  597SOL    HW213770   9.877   1.300   3.049  0.0509  1.7271 -0.6007
  598SOL     OW13771   3.874   9.719   4.553  0.1393 -0.2672 -0.0401
  598SOL    HW113772   3.917   9.737   4.470  0.4719 -3.3365 -0.6733
  598SOL    HW213773   3.936   9.665   4.601 -0.8326 -0.1837  1.3803
  599SOL     OW13774   2.817   2.004   8.700  0.0151  0.2143  0.8532
  599SOL    HW113775   2.858   1.917   8.698  0.1877  0.3022  0.1998
  599SOL    HW213776   2.890   2.065   8.694 -0.1307  0.3972  0.9487
  600SOL     OW13777   0.387   7.809   9.232  0.5892 -0.4767 -0.5781
  600SOL    HW113778   0.363   7.825   9.141  0.4336  0.5410 -0.3718
  600SOL    HW213779   0.482   7.824   9.235  0.8038 -1.6667 -0.7992
  601SOL     OW13780   9.446   5.853   1.481 -0.3136 -0.2099  0.2563
  601SOL    HW113781   9.433   5.943   1.452 -0.9645 -0.4358 -0.1666
  601SOL    HW213782   9.496   5.861   1.562  3.1422  0.3542 -1.7399
  602SOL     OW13783   8.041   2.200   6.887 -0.3202 -0.0131 -0.4398
  602SOL    HW113784   7.961   2.204   6.834 -0.0536  0.1332 -0.8370
  602SOL    HW213785   8.104   2.253   6.839  0.4321 -1.2496 -0.8686
  603SOL     OW13786   9.547   4.365   0.863  0.6431  0.0140  0.2533
  603SOL    HW113787   9.615   4.324   0.917 -0.5474 -1.7239  0.5530
  603SOL    HW213788   9.523   4.297   0.800 -1.1836  0.3423  0.5282
  604SOL     OW13789   3.665   8.542   7.454 -0.0095  0.3876 -0.1049
  604SOL    HW113790   3.592   8.604   7.453  0.6596  1.2267 -2.2700
  604SOL    HW213791   3.667   8.506   7.366  0.7491 -1.4031  0.6013
  605SOL     OW13792   5.569   8.826   7.084 -0.3677 -0.2332  0.0371
  605SOL    HW113793   5.533   8.744   7.051 -0.9586 -0.1924  0.5595
  605SOL    HW213794   5.561   8.819   7.179 -1.1987  0.7612  0.0589
  606SOL     OW13795   6.084   5.506   4.923  0.8291  0.1754 -0.2408
  606SOL    HW113796   6.114   5.468   4.840  2.0192 -0.2285  0.3512
  606SOL    HW213797   6.075   5.600   4.905 -0.2050 -0.0751 -1.1700
  607SOL     OW13798   6.285   6.814   8.518 -0.2194  0.2071 -0.1486
  607SOL    HW113799   6.193   6.802   8.541  0.0793 -0.9645  0.4978
  607SOL    HW213800   6.331   6.747   8.568  0.9061  0.2828 -1.0552
  608SOL     OW13801  10.272   4.069   8.665  0.5723  0.1921  0.5476
  608SOL    HW113802  10.212   3.995   8.675 -0.4776  0.9742  0.2953
  608SOL    HW213803  10.248   4.109   8.582  0.5643  1.2843  1.0513
  609SOL     OW13804   1.543   0.637   1.657  0.4637  0.1034 -0.1045
  609SOL    HW113805   1.604   0.695   1.612 -0.0912  0.1427 -0.8133
  609SOL    HW213806   1.566   0.550   1.627  0.9469 -0.0021  0.5510
  610SOL     OW13807   3.347   1.790   5.935  0.0139  0.5884 -0.2908
  610SOL    HW113808   3.364   1.885   5.935  0.9354  0.4406 -1.3402
  610SOL    HW213809   3.358   1.764   6.026 -0.8561  1.5862  0.1275
  611SOL     OW13810   7.290   5.425   6.355  0.4848 -0.0604  0.2049
  611SOL    HW113811   7.201   5.389   6.352  0.4453 -0.2700  2.4561
  611SOL    HW213812   7.330   5.383   6.431  1.7601  1.7168  0.5641
  612SOL     OW13813   1.819   8.073   4.784 -0.7192  0.1791 -0.2574
  612SOL    HW113814   1.874   8.042   4.712 -0.1767 -2.0930  1.0325
  612SOL    HW213815   1.751   8.006   4.792 -0.5573  0.1930  1.5356
  613SOL     OW13816  10.036   5.137   7.775 -0.1050 -0.3508  0.4464
  613SOL    HW113817   9.981   5.107   7.703  0.2646 -0.4295  0.1956
  613SOL    HW213818   9.977   5.188   7.830 -0.0432  1.1232 -0.7770
  614SOL     OW13819   2.373   3.522   0.518 -0.2869 -0.6969 -0.0986
  614SOL    HW113820   2.303   3.586   0.502 -1.3397 -1.7900  0.0484
  614SOL    HW213821   2.413   3.551   0.600 -0.2180  0.2189 -0.4345
  615SOL     OW13822   2.781   3.151   4.887  0.0993  0.2472 -0.5468
  615SOL    HW113823   2.765   3.063   4.853  0.7654  0.2687 -0.9374
  615SOL    HW213824   2.830   3.195   4.817  0.0562  0.8269 -0.2225
  616SOL     OW13825   6.454   6.003   3.806 -0.3089 -0.2305 -0.1983
  616SOL    HW113826   6.499   6.084   3.781  0.3882 -0.9485 -1.3913
  616SOL    HW213827   6.490   5.937   3.746 -1.4989 -1.2426  0.1713
  617SOL     OW13828   1.153   3.786   5.071 -0.2072 -0.5229  0.6069
  617SOL    HW113829   1.101   3.742   5.005 -0.9384  0.8262  0.2376
  617SOL    HW213830   1.097   3.786   5.149 -0.1609 -0.3569  0.6406
  618SOL     OW13831   8.891   1.819   1.890  0.1471 -0.0324 -0.7446
  618SOL    HW113832   8.959   1.752   1.890  0.3372  0.1555  0.4772
  618SOL    HW213833   8.859   1.820   1.799  0.7387 -1.1568 -0.9789
  619SOL     OW13834   2.002   8.653   8.587 -0.3524  0.3576 -0.0296
  619SOL    HW113835   1.918   8.611   8.604 -0.3467 -0.2278 -1.3343
  619SOL    HW213836   1.981   8.727   8.530 -0.2387  1.6155  1.4796
  620SOL     OW13837   4.325   1.199   6.639  0.0322  0.1455 -0.0064
  620SOL    HW113838   4.252   1.231   6.692 -0.7787 -1.1904 -0.2773
  620SOL    HW213839   4.284   1.163   6.560  1.0756  0.3421 -0.6606
  621SOL     OW13840   6.531  10.204   8.798  0.2506  0.7135  0.1761
  621SOL    HW113841   6.496  10.240   8.717  1.0412 -0.8355 -0.9185
  621SOL    HW213842   6.609  10.155   8.770 -0.2119 -0.9853  1.6520
  622SOL     OW13843   2.667   5.971   6.373 -0.0527  1.0996 -0.0313
  622SOL    HW113844   2.668   5.930   6.287  0.1774  0.6407  0.1875
  622SOL    HW213845   2.675   5.898   6.434  0.9349  1.5101  0.3459
  623SOL     OW13846   4.415   0.977   8.896  0.6029 -0.4350 -0.1718
  623SOL    HW113847   4.481   1.033   8.936  0.6011 -0.0041 -0.7771
  623SOL    HW213848   4.337   0.990   8.951  0.6673 -0.0209 -0.1770
  624SOL     OW13849   2.322   2.885   9.857  0.0928 -0.2032  0.0108
  624SOL    HW113850   2.324   2.914   9.766  1.4629  4.2083  1.2161
  624SOL    HW213851   2.248   2.932   9.896  2.1535  1.6145  2.0281
  625SOL     OW13852   0.624   9.951   0.838  0.1718 -0.8220 -0.5425
  625SOL    HW113853   0.677   9.899   0.778  0.7666 -0.5177 -0.2862
  625SOL    HW213854   0.660   9.933   0.924  1.4876  1.2714 -0.5874
  626SOL     OW13855   9.825   2.272   4.998 -0.4650  0.3334  0.1408
  626SOL    HW113856   9.751   2.328   4.975 -0.1140  0.5994 -0.3518
  626SOL    HW213857   9.807   2.189   4.955 -1.4549 -0.2674  1.6317
  627SOL     OW13858   9.951   5.178   9.944  0.4882  0.1269 -0.5481
  627SOL    HW113859   9.954   5.231  10.023  1.2838 -0.6578 -0.0458
  627SOL    HW213860   9.863   5.141   9.943  0.0549  1.1135 -0.6983
  628SOL     OW13861   4.972   0.645   4.680  0.0297  0.2841 -0.6309
  628SOL    HW113862   5.007   0.563   4.647 -0.4844  0.7588 -2.4220
  628SOL    HW213863   4.879   0.628   4.697 -0.5682  0.9836 -2.9208
  629SOL     OW13864   9.732   1.546   7.870 -0.3226  0.7895  0.2379
  629SOL    HW113865   9.712   1.594   7.790 -2.8721 -0.6482 -0.0804
  629SOL    HW213866   9.772   1.465   7.840 -1.1988  0.2876  0.4022
  630SOL     OW13867   4.668   4.038   7.292  0.3072 -0.4029 -0.0630
  630SOL    HW113868   4.727   4.090   7.238  1.4075 -0.5620  0.9529
  630SOL    HW213869   4.629   4.101   7.352 -0.1446 -0.3881 -0.3679
  631SOL     OW13870   9.452   9.672   8.620 -0.3734  0.0871  0.4434
  631SOL    HW113871   9.467   9.668   8.714  1.2090  0.8847  0.2496
  631SOL    HW213872   9.413   9.587   8.598  1.3352 -1.0026  1.4674
  632SOL     OW13873   2.737   8.808   2.828 -0.3398 -0.1904 -0.1143
  632SOL    HW113874   2.668   8.875   2.821  0.6123  0.6671 -2.0460
  632SOL    HW213875   2.789   8.835   2.904 -0.2742  0.9862 -0.5563
  633SOL     OW13876   9.543   2.564   5.584 -0.2898  0.3969 -0.3824
  633SOL    HW113877   9.492   2.555   5.664 -1.2458 -1.0526 -1.1090
  633SOL    HW213878   9.634   2.553   5.611 -0.6387 -0.6216  0.4397
  634SOL     OW13879   3.244  10.022   0.646  0.4764  0.6248 -0.0088
  634SOL    HW113880   3.151  10.041   0.652  0.1022 -0.9202 -0.3178
  634SOL    HW213881   3.277  10.083   0.580 -0.9296 -0.6789 -2.0341
  635SOL     OW13882   1.281   2.831   4.092 -0.1862  0.5952 -0.1514
  635SOL    HW113883   1.352   2.784   4.134 -1.1339  0.3896  1.2886
  635SOL    HW213884   1.230   2.868   4.164 -2.0152  0.0203 -1.0823
  636SOL     OW13885   6.466   3.451   9.375 -0.8779 -0.0329  0.5629
  636SOL    HW113886   6.481   3.392   9.449 -2.7025  0.5576  1.4681
  636SOL    HW213887   6.553   3.471   9.341 -0.1024 -1.5450  1.5755
  637SOL     OW13888   8.617   3.892   6.493  0.4675 -0.0231  0.0343
  637SOL    HW113889   8.705   3.881   6.457  0.2172 -0.3176 -0.4898
  637SOL    HW213890   8.604   3.986   6.495  0.9991  0.0490  0.6219
  638SOL     OW13891   2.070   4.904   8.412 -0.3479 -0.1129  0.5689
  638SOL    HW113892   2.110   4.948   8.488 -0.3631 -0.8661  1.0288
  638SOL    HW213893   2.004   4.846   8.451  0.7136 -1.6738  0.1188
  639SOL     OW13894   6.820   6.154   9.533 -0.3356  0.3098  0.0662
  639SOL    HW113895   6.738   6.177   9.575  0.4914 -0.0766  1.9995
  639SOL    HW213896   6.882   6.144   9.605  1.3259  0.2322 -1.3087
  640SOL     OW13897   5.252   2.846   2.139 -0.3811 -0.6160  0.0701
  640SOL    HW113898   5.233   2.791   2.216 -1.5258 -0.5034 -0.1170
  640SOL    HW213899   5.173   2.899   2.127 -0.4980 -1.1125 -1.5842
  641SOL     OW13900   9.196   9.865   2.269  0.5827  0.4885  0.1647
  641SOL    HW113901   9.177   9.941   2.214  1.1562  1.7266  1.5960
  641SOL    HW213902   9.254   9.811   2.216  1.0579  1.5902 -0.4812
  642SOL     OW13903   1.442   2.461   3.643  0.7115 -0.2040  0.4241
  642SOL    HW113904   1.462   2.532   3.582  1.0561 -0.2463  0.4880
  642SOL    HW213905   1.354   2.431   3.616 -0.8848  2.3212  2.3780
  643SOL     OW13906   9.881   2.789   4.876  0.0390  0.4990  0.1461
  643SOL    HW113907   9.872   2.822   4.965  0.5901 -1.9715  1.2098
  643SOL    HW213908   9.794   2.754   4.855  0.6467 -1.7638  1.0425
  644SOL     OW13909   3.920   0.066   4.505  0.3293 -0.0722 -0.0605
  644SOL    HW113910   3.965   0.130   4.450 -0.6862 -0.0757 -0.9349
  644SOL    HW213911   3.949   0.086   4.594 -0.2053  1.8418 -0.2714
  645SOL     OW13912   9.607   8.118   8.577  0.3003 -0.6296 -0.2132
  645SOL    HW113913   9.582   8.163   8.658  1.3877  0.5496 -0.5072
  645SOL    HW213914   9.663   8.045   8.606  1.7514  0.5443  0.0595
  646SOL     OW13915   9.077   5.178   0.793  0.0532 -0.4460  0.3833
  646SOL    HW113916   9.154   5.170   0.736  1.4933 -1.0239  2.2968
  646SOL    HW213917   9.100   5.249   0.854 -0.0461 -1.9171  2.2126
  647SOL     OW13918  10.263   7.068   1.353 -0.1596 -0.1819  0.2052
  647SOL    HW113919  10.277   7.139   1.415 -0.2041  0.3972 -0.4356
  647SOL    HW213920  10.171   7.074   1.329 -0.4029 -1.0519  0.8463
  648SOL     OW13921   3.368   4.484   5.953 -0.3293 -0.4246  0.3960
  648SOL    HW113922   3.381   4.527   5.868  0.1490 -1.2282  0.0415
  648SOL    HW213923   3.361   4.556   6.016  1.5462  0.1945 -0.0122
  649SOL     OW13924   3.016   2.696   2.607  0.0272  0.0277  0.0022
  649SOL    HW113925   3.041   2.617   2.656 -0.3750  0.1572  0.4164
  649SOL    HW213926   2.932   2.673   2.567  0.2039  0.0344 -0.3851
  650SOL     OW13927   5.698  10.384   1.910  0.1565 -0.1837  0.3317
  650SOL    HW113928   5.619  10.334   1.930  0.0317 -0.3419 -0.5129
  650SOL    HW213929   5.747  10.386   1.992 -0.0703 -1.2605  0.5044
  651SOL     OW13930  10.307   4.252   3.514  0.4508  0.6698  0.4819
  651SOL    HW113931  10.313   4.189   3.586 -1.5559  1.6024  1.5688
  651SOL    HW213932  10.219   4.289   3.522  0.1317  0.8233 -2.4956
  652SOL     OW13933   6.696   8.608   2.226  0.4055 -0.3638 -0.2892
  652SOL    HW113934   6.769   8.668   2.215  1.1373 -1.4008 -1.4267
  652SOL    HW213935   6.627   8.645   2.170  0.1145  0.5044  0.6242
  653SOL     OW13936   3.528   7.236   1.878  0.0063  0.2654 -0.1123
  653SOL    HW113937   3.583   7.218   1.802 -0.4445 -0.6078 -0.2317
  653SOL    HW213938   3.572   7.310   1.921  0.9056  0.0211 -0.5742
  654SOL     OW13939   0.062   3.746   5.673 -0.1021  0.0944  0.1022
  654SOL    HW113940   0.094   3.669   5.626 -0.9542 -0.0045 -0.3249
  654SOL    HW213941   0.126   3.814   5.654  0.3084 -0.3304 -0.0479
  655SOL     OW13942   6.075   3.083   4.398 -0.5468  0.1813  0.3796
  655SOL    HW113943   6.000   3.037   4.361  0.2530  0.1950 -1.3235
  655SOL    HW213944   6.125   3.114   4.323  1.3638 -0.1076  1.4433
  656SOL     OW13945   1.265   6.411   1.860  0.5219  0.3086 -0.2612
  656SOL    HW113946   1.177   6.437   1.836  0.5662 -0.0950 -0.8893
  656SOL    HW213947   1.319   6.487   1.840 -0.0615  1.7601  3.0409
  657SOL     OW13948   4.370   5.056   7.604  0.1659  0.6672  0.0279
  657SOL    HW113949   4.366   5.027   7.695 -0.9167 -0.9285 -0.4888
  657SOL    HW213950   4.311   5.132   7.600 -1.1874 -0.3283  0.3169
  658SOL     OW13951   1.108   2.635   3.653  0.1852 -0.8055  0.1578
  658SOL    HW113952   1.102   2.550   3.608 -0.5931 -0.5176 -0.3030
  658SOL    HW213953   1.188   2.675   3.619  1.0320 -1.6988  1.0114
  659SOL     OW13954   4.662   2.382   9.226 -0.2842 -0.0753 -0.3876
  659SOL    HW113955   4.598   2.424   9.168 -0.1871  1.3993  0.5417
  659SOL    HW213956   4.622   2.298   9.248 -0.8641 -0.1491 -1.6133
  660SOL     OW13957   4.876   4.575   2.621  0.2871 -0.2713 -0.3178
  660SOL    HW113958   4.945   4.603   2.681  0.8480 -0.5931 -0.8073
  660SOL    HW213959   4.797   4.570   2.676  0.6726 -0.0106  0.2683
  661SOL     OW13960   8.371   0.774   2.425  0.8486  0.0549 -0.3486
  661SOL    HW113961   8.441   0.744   2.484  2.8287  0.8549 -2.1328
  661SOL    HW213962   8.298   0.795   2.483  2.2725 -0.2942  1.6953
  662SOL     OW13963   0.169   6.668   3.584 -0.5210  0.1249  0.4078
  662SOL    HW113964   0.141   6.696   3.671 -0.1530 -0.2409  0.6410
  662SOL    HW213965   0.095   6.616   3.551 -0.8844  0.7041  0.2795
  663SOL     OW13966   1.607   7.657   0.241  0.3822 -0.2666  0.4285
  663SOL    HW113967   1.697   7.664   0.272  0.7004 -0.7009 -0.3712
  663SOL    HW213968   1.602   7.718   0.167  0.9945 -2.5815 -1.6590
  664SOL     OW13969   2.952   5.416   8.849 -0.2311 -0.4405  0.4485
  664SOL    HW113970   2.993   5.330   8.843  0.0855 -0.2330 -0.5344
  664SOL    HW213971   2.904   5.426   8.767  0.4768  0.6865  0.1444
  665SOL     OW13972   6.145   6.848  10.280 -0.1780  0.0962  0.1382
  665SOL    HW113973   6.196   6.916  10.235 -2.1491  1.3107 -0.3445
  665SOL    HW213974   6.175   6.766  10.239  0.9375  0.8207 -0.5603
  666SOL     OW13975   4.777  10.258   9.349 -0.1403 -0.2985  0.2229
  666SOL    HW113976   4.805  10.328   9.409 -1.7860  1.2616 -0.6909
  666SOL    HW213977   4.712  10.209   9.399  0.0070 -0.3057  0.4096
  667SOL     OW13978   5.164   4.621   7.875  0.0325  0.1152 -0.4565
  667SOL    HW113979   5.092   4.597   7.934 -0.5980  0.6620 -0.9877
  667SOL    HW213980   5.162   4.555   7.806  0.5464 -0.3222 -0.0595
  668SOL     OW13981   9.912   9.924   9.417 -0.4096 -0.0247 -0.1299
  668SOL    HW113982   9.833   9.963   9.454 -0.6778 -0.0766 -0.6436
  668SOL    HW213983   9.920   9.964   9.330 -1.3263 -1.9514 -1.1556
  669SOL     OW13984   0.123   5.584   4.026  0.1542  0.3645 -0.2914
  669SOL    HW113985   0.069   5.650   3.981 -0.5405  0.3189  0.4488
  669SOL    HW213986   0.212   5.601   3.995 -0.4062 -0.3211 -2.4914
  670SOL     OW13987   6.422   5.599   3.896  0.6231 -0.3455  0.2037
  670SOL    HW113988   6.390   5.600   3.806  2.4726  0.4630 -0.4901
  670SOL    HW213989   6.508   5.558   3.890  0.4547 -0.9768  1.7370
  671SOL     OW13990   5.184   5.605   6.233 -0.5518 -0.2519 -0.2331
  671SOL    HW113991   5.158   5.696   6.243  0.9832  0.1768  0.2457
  671SOL    HW213992   5.175   5.567   6.320 -2.2216 -0.8840 -0.6492
  672SOL     OW13993   7.387   7.060   6.202  0.0836 -0.4080 -0.5988
  672SOL    HW113994   7.392   7.118   6.126 -0.0811  0.4320  0.0227
  672SOL    HW213995   7.369   6.973   6.164 -3.7781  0.5349 -1.3890
  673SOL     OW13996   5.721   4.985   6.729 -0.2593  0.5051 -0.1295
  673SOL    HW113997   5.694   4.965   6.819  0.7270 -1.3780 -0.1920
  673SOL    HW213998   5.726   5.080   6.726 -0.5397  0.6261  1.7509
  674SOL     OW13999   3.742   6.118   6.467 -0.1211  0.3222  0.4918
  674SOL    HW114000   3.699   6.104   6.551  0.2842  0.6811  0.7655
  674SOL    HW214001   3.680   6.084   6.402  0.4003 -1.9049  1.0441
  675SOL     OW14002   1.392   9.500   4.068  0.2495 -0.4697  0.1222
  675SOL    HW114003   1.383   9.533   4.157  0.3800  1.5275 -0.5334
  675SOL    HW214004   1.486   9.489   4.056  0.3258  0.3018 -0.0767
  676SOL     OW14005   2.003  10.113   4.115  0.0969 -0.1655  0.7999
  676SOL    HW114006   2.022  10.040   4.173  2.4288  1.0242  1.6213
  676SOL    HW214007   2.086  10.157   4.102 -1.1451  2.1312 -0.0233
  677SOL     OW14008   5.123   6.578   9.328 -0.1517 -0.9704 -0.2110
  677SOL    HW114009   5.076   6.659   9.307 -0.0480 -0.8568 -0.0109
  677SOL    HW214010   5.133   6.581   9.423 -0.1993 -1.2476 -0.1960
  678SOL     OW14011   7.230   0.553  10.110  0.0597  0.1035 -0.3196
  678SOL    HW114012   7.313   0.505  10.117  0.6784  1.2963  1.1290
  678SOL    HW214013   7.163   0.487  10.127  0.7842 -0.6193 -0.2085
  679SOL     OW14014  10.378   4.810   1.111 -0.2210  1.0391  0.5828
  679SOL    HW114015  10.464   4.797   1.072 -0.5977 -0.4319  0.2149
  679SOL    HW214016  10.336   4.876   1.055 -0.1482  0.1492 -0.5353
  680SOL     OW14017   2.962   0.045   0.460  0.1633 -0.0419  0.0789
  680SOL    HW114018   3.034   0.068   0.402  0.8273 -2.0007  0.0587
  680SOL    HW214019   2.982  -0.044   0.489 -0.3953  0.6769  2.9476
  681SOL     OW14020   9.049   7.110   8.176  0.3736  0.0240  0.1178
  681SOL    HW114021   9.078   7.018   8.179  0.0510 -0.1549 -1.5248
  681SOL    HW214022   9.130   7.160   8.180  0.8033 -0.4251 -1.7897
  682SOL     OW14023   8.019   9.798   1.735 -0.2115 -0.2104  0.0646
  682SOL    HW114024   7.968   9.729   1.692  0.7956 -1.5376  0.9022
  682SOL    HW214025   8.110   9.773   1.720  0.1869  1.0538  0.2463
  683SOL     OW14026   6.215   7.539   6.497 -0.2890 -0.1785  0.3161
  683SOL    HW114027   6.163   7.619   6.505 -2.2507 -1.3276 -0.1791
  683SOL    HW214028   6.245   7.538   6.406 -0.4954 -0.1392  0.2469
  684SOL     OW14029   1.713   1.980   7.540  0.7359 -0.0460  0.1230
  684SOL    HW114030   1.660   1.952   7.615 -0.0243 -0.6478 -0.6060
  684SOL    HW214031   1.776   1.909   7.528  3.7343  1.9450  2.7596
  685SOL     OW14032   8.453   0.187   2.686 -0.5498  0.0416 -0.4778
  685SOL    HW114033   8.452   0.224   2.597  2.5686  2.3263  0.2455
  685SOL    HW214034   8.512   0.112   2.680 -1.1687 -0.4423 -0.5326
  686SOL     OW14035   1.984   6.160   9.819  0.2560  0.1446 -0.0918
  686SOL    HW114036   1.996   6.243   9.773  2.2375 -0.3177 -0.4924
  686SOL    HW214037   1.980   6.185   9.911 -1.5691  0.8717 -0.3221
  687SOL     OW14038   2.545   5.538   9.224 -0.2292  0.6437 -0.1405
  687SOL    HW114039   2.542   5.583   9.140 -1.7682  0.2848 -0.3017
  687SOL    HW214040   2.592   5.598   9.282  0.9369  0.8410 -1.2700
  688SOL     OW14041   8.677   6.066   8.111 -0.6932 -0.2152  0.4571
  688SOL    HW114042   8.671   6.020   8.027 -2.2993  2.0131 -0.7555
  688SOL    HW214043   8.621   6.017   8.170 -2.0061 -0.1176 -0.6663
  689SOL     OW14044   2.061   5.711   9.093  0.7072  0.1837  0.3841
  689SOL    HW114045   2.000   5.657   9.042 -1.9799  1.3128  2.1816
  689SOL    HW214046   2.054   5.678   9.182  0.7931  1.9464  1.0878
  690SOL     OW14047   9.865   4.209   6.590 -0.0954  0.2004  0.8801
  690SOL    HW114048   9.856   4.303   6.607 -0.3091  0.1625  0.9807
  690SOL    HW214049   9.931   4.204   6.522 -1.2676  0.5352 -0.3308
  691SOL     OW14050   0.038   2.125   2.807  0.0187 -0.2748  0.2088
  691SOL    HW114051   0.018   2.052   2.865  0.4707  0.9818  2.0317
  691SOL    HW214052   0.070   2.194   2.865  0.6542  1.0076 -1.5657
  692SOL     OW14053   4.537   3.799   9.391  0.1855 -0.6845 -0.0828
  692SOL    HW114054   4.566   3.857   9.461  0.5467 -0.3056 -0.5386
  692SOL    HW214055   4.576   3.715   9.412 -2.2933 -1.4543  1.9045
  693SOL     OW14056   8.188   0.735   3.951 -0.4578  0.0563 -0.0820
  693SOL    HW114057   8.118   0.799   3.935  0.3988  1.7256  2.3165
  693SOL    HW214058   8.244   0.776   4.017  2.0644 -1.7904 -0.9055
  694SOL     OW14059   4.529   7.584   3.547  0.8278  0.0691 -0.3108
  694SOL    HW114060   4.434   7.572   3.551  0.6568  1.4843  2.0742
  694SOL    HW214061   4.565   7.496   3.539 -0.6572 -0.6688  0.7124
  695SOL     OW14062   7.610   8.386   1.886 -0.5899 -0.1429  0.0006
  695SOL    HW114063   7.595   8.310   1.942  0.0052 -0.1191  0.2023
  695SOL    HW214064   7.700   8.412   1.904 -0.3765 -0.1473 -0.9960
  696SOL     OW14065   1.947   1.458   0.649 -0.4518 -0.7285 -0.1647
  696SOL    HW114066   1.917   1.391   0.710 -2.6316  0.5982  0.3211
  696SOL    HW214067   1.989   1.409   0.578 -1.4382 -2.5678  0.4502
  697SOL     OW14068   5.799   5.742   8.421 -0.1175  0.0092  0.2446
  697SOL    HW114069   5.735   5.813   8.428  0.3280  0.3201  1.2410
  697SOL    HW214070   5.817   5.716   8.511  0.4417 -0.7279 -0.0691
  698SOL     OW14071   2.285   1.001   5.254 -0.1463  0.5562 -0.0397
  698SOL    HW114072   2.290   1.023   5.161 -2.2368  1.4366 -0.0083
  698SOL    HW214073   2.200   1.037   5.282 -0.8261 -2.0652  1.5808
  699SOL     OW14074   6.370   7.249   6.072 -0.2492 -0.3156  0.1030
  699SOL    HW114075   6.312   7.323   6.058  0.7076  0.4432  0.0993
  699SOL    HW214076   6.387   7.249   6.166 -1.4204 -1.4451  0.3509
  700SOL     OW14077   5.100   1.032   8.384  0.1594 -0.0428 -0.1507
  700SOL    HW114078   5.057   0.978   8.450  0.0678 -0.7347 -0.7638
  700SOL    HW214079   5.170   0.977   8.349  0.0429  0.2167 -0.8051
  701SOL     OW14080   8.537   8.118   2.411  0.8891  0.5994 -0.5691
  701SOL    HW114081   8.484   8.183   2.365 -1.7787 -0.7101  0.4825
  701SOL    HW214082   8.544   8.045   2.349  1.1162  0.6035 -0.5483
  702SOL     OW14083   2.467   3.135   6.181 -0.0289 -0.2179  0.0894
  702SOL    HW114084   2.459   3.157   6.089  0.5720  3.4149  0.7495
  702SOL    HW214085   2.553   3.167   6.207 -1.3056  1.6705  2.4757
  703SOL     OW14086  10.115   9.734   5.434 -0.1563 -0.0484 -0.1142
  703SOL    HW114087  10.197   9.781   5.416  0.0223 -0.6084 -0.7784
  703SOL    HW214088  10.123   9.651   5.387 -1.0103 -0.2145  0.0083
  704SOL     OW14089   6.100   7.871   2.141 -0.1692 -0.1908  0.1273
  704SOL    HW114090   6.120   7.939   2.077 -0.9884 -0.3738 -0.3335
  704SOL    HW214091   6.007   7.851   2.127 -0.2284 -0.5937  1.0300
  705SOL     OW14092   9.229   1.313   2.455  0.4122  0.4433 -0.1182
  705SOL    HW114093   9.184   1.332   2.373 -1.2138 -0.7229  0.4642
  705SOL    HW214094   9.194   1.377   2.517  0.1678  0.0542  0.1440
  706SOL     OW14095   4.310   8.584   9.978 -0.5212  0.0795 -0.1118
  706SOL    HW114096   4.351   8.616  10.058 -0.0623  1.1555 -0.7635
  706SOL    HW214097   4.361   8.507   9.954 -0.4271 -0.0294  0.4135
  707SOL     OW14098   1.980   9.575   9.726 -0.0736  0.2365  0.1249
  707SOL    HW114099   2.042   9.502   9.735  0.0602  0.2896 -0.3756
  707SOL    HW214100   1.993   9.607   9.637 -1.9780 -0.8085 -0.5970
  708SOL     OW14101   9.975   9.164  10.052  0.2063 -0.0395  0.4931
  708SOL    HW114102  10.006   9.251  10.029 -2.3895  0.7977 -0.1487
  708SOL    HW214103   9.929   9.176  10.135 -0.9593 -0.5708 -0.0476
  709SOL     OW14104   8.076   8.917   4.519 -0.0389  0.3997  0.3435
  709SOL    HW114105   8.102   8.933   4.428 -2.2371  0.3231 -0.3338
  709SOL    HW214106   8.039   8.829   4.519  1.0003 -0.0891  1.6035
  710SOL     OW14107   7.777   3.151   6.702 -0.2755 -0.0827  0.1850
  710SOL    HW114108   7.685   3.148   6.730 -0.6435 -0.3704 -1.0111
  710SOL    HW214109   7.773   3.180   6.611  0.8865  0.7891  0.3971
  711SOL     OW14110  10.027   5.581   9.249  0.0313  0.6935  0.1257
  711SOL    HW114111  10.001   5.662   9.205  0.2586  0.7762  0.1433
  711SOL    HW214112  10.024   5.602   9.342 -0.0044  0.6518  0.1343
  712SOL     OW14113   3.886   6.654   5.389 -0.2882 -0.1303 -0.3302
  712SOL    HW114114   3.896   6.696   5.474  2.9467 -0.5347 -0.3715
  712SOL    HW214115   3.858   6.565   5.409 -0.3048  0.0040  0.2671
  713SOL     OW14116   4.289   8.054   9.155  0.1673  0.0562 -0.0738
  713SOL    HW114117   4.301   8.005   9.236 -0.0655 -0.1314 -0.1504
  713SOL    HW214118   4.202   8.095   9.164 -0.5731 -1.2657 -0.8911
  714SOL     OW14119   7.191   4.800   8.745  0.2535  0.2048  0.8226
  714SOL    HW114120   7.198   4.888   8.782  0.5118 -0.2622  1.9244
  714SOL    HW214121   7.275   4.759   8.765 -0.4974 -0.8828  1.9332
  715SOL     OW14122   4.027   3.140   5.408 -0.7134 -0.5473  0.1053
  715SOL    HW114123   4.089   3.072   5.433 -1.4512 -0.9336  0.9398
  715SOL    HW214124   3.961   3.140   5.478 -0.7372  1.0161  0.1294
  716SOL     OW14125   7.537   1.558   2.686 -0.4097  0.2027 -0.3463
  716SOL    HW114126   7.497   1.639   2.653  1.4404  1.1946 -0.3159
  716SOL    HW214127   7.536   1.499   2.611  0.5354  1.1876 -1.1843
  717SOL     OW14128   3.382   7.337   4.637 -0.7001 -0.3998  0.3005
  717SOL    HW114129   3.409   7.428   4.624 -0.5093  0.0310  3.0234
  717SOL    HW214130   3.456   7.286   4.604  0.0600  0.5127  0.5211
  718SOL     OW14131   1.542   2.175   8.287 -0.1552 -0.6760 -0.2125
  718SOL    HW114132   1.588   2.129   8.358 -0.6178 -2.6554 -1.1342
  718SOL    HW214133   1.603   2.244   8.261  0.8657 -1.1412  0.8078
  719SOL     OW14134  10.273   5.557   9.976  0.1689 -0.4214 -0.4237
  719SOL    HW114135  10.321   5.638   9.994 -0.4461 -0.1481  0.0293
  719SOL    HW214136  10.334   5.504   9.925  1.8098 -1.0112  2.0068
  720SOL     OW14137   3.583   4.657   2.376  0.7788 -0.1465 -0.5085
  720SOL    HW114138   3.504   4.605   2.386  1.2744 -0.8046  0.0915
  720SOL    HW214139   3.555   4.735   2.327 -0.4827  0.1885  0.6744
  721SOL     OW14140   2.993   1.091   4.456  0.2927  0.3267 -0.4479
  721SOL    HW114141   2.912   1.097   4.506  1.3830 -0.2692  1.4822
  721SOL    HW214142   2.967   1.108   4.366 -1.9165  0.4420  0.1652
  722SOL     OW14143   6.092   2.804   9.346 -0.0644 -0.3088  0.4396
  722SOL    HW114144   6.056   2.795   9.258  1.5091  1.0059 -0.3992
  722SOL    HW214145   6.186   2.800   9.333  0.2519 -4.2303  2.6159
  723SOL     OW14146   7.586   5.697   8.983 -0.0073 -0.1947  0.3499
  723SOL    HW114147   7.604   5.771   8.925 -1.6297 -0.1979 -0.2176
  723SOL    HW214148   7.493   5.705   9.004  0.1079 -1.2942  1.3989
  724SOL     OW14149   0.952   5.506   6.924 -0.3349 -0.0944 -0.0981
  724SOL    HW114150   0.991   5.465   7.001 -0.4455 -0.4184 -0.2118
  724SOL    HW214151   1.024   5.556   6.885 -0.1540 -0.3110 -0.0480
  725SOL     OW14152   0.586   2.329   1.590  0.2961  0.2222  0.3087
  725SOL    HW114153   0.547   2.341   1.677 -0.7027 -1.0938  0.0716
  725SOL    HW214154   0.529   2.379   1.532  1.3544  1.6669  0.4665
  726SOL     OW14155   5.074   0.116  10.123 -0.5719 -0.2576 -0.2169
  726SOL    HW114156   5.123   0.034  10.133 -1.4875 -0.7908  0.0485
  726SOL    HW214157   4.990   0.089  10.085 -0.8607  0.5685 -0.1795
  727SOL     OW14158   4.036   8.238   0.080  0.5970  0.5712  0.2155
  727SOL    HW114159   4.114   8.291   0.064 -0.5475  1.8937 -1.3448
  727SOL    HW214160   3.971   8.272   0.018 -1.5231  0.1638  2.1080
  728SOL     OW14161   7.240   3.320   7.387 -0.5078 -0.1735 -0.4418
  728SOL    HW114162   7.147   3.322   7.407 -0.1850  0.8911  1.1118
  728SOL    HW214163   7.248   3.366   7.304 -1.1629  1.8445  0.5427
  729SOL     OW14164   2.741   0.790   4.661 -0.2080 -0.4206 -0.8682
  729SOL    HW114165   2.802   0.776   4.733 -0.8425 -0.6601 -0.3646
  729SOL    HW214166   2.690   0.709   4.657 -2.2619  0.6932  0.4625
  730SOL     OW14167   6.851   0.667   2.102 -0.1626 -0.2222  0.0905
  730SOL    HW114168   6.918   0.621   2.152  0.3370 -0.2613 -0.5949
  730SOL    HW214169   6.897   0.741   2.062 -0.3901 -0.5760 -0.8488
  731SOL     OW14170   8.473   7.572   8.813  0.1955  0.0878 -0.0511
  731SOL    HW114171   8.543   7.524   8.858  0.3849  0.3164 -0.0998
  731SOL    HW214172   8.462   7.525   8.730  0.2153 -0.0166  0.0047
  732SOL     OW14173   0.506   9.874   2.068 -0.0766 -0.0791  0.1500
  732SOL    HW114174   0.513   9.953   2.014 -1.7607  0.2007  0.2688
  732SOL    HW214175   0.420   9.882   2.109 -0.8506 -2.6128 -0.8321
  733SOL     OW14176   1.725   7.776   2.989  0.7952 -0.3365 -0.2065
  733SOL    HW114177   1.769   7.700   3.028  0.9379 -0.2466 -0.1919
  733SOL    HW214178   1.683   7.820   3.064  0.0613 -0.8260 -0.3167
  734SOL     OW14179   9.224   6.916   4.961 -0.0935 -0.3644  0.0323
  734SOL    HW114180   9.271   6.999   4.960 -1.2351  0.3127  0.7353
  734SOL    HW214181   9.138   6.936   4.923 -0.3304 -1.2576  0.0707
  735SOL     OW14182   0.317   9.796   2.702 -0.1035 -0.1789  0.2971
  735SOL    HW114183   0.327   9.749   2.785 -1.3403 -0.1002  0.5084
  735SOL    HW214184   0.238   9.759   2.663  0.0880  0.2639 -0.5286
  736SOL     OW14185   8.115   8.345   6.758 -0.3874 -0.0450 -0.1848
  736SOL    HW114186   8.081   8.432   6.737  0.3475  0.1538 -0.6086
  736SOL    HW214187   8.210   8.354   6.751 -0.1577 -0.3428  1.8837
  737SOL     OW14188   5.852   9.422   4.800  0.6574  0.0264 -0.3471
  737SOL    HW114189   5.840   9.333   4.831 -0.1374  0.1398 -0.3041
  737SOL    HW214190   5.821   9.421   4.710  1.8644 -0.0289 -0.7849
  738SOL     OW14191   3.613   2.618   4.610  0.5334 -0.1580  0.2306
  738SOL    HW114192   3.665   2.638   4.688  0.5551 -1.9224  0.7110
  738SOL    HW214193   3.594   2.703   4.571  3.0327  0.6045  0.5093
  739SOL     OW14194   0.273   1.826   3.558  0.2940  0.1667 -0.1141
  739SOL    HW114195   0.283   1.735   3.587  2.5319  0.9744  2.0166
  739SOL    HW214196   0.180   1.835   3.540  0.1273 -2.7566 -1.2853
  740SOL     OW14197   2.719   9.267   5.468 -0.9521  0.4913 -0.0357
  740SOL    HW114198   2.792   9.214   5.501  0.2464  0.9737 -1.7744
  740SOL    HW214199   2.654   9.203   5.439 -1.2228  0.0508  1.4419
  741SOL     OW14200   9.991   7.111   4.457 -0.1003  0.4887 -0.3768
  741SOL    HW114201  10.026   7.164   4.385 -1.6873  0.1458 -1.4504
  741SOL    HW214202   9.897   7.126   4.454 -0.5239 -1.7593 -0.2308
  742SOL     OW14203   0.207  10.358   6.014 -0.0353  0.2814  0.2478
  742SOL    HW114204   0.235  10.356   6.105  1.2037  1.1065 -0.0833
  742SOL    HW214205   0.262  10.425   5.973  0.1562 -0.7806 -1.3469
  743SOL     OW14206   9.842   4.662   7.596  0.0223 -0.1344 -0.2150
  743SOL    HW114207   9.904   4.695   7.661  0.0267  0.4382 -0.4974
  743SOL    HW214208   9.760   4.707   7.616 -0.5040 -1.4032  0.5851
  744SOL     OW14209   0.832   4.449   6.816 -0.1678 -0.2923  0.3021
  744SOL    HW114210   0.885   4.522   6.847 -0.9680  0.0040  1.0317
  744SOL    HW214211   0.745   4.466   6.851 -0.4986 -1.3150  0.0260
  745SOL     OW14212   2.565   7.882   4.161 -0.2294 -0.0070 -0.4955
  745SOL    HW114213   2.644   7.933   4.181 -0.0120 -0.7670  0.6565
  745SOL    HW214214   2.546   7.903   4.070  1.0524  0.5225 -0.6628
  746SOL     OW14215   6.185   5.652   3.705 -0.2222 -0.0855  0.2955
  746SOL    HW114216   6.155   5.565   3.733  0.3596  0.3863  2.6163
  746SOL    HW214217   6.108   5.693   3.666 -0.5967 -1.4971 -0.5186
  747SOL     OW14218   5.924   0.049   1.087  0.4734  0.2855  0.1451
  747SOL    HW114219   5.890   0.049   0.997  2.0209  1.8077 -0.4916
  747SOL    HW214220   5.952  -0.042   1.101 -0.3846 -0.1243 -0.6511
  748SOL     OW14221   4.031   3.369   6.812 -0.2719 -0.6142 -0.0540
  748SOL    HW114222   4.105   3.315   6.787 -0.7251 -1.0699 -0.4404
  748SOL    HW214223   4.052   3.402   6.899 -0.2310 -1.8467  0.4162
  749SOL     OW14224   8.934   8.022   5.634 -0.2115  0.1722  0.4066
  749SOL    HW114225   8.865   8.083   5.662  1.0130  1.0792  1.6126
  749SOL    HW214226   8.939   8.033   5.539 -1.4733  0.3548  0.3451
  750SOL     OW14227   7.522   5.180   7.037 -1.1426  0.1869  0.6531
  750SOL    HW114228   7.453   5.121   7.008 -0.5985  0.0908 -0.5218
  750SOL    HW214229   7.544   5.151   7.125  1.1973 -3.3913 -0.8789
  751SOL     OW14230   8.141   5.187   6.874 -0.1180 -0.1749  0.9376
  751SOL    HW114231   8.179   5.211   6.958  0.7641 -0.7432  0.7153
  751SOL    HW214232   8.101   5.101   6.888  0.6628 -0.5998  0.6006
  752SOL     OW14233   1.995   1.223   1.600  0.6670 -0.0130  0.5771
  752SOL    HW114234   2.086   1.254   1.600  0.2362  1.4888 -1.5645
  752SOL    HW214235   2.002   1.130   1.582  1.7768  0.2479 -0.4685
  753SOL     OW14236   9.002   6.773   3.127  0.5115  0.4852  0.3385
  753SOL    HW114237   8.918   6.735   3.103  1.3159 -1.3186  0.2608
  753SOL    HW214238   8.986   6.868   3.125 -1.4636  0.2034  0.1974
  754SOL     OW14239  10.199   5.240   0.932  0.0620  0.3004  0.4319
  754SOL    HW114240  10.283   5.276   0.903  1.3241 -1.5356  1.5083
  754SOL    HW214241  10.217   5.146   0.942 -2.3968 -0.2855 -0.1475
  755SOL     OW14242   7.968   0.174   3.687  0.2281  0.5050  0.1732
  755SOL    HW114243   8.044   0.173   3.746  0.5826 -0.8791 -0.2766
  755SOL    HW214244   7.956   0.082   3.661 -2.2682  0.5010  1.0642
  756SOL     OW14245   4.794   1.489  10.376 -0.6591  0.1793  0.5386
  756SOL    HW114246   4.776   1.421  10.441 -1.0646 -0.8145 -0.5804
  756SOL    HW214247   4.855   1.549  10.420 -1.4722 -0.0624  2.0781
  757SOL     OW14248   3.803   4.460   2.445  0.6369 -0.1283 -0.3694
  757SOL    HW114249   3.796   4.527   2.377  0.1221 -1.1860 -1.4066
  757SOL    HW214250   3.751   4.387   2.411  0.9745 -0.9552  0.8440
  758SOL     OW14251   3.450   2.862   2.375 -0.0429 -0.1824  0.2321
  758SOL    HW114252   3.407   2.942   2.403 -0.7049  0.0471 -1.3645
  758SOL    HW214253   3.490   2.884   2.291  0.3460 -1.3347  0.0936
  759SOL     OW14254   3.202   6.512   4.017  0.0104  0.1455  0.1304
  759SOL    HW114255   3.227   6.555   4.098  0.0529 -1.4871  1.0280
  759SOL    HW214256   3.150   6.577   3.970 -3.7528 -0.2004  3.3755
  760SOL     OW14257   1.209   0.542   9.147  0.4505 -0.4121  0.0173
  760SOL    HW114258   1.199   0.569   9.238  0.1719 -2.6975  0.7109
  760SOL    HW214259   1.251   0.617   9.105  0.4689  0.7484  1.9781
  761SOL     OW14260   5.234   5.553   7.115  0.2139 -0.3176 -0.0554
  761SOL    HW114261   5.280   5.594   7.188  0.8356  1.0691 -1.1774
  761SOL    HW214262   5.183   5.624   7.077  0.1391 -0.9461 -1.1558
  762SOL     OW14263   1.857   0.749   6.149  0.6633 -0.4567 -0.1970
  762SOL    HW114264   1.839   0.707   6.065 -0.4579 -0.6573  0.1190
  762SOL    HW214265   1.871   0.676   6.210 -0.5367 -0.3967  0.1934
  763SOL     OW14266   0.449   2.029   0.634  0.4739  0.6742  0.1259
  763SOL    HW114267   0.412   2.007   0.720  0.6366  1.8621  0.5101
  763SOL    HW214268   0.531   1.978   0.629 -1.0360 -1.8773 -0.6769
  764SOL     OW14269   7.937  10.069   7.010 -0.6361  0.4034  0.1329
  764SOL    HW114270   7.897  10.016   7.079 -0.7232  0.8742  0.4478
  764SOL    HW214271   7.884  10.050   6.932  0.2429 -1.1090 -0.1278
  765SOL     OW14272   7.206   3.962   0.547 -0.1277 -0.0088 -0.2850
  765SOL    HW114273   7.286   4.011   0.565  0.2911 -0.6067 -0.4994
  765SOL    HW214274   7.146   4.027   0.511  0.4068  0.3571 -0.5252
  766SOL     OW14275   0.702   2.948   1.426 -0.1042  0.3773 -0.2158
  766SOL    HW114276   0.762   3.021   1.437 -0.9972  1.1088 -0.0311
  766SOL    HW214277   0.712   2.921   1.334 -1.2122  2.0832 -0.8926
  767SOL     OW14278   0.158   7.434   2.064 -0.4902  0.1181 -0.3126
  767SOL    HW114279   0.136   7.421   2.156 -0.5532 -0.8592 -0.4502
  767SOL    HW214280   0.073   7.442   2.021 -0.5969 -2.1070 -0.6314
  768SOL     OW14281   0.668   4.645   0.373 -0.0023  0.7430 -0.5127
  768SOL    HW114282   0.629   4.560   0.394 -0.3139  1.1785  0.7652
  768SOL    HW214283   0.628   4.669   0.289 -0.8594  0.1948 -0.2775
  769SOL     OW14284   5.745   5.530   6.302 -0.6874 -0.2572 -0.1504
  769SOL    HW114285   5.697   5.493   6.376 -1.8814 -1.2246 -1.3611
  769SOL    HW214286   5.770   5.617   6.331 -1.0795 -0.6391  1.4129
  770SOL     OW14287   0.270   5.082   5.526  0.0598 -0.4379  0.3810
  770SOL    HW114288   0.269   5.127   5.441  0.6874 -2.1050 -0.5698
  770SOL    HW214289   0.318   5.000   5.508  1.9886  0.0540  2.8068
  771SOL     OW14290   0.930   3.514   9.488 -0.0159 -0.8711 -0.5303
  771SOL    HW114291   0.910   3.586   9.546 -1.6960 -0.1721 -1.8944
  771SOL    HW214292   0.885   3.439   9.525  0.4861 -0.8889  0.0629
  772SOL     OW14293   2.037   8.840   1.680  0.5348 -0.0512 -0.3417
  772SOL    HW114294   2.106   8.845   1.613  0.0919 -0.4419 -0.8371
  772SOL    HW214295   2.077   8.794   1.753  1.9447  2.7903  0.8446
  773SOL     OW14296   7.590   3.575   8.898 -0.8485 -0.1343  0.2203
  773SOL    HW114297   7.525   3.620   8.844 -0.1430  1.4664  0.6452
  773SOL    HW214298   7.547   3.494   8.925 -1.4447 -0.6863 -2.2056
  774SOL     OW14299   5.441   3.190   7.858  0.1828  0.0759 -0.1714
  774SOL    HW114300   5.468   3.281   7.866 -0.7817  0.3104  0.6472
  774SOL    HW214301   5.520   3.143   7.833  0.6676  1.1517 -0.6868
  775SOL     OW14302   1.977   1.184   6.578  0.5695 -0.2175 -0.5792
  775SOL    HW114303   2.042   1.252   6.598 -0.2657  0.4746 -0.1365
  775SOL    HW214304   2.008   1.107   6.626  1.1796  0.0298 -0.5579
  776SOL     OW14305   2.046   7.637   9.802  0.1223  0.0512  0.3315
  776SOL    HW114306   1.984   7.589   9.857  0.4237  1.2029  1.7564
  776SOL    HW214307   2.004   7.642   9.716  0.4067 -3.3454 -0.1310
  777SOL     OW14308   7.853   3.980   3.889 -0.0226  0.4954  0.4916
  777SOL    HW114309   7.866   3.898   3.937  0.7040  0.8136  0.8469
  777SOL    HW214310   7.848   4.047   3.957  0.3533  0.8668  0.1597
  778SOL     OW14311   2.131   1.861   9.329  0.0849  0.2781  0.0249
  778SOL    HW114312   2.130   1.852   9.424  0.6359 -0.3629 -0.0200
  778SOL    HW214313   2.056   1.916   9.309  1.2140  2.3009  1.0068
  779SOL     OW14314   5.590   9.038   7.757  0.6273 -0.2295 -0.0665
  779SOL    HW114315   5.644   9.032   7.836  0.4944 -1.7969 -0.0739
  779SOL    HW214316   5.510   8.991   7.779  1.5448 -2.9082 -1.8896
  780SOL     OW14317   5.809   5.854   4.211  0.0373 -0.1488 -0.0579
  780SOL    HW114318   5.726   5.870   4.165  0.6706  1.7191 -0.6222
  780SOL    HW214319   5.855   5.791   4.155 -0.3399  0.0147 -0.5641
  781SOL     OW14320   8.527   9.658   8.041  0.2453  0.4550  0.4165
  781SOL    HW114321   8.473   9.730   8.007 -0.1785 -0.5881 -1.2140
  781SOL    HW214322   8.525   9.670   8.136 -0.2074  2.3078  0.2221
  782SOL     OW14323   0.027   6.528   6.530 -0.2926  0.0334  0.6949
  782SOL    HW114324   0.046   6.437   6.506  2.0062  0.4045  0.8368
  782SOL    HW214325  -0.057   6.524   6.574 -0.2449 -2.0418  0.7164
  783SOL     OW14326   1.444   1.454   7.211  0.2506  0.9452  0.6160
  783SOL    HW114327   1.367   1.494   7.250 -0.9479 -0.5099 -0.1687
  783SOL    HW214328   1.414   1.419   7.128  1.9488  0.9965 -0.0604
  784SOL     OW14329   9.460   1.020   9.020  0.0520  0.5698 -0.4753
  784SOL    HW114330   9.491   1.029   8.931  1.7304  0.6779  0.0940
  784SOL    HW214331   9.491   1.098   9.065 -0.1649  0.1909  0.3651
  785SOL     OW14332   1.915   1.385   4.823  0.4095 -0.9827  0.3024
  785SOL    HW114333   1.839   1.328   4.827  0.1603 -0.7432 -0.7584
  785SOL    HW214334   1.990   1.326   4.816  0.1563 -1.2044 -0.7653
  786SOL     OW14335   1.514   7.005   1.837 -0.0734  0.0428 -0.0070
  786SOL    HW114336   1.597   7.021   1.792  0.3054 -3.0624 -0.6472
  786SOL    HW214337   1.534   6.937   1.901 -1.9924 -0.2699  0.3246
  787SOL     OW14338   3.164   3.264   9.094 -0.0585  0.0860 -0.2500
  787SOL    HW114339   3.204   3.302   9.172 -0.3445  1.3806 -0.7037
  787SOL    HW214340   3.205   3.310   9.021 -0.3353 -0.5751 -0.8407
  788SOL     OW14341   9.180   8.762   2.684  0.0507 -0.0871 -0.1821
  788SOL    HW114342   9.205   8.719   2.766  1.3087 -2.6555 -1.7557
  788SOL    HW214343   9.258   8.813   2.659  1.0195 -2.0088 -1.3407
  789SOL     OW14344   5.119   0.046   7.325  0.1866 -0.5164 -0.0122
  789SOL    HW114345   5.206   0.018   7.297 -0.0240 -1.2765  0.0781
  789SOL    HW214346   5.060   0.012   7.258 -0.2453 -1.7251  0.9506
  790SOL     OW14347   2.043   9.964   8.803 -0.4669  0.0171 -0.5155
  790SOL    HW114348   2.049  10.047   8.851 -1.0515  1.0434 -2.1537
  790SOL    HW214349   1.955   9.931   8.824  0.3689 -1.1124  1.5023
  791SOL     OW14350   0.336   7.614   0.972  0.2439 -0.3810 -0.2473
  791SOL    HW114351   0.359   7.556   1.045  2.3949 -1.7231 -1.8769
  791SOL    HW214352   0.369   7.700   0.998 -1.9962 -0.0066  1.7216
  792SOL     OW14353   2.206   8.225   9.576  0.4484 -0.0187  0.0198
  792SOL    HW114354   2.274   8.169   9.614 -0.7205 -1.0552  0.6531
  792SOL    HW214355   2.134   8.223   9.639 -1.1266 -0.9272 -1.6672
  793SOL     OW14356   2.533   4.596   8.727  0.4438 -0.0723 -0.4001
  793SOL    HW114357   2.487   4.639   8.655  1.0310  2.6107  0.6907
  793SOL    HW214358   2.597   4.661   8.756 -0.0558 -0.8584  2.8171
  794SOL     OW14359   8.831   8.167   9.252 -0.2771  0.1191 -0.3067
  794SOL    HW114360   8.854   8.157   9.345 -0.2038 -0.8844 -0.4175
  794SOL    HW214361   8.903   8.219   9.215  0.3409 -0.5372 -0.0483
  795SOL     OW14362   1.892   8.921   1.418 -0.3947 -0.0024  0.0480
  795SOL    HW114363   1.958   8.987   1.397  0.4898 -0.3978  1.4134
  795SOL    HW214364   1.833   8.921   1.343  0.2365  1.5151 -0.4908
  796SOL     OW14365   2.783   0.239   9.061  0.1717 -0.3338 -0.0003
  796SOL    HW114366   2.752   0.173   9.123  1.2847 -0.8679  0.0158
  796SOL    HW214367   2.831   0.301   9.115 -3.0321  2.0329  0.4185
  797SOL     OW14368   9.402   0.963   7.185  0.5469 -0.2064 -0.3451
  797SOL    HW114369   9.360   0.956   7.100  0.4616 -0.9222 -0.2507
  797SOL    HW214370   9.484   0.915   7.176 -0.4495 -2.2107  0.5822
  798SOL     OW14371   2.792   2.830   1.159 -0.0165 -0.1643 -0.1303
  798SOL    HW114372   2.750   2.890   1.221 -1.1062  0.6992 -1.6214
  798SOL    HW214373   2.844   2.771   1.213 -1.2523  0.2862  1.6276
  799SOL     OW14374   8.845   3.589   2.591  0.6287  1.0204  0.1634
  799SOL    HW114375   8.770   3.549   2.547 -0.1865  1.7344  0.8708
  799SOL    HW214376   8.864   3.530   2.664  2.4440 -0.5623 -1.4580
  800SOL     OW14377   5.609   6.037   2.309  0.7933  0.5223  0.4459
  800SOL    HW114378   5.586   5.980   2.383 -0.6109 -0.5609 -0.7756
  800SOL    HW214379   5.689   5.999   2.274  0.7513  0.2712  0.6184
  801SOL     OW14380   5.092   4.839   1.067  0.7002  0.2625  0.2439
  801SOL    HW114381   5.051   4.782   1.132  2.0038 -1.2499 -0.1986
  801SOL    HW214382   5.036   4.832   0.990  0.6866 -0.1647  0.2926
  802SOL     OW14383   5.099   3.867   5.428  0.1995 -0.0624 -0.0543
  802SOL    HW114384   5.075   3.954   5.462  0.0945 -0.2975  0.4920
  802SOL    HW214385   5.094   3.810   5.505  2.1983 -0.1914  0.0307
  803SOL     OW14386   0.430   6.518   2.882 -0.3120 -0.4875  0.0756
  803SOL    HW114387   0.512   6.473   2.864 -0.1865 -0.0382 -0.4889
  803SOL    HW214388   0.403   6.555   2.798 -0.7781 -0.1160  0.3797
  804SOL     OW14389   6.848   1.260   1.666 -0.5561  0.3847 -0.5154
  804SOL    HW114390   6.883   1.290   1.750  0.0789  0.0277 -0.6446
  804SOL    HW214391   6.805   1.337   1.629  0.5026  0.9777 -0.5616
  805SOL     OW14392   4.817   5.543   5.352  0.5846  0.2649  0.5072
  805SOL    HW114393   4.842   5.500   5.433 -1.3190 -0.7933  0.5798
  805SOL    HW214394   4.721   5.539   5.350  0.3675  3.1428 -0.2474
  806SOL     OW14395   2.222   6.772   5.827  0.2276  0.3809 -0.8196
  806SOL    HW114396   2.216   6.802   5.917  0.6316 -0.2430 -0.5769
  806SOL    HW214397   2.315   6.766   5.809  0.1505  0.3118 -1.2090
  807SOL     OW14398   6.104   8.544   4.003 -0.3427 -0.7803 -0.6535
  807SOL    HW114399   6.191   8.529   3.966 -0.2689 -1.9884 -0.0560
  807SOL    HW214400   6.079   8.459   4.040 -1.1459 -0.0687  0.5042
  808SOL     OW14401   7.377   1.808   0.740  0.4284 -0.3460 -0.5821
  808SOL    HW114402   7.328   1.822   0.659  0.4359  2.6274 -0.1867
  808SOL    HW214403   7.339   1.729   0.778 -1.8752  0.0564 -1.8590
  809SOL     OW14404   4.126   4.892   6.192  0.4498  0.0003 -0.2766
  809SOL    HW114405   4.202   4.920   6.140  1.4305 -2.5082 -0.3447
  809SOL    HW214406   4.074   4.841   6.131 -1.5991  1.9833 -0.3257
  810SOL     OW14407   5.758   7.865   5.423 -0.1225 -0.1896  0.3280
  810SOL    HW114408   5.705   7.944   5.426  0.5260  0.2498  2.1953
  810SOL    HW214409   5.695   7.793   5.420 -0.8939  0.3168  2.3308
  811SOL     OW14410   2.134   1.122   3.309  0.3528 -0.4703  0.3719
  811SOL    HW114411   2.077   1.171   3.368  1.1841  0.5023  0.3880
  811SOL    HW214412   2.075   1.091   3.240 -0.1397  0.9248  0.1283
  812SOL     OW14413   2.853   4.444   0.724  0.1126 -0.3208 -0.5397
  812SOL    HW114414   2.832   4.353   0.704 -3.2501  0.6293 -2.0606
  812SOL    HW214415   2.839   4.451   0.819 -0.8153 -1.1452 -0.5930
  813SOL     OW14416   6.751  10.014   7.723 -0.3187  0.2840 -0.2485
  813SOL    HW114417   6.814  10.023   7.652  0.5158  1.3366  0.5782
  813SOL    HW214418   6.802  10.030   7.802 -1.4486  0.2806  0.5073
  814SOL     OW14419   2.570   6.432   3.190 -0.5548 -0.1246  0.0542
  814SOL    HW114420   2.590   6.496   3.258 -1.4901 -0.9272  1.1209
  814SOL    HW214421   2.655   6.396   3.166 -0.2118  0.1531  0.8105
  815SOL     OW14422   2.025   2.245   0.293 -0.1406  0.2111  0.7061
  815SOL    HW114423   2.003   2.198   0.212 -1.0437  1.1895  0.3606
  815SOL    HW214424   2.091   2.190   0.335  0.6077 -0.1688 -0.8592
  816SOL     OW14425   0.554   5.337   9.390 -0.4524  0.2362 -0.0640
  816SOL    HW114426   0.489   5.299   9.449 -2.6994 -0.5183 -2.8044
  816SOL    HW214427   0.606   5.262   9.360  1.9105  0.8441  2.1652
  817SOL     OW14428   8.985   9.285   9.451 -0.3514  0.2412 -0.5026
  817SOL    HW114429   9.031   9.362   9.484 -1.1053 -0.2872  1.9796
  817SOL    HW214430   9.046   9.245   9.388  0.4984  2.2045 -0.9882
  818SOL     OW14431   1.273   6.828   3.659 -0.9963  0.3600 -0.0357
  818SOL    HW114432   1.283   6.751   3.715 -2.2334  0.1714 -0.0464
  818SOL    HW214433   1.210   6.802   3.592 -2.5381  1.7998  0.7847
  819SOL     OW14434   8.828   2.842   0.518 -0.0659  0.3204  0.3916
  819SOL    HW114435   8.890   2.911   0.541  1.0861  0.4820 -2.7511
  819SOL    HW214436   8.771   2.882   0.452 -2.0585 -0.5656  1.4852
  820SOL     OW14437   5.482   7.537   4.430 -0.0701 -0.1578  0.1116
  820SOL    HW114438   5.458   7.581   4.348  0.5396 -2.8006 -1.6217
  820SOL    HW214439   5.519   7.606   4.484 -1.1360  1.8412 -1.5512
  821SOL     OW14440   7.805   0.214   2.941 -0.0725 -0.8468 -0.7864
  821SOL    HW114441   7.891   0.249   2.918  0.0926 -0.3150  0.5226
  821SOL    HW214442   7.808   0.206   3.037 -2.1946  1.1626 -0.4682
  822SOL     OW14443   6.679   2.912   6.068 -0.6063  0.5524 -0.7002
  822SOL    HW114444   6.768   2.893   6.096 -0.9440  1.0122  0.7996
  822SOL    HW214445   6.625   2.845   6.109 -1.0113  0.5486 -1.2190
  823SOL     OW14446   3.270   8.093   5.308 -0.2401  0.5670 -0.1427
  823SOL    HW114447   3.311   8.102   5.394 -0.8256  3.4047 -0.0581
  823SOL    HW214448   3.187   8.048   5.326  0.7143 -1.0595  0.3617
  824SOL     OW14449   5.000   2.098   5.630 -0.0746 -0.0917 -0.5937
  824SOL    HW114450   5.086   2.074   5.664  0.3342  0.3052 -1.3348
  824SOL    HW214451   4.940   2.033   5.669  0.3979  0.2228  0.7136
  825SOL     OW14452   4.387   2.468   6.459 -0.8162 -0.5318 -0.1507
  825SOL    HW114453   4.364   2.463   6.552  0.3263  0.4595  0.2187
  825SOL    HW214454   4.477   2.435   6.455 -0.2755  0.9020 -0.6208
  826SOL     OW14455   3.268   9.688   5.749 -0.4944 -0.3437 -0.2934
  826SOL    HW114456   3.280   9.685   5.654 -0.8587 -1.0858 -0.3259
  826SOL    HW214457   3.179   9.721   5.761 -0.0254  0.9438 -0.1645
  827SOL     OW14458  10.071   4.156   4.286 -0.0621 -0.8304 -0.2070
  827SOL    HW114459  10.106   4.162   4.197 -1.1735 -2.0700 -0.7555
  827SOL    HW214460  10.147   4.175   4.342  0.7117 -0.2411 -1.3883
  828SOL     OW14461   7.221   8.768   8.313 -0.0858 -0.0589  0.2300
  828SOL    HW114462   7.198   8.851   8.355  2.7331  0.8372  0.1897
  828SOL    HW214463   7.175   8.771   8.228  2.3389  3.0396 -1.1713
  829SOL     OW14464   1.433   9.426   0.212 -0.1244 -0.2237  0.1678
  829SOL    HW114465   1.477   9.464   0.288  1.9505 -0.2748 -0.9298
  829SOL    HW214466   1.403   9.501   0.161 -3.8507 -0.1317  2.1372
  830SOL     OW14467   4.477  10.135   4.045 -0.5434 -0.1343  0.5612
  830SOL    HW114468   4.506  10.088   3.967 -0.9083  0.7851 -0.1334
  830SOL    HW214469   4.384  10.117   4.050 -0.2958 -1.2922  1.5659
  831SOL     OW14470   3.563   7.314   6.863 -0.4303  0.0183 -0.4188
  831SOL    HW114471   3.595   7.404   6.851  2.1643 -0.8852 -0.9509
  831SOL    HW214472   3.553   7.281   6.773  0.1035 -0.6700 -0.2340
  832SOL     OW14473   8.462   7.580   7.516 -0.3736  0.1420  0.0159
  832SOL    HW114474   8.548   7.540   7.502 -0.5670  0.1052 -1.1873
  832SOL    HW214475   8.400   7.509   7.497 -0.7101  0.8274 -1.6244
  833SOL     OW14476   9.804   0.753   4.836 -0.4309 -0.5025 -0.3706
  833SOL    HW114477   9.768   0.691   4.772 -0.4325 -0.2354 -0.6269
  833SOL    HW214478   9.831   0.829   4.785 -3.1285  0.9985  0.1824
  834SOL     OW14479   8.905  10.213   1.762 -0.3518  0.1266 -0.1919
  834SOL    HW114480   8.944  10.127   1.779  0.2949  0.0792 -1.8029
  834SOL    HW214481   8.912  10.259   1.846  2.6193 -0.1169 -0.1802
  835SOL     OW14482   8.931   3.350   7.130 -0.2972  0.3297 -0.3966
  835SOL    HW114483   8.866   3.362   7.061 -0.3895  0.4375 -0.2940
  835SOL    HW214484   8.884   3.371   7.211 -0.0107  0.8562 -0.3634
  836SOL     OW14485   0.686   7.733   7.131 -0.1691 -0.2359  0.3435
  836SOL    HW114486   0.765   7.691   7.096  0.4901 -0.5283  2.0851
  836SOL    HW214487   0.681   7.704   7.222 -1.3486  1.1267  0.7633
  837SOL     OW14488   8.325   1.991   4.590 -0.6614 -0.4622 -0.8684
  837SOL    HW114489   8.399   1.950   4.636 -1.0781 -1.9507 -1.4572
  837SOL    HW214490   8.287   2.051   4.654  0.5946 -0.2414 -0.2995
  838SOL     OW14491   1.387  10.390   7.693 -0.3131 -0.3456  0.0339
  838SOL    HW114492   1.321  10.445   7.735 -0.8946 -2.4044  2.0370
  838SOL    HW214493   1.339  10.344   7.623 -0.3907 -0.0201 -0.1272
  839SOL     OW14494   7.976   1.227   6.231  0.4438  0.5265  0.2124
  839SOL    HW114495   7.896   1.176   6.241  0.6288  0.4888  1.7042
  839SOL    HW214496   8.021   1.187   6.157 -1.8325  1.8100 -2.0495
  840SOL     OW14497   3.120   6.439   9.836  0.0043 -0.0683  0.2663
  840SOL    HW114498   3.183   6.510   9.845 -1.5671  1.8951 -2.6947
  840SOL    HW214499   3.034   6.481   9.836 -1.0120 -1.9158 -1.3412
  841SOL     OW14500   5.201   5.935   3.135 -0.5276  0.0549 -0.3770
  841SOL    HW114501   5.279   5.988   3.151 -0.7999  0.3999 -0.1881
  841SOL    HW214502   5.127   5.994   3.153 -0.8439  0.0222 -1.5078
  842SOL     OW14503   4.479   5.097   2.396  0.0367  0.6636  0.0596
  842SOL    HW114504   4.548   5.145   2.442  0.1149  0.9616 -0.3720
  842SOL    HW214505   4.407   5.091   2.460  0.0347  1.3330  0.1201
  843SOL     OW14506   4.163   7.254   2.810  0.0310 -0.1097  0.6826
  843SOL    HW114507   4.132   7.163   2.811  0.5363 -0.2873  0.8697
  843SOL    HW214508   4.101   7.302   2.864 -1.3915  0.0490 -0.9999
  844SOL     OW14509   0.733   3.019   4.467 -0.4274 -0.3072  0.0460
  844SOL    HW114510   0.639   3.004   4.473 -1.6318  3.5297 -3.7557
  844SOL    HW214511   0.748   3.100   4.516  1.4442 -1.8536  2.2439
  845SOL     OW14512   7.491   8.810   5.876  0.0463 -0.3606 -0.2294
  845SOL    HW114513   7.402   8.826   5.908  0.7675  2.1798  0.7658
  845SOL    HW214514   7.544   8.801   5.955  0.8378 -0.9659 -0.8044
  846SOL     OW14515   4.355   0.759   6.445 -0.3058  0.0675 -0.7329
  846SOL    HW114516   4.374   0.760   6.351 -1.1753 -0.7616 -0.9365
  846SOL    HW214517   4.267   0.721   6.451 -0.3303  0.2809  0.4062
  847SOL     OW14518   9.180  10.189   0.969 -0.1042 -0.1412 -0.2568
  847SOL    HW114519   9.250  10.172   1.033 -1.1509  0.0747  0.9970
  847SOL    HW214520   9.117  10.119   0.983 -0.1312 -0.3446 -1.3875
  848SOL     OW14521   5.916   8.956   6.935 -0.3836  0.1052 -0.2882
  848SOL    HW114522   5.961   8.909   7.005 -1.4161 -0.6674 -0.1281
  848SOL    HW214523   5.915   8.895   6.861  0.3268  0.7590 -0.8550
  849SOL     OW14524   4.738   6.470   6.593 -0.0351 -0.3902  0.3545
  849SOL    HW114525   4.689   6.551   6.607  1.2594  0.4561  0.2586
  849SOL    HW214526   4.829   6.494   6.612  0.8596 -0.9885 -2.6387
  850SOL     OW14527   3.337   0.184   6.345 -0.4375 -0.1189 -0.3981
  850SOL    HW114528   3.417   0.141   6.376 -0.5316 -2.3794 -2.8997
  850SOL    HW214529   3.367   0.249   6.282 -0.4621  1.1313  0.8587
  851SOL     OW14530   8.189  10.162   8.564  0.5769  0.3858  0.1517
  851SOL    HW114531   8.141  10.206   8.494 -0.9277  0.1360  0.9874
  851SOL    HW214532   8.163  10.070   8.556  0.8926  0.2535  0.6421
  852SOL     OW14533   1.268   1.213   7.372 -0.9285 -0.1865  0.1194
  852SOL    HW114534   1.283   1.213   7.278 -2.5583  2.1380 -0.2184
  852SOL    HW214535   1.173   1.216   7.381 -0.8179 -0.6593  1.8570
  853SOL     OW14536   4.486   9.411   1.982  0.1092 -0.1489 -0.0219
  853SOL    HW114537   4.428   9.487   1.978  0.7477  0.2971 -1.6924
  853SOL    HW214538   4.571   9.445   1.955  1.0419 -0.9272  1.7787
  854SOL     OW14539   3.548   8.634   0.252 -0.2818 -0.9730 -0.0769
  854SOL    HW114540   3.584   8.553   0.289  0.7132 -1.3150 -1.6944
  854SOL    HW214541   3.587   8.640   0.165 -1.1300  0.7369 -0.3809
  855SOL     OW14542   0.364   2.163   1.302 -0.4941 -0.9289 -0.4728
  855SOL    HW114543   0.312   2.084   1.284  1.4092 -2.3213 -0.2619
  855SOL    HW214544   0.443   2.130   1.345  0.5374  1.0722 -0.7038
  856SOL     OW14545   4.542   2.101   4.940 -0.3980 -0.2285 -0.5108
  856SOL    HW114546   4.603   2.030   4.955 -0.5061  0.2335  2.9389
  856SOL    HW214547   4.597   2.179   4.933 -0.4443 -0.0689  0.6574
  857SOL     OW14548   8.043   9.738   9.679 -0.0828 -0.6770  0.1793
  857SOL    HW114549   7.968   9.709   9.731  0.4849  1.3021  2.2475
  857SOL    HW214550   8.119   9.721   9.734  0.6459  0.6575 -0.3590
  858SOL     OW14551   5.286   8.498   1.554  0.8688 -0.1999  0.5368
  858SOL    HW114552   5.331   8.461   1.478 -1.7288 -0.0179 -1.2047
  858SOL    HW214553   5.285   8.592   1.538  1.0966 -0.0665  1.2727
  859SOL     OW14554   3.545   4.116  10.353 -0.1104 -0.3853  0.5014
  859SOL    HW114555   3.452   4.099  10.371 -0.2109 -0.5762 -0.1899
  859SOL    HW214556   3.591   4.046  10.400 -0.3526 -0.6979  0.2783
  860SOL     OW14557   7.253   9.707   9.472  0.1521 -0.8340 -0.4279
  860SOL    HW114558   7.287   9.625   9.507  0.2554  0.0611  1.6991
  860SOL    HW214559   7.256   9.768   9.545 -0.0221  1.0641 -1.9220
  861SOL     OW14560   1.683   1.002   4.220 -0.2405 -0.5450 -0.0109
  861SOL    HW114561   1.763   0.949   4.228 -1.2798 -2.0538  0.9202
  861SOL    HW214562   1.712   1.084   4.180  1.9182 -0.7026  1.0969
  862SOL     OW14563   1.086   6.388   1.033 -0.1105  0.3925 -0.3366
  862SOL    HW114564   0.998   6.360   1.057 -0.6925  1.1066 -1.5707
  862SOL    HW214565   1.131   6.397   1.117 -0.8160 -1.1923  0.2475
  863SOL     OW14566   7.713   5.016   4.362 -0.3269 -0.1146  0.2574
  863SOL    HW114567   7.697   4.958   4.287 -0.5618 -1.4978  1.3238
  863SOL    HW214568   7.807   5.034   4.359 -0.4489  0.4730 -0.7742
  864SOL     OW14569   7.833   1.974   6.288  0.0212  0.1670  0.4432
  864SOL    HW114570   7.837   2.056   6.338  0.6893 -1.0687  2.5306
  864SOL    HW214571   7.862   1.999   6.200 -2.6365  2.7129  0.1330
  865SOL     OW14572   4.552   9.579   3.408 -0.3052  0.3149  0.3537
  865SOL    HW114573   4.582   9.505   3.357 -0.3818  0.2368  0.4217
  865SOL    HW214574   4.611   9.651   3.383  1.2023 -0.3049  1.8957
  866SOL     OW14575   0.024   0.258   5.371 -0.2383 -0.2218  0.2518
  866SOL    HW114576   0.058   0.303   5.448 -0.9689 -0.0873  0.5050
  866SOL    HW214577   0.004   0.170   5.401  1.7739 -0.9425 -0.3957
  867SOL     OW14578   4.598   2.266   5.776 -0.7966 -0.7447  0.1192
  867SOL    HW114579   4.579   2.306   5.861  0.7803 -0.4743  0.3903
  867SOL    HW214580   4.606   2.172   5.795  0.9117 -0.5492  0.5959
  868SOL     OW14581   9.090   6.128   6.878  0.5303  0.4887 -0.4444
  868SOL    HW114582   9.184   6.141   6.889  0.3422  1.3321  0.2439
  868SOL    HW214583   9.075   6.136   6.784  1.0722  0.8542 -0.5000
  869SOL     OW14584   8.506   8.407   7.332 -0.0359 -0.2514 -0.5112
  869SOL    HW114585   8.525   8.500   7.328  0.8329 -0.3545  0.7973
  869SOL    HW214586   8.475   8.392   7.421  0.0160 -1.2453 -0.6424
  870SOL     OW14587   7.049   8.539   8.878  0.3539 -0.1118 -0.2614
  870SOL    HW114588   7.006   8.521   8.794  1.2530  0.8359 -0.9506
  870SOL    HW214589   7.128   8.588   8.855  1.1200 -0.6493  1.0718
  871SOL     OW14590   4.220   3.382   3.439 -1.0224  0.0462  0.1819
  871SOL    HW114591   4.267   3.458   3.406  0.3772 -0.3320  1.2021
  871SOL    HW214592   4.216   3.321   3.365  0.7228 -0.1843  0.2427
  872SOL     OW14593   0.198   9.017   6.613  0.1349  0.1143  0.1190
  872SOL    HW114594   0.276   9.055   6.653 -0.5326  1.2937  0.3419
  872SOL    HW214595   0.207   9.036   6.520 -0.0997  0.6538  0.2040
  873SOL     OW14596   0.493   3.817   8.178 -0.0317 -0.9745  0.2085
  873SOL    HW114597   0.414   3.866   8.199  0.0897 -0.3316 -0.7821
  873SOL    HW214598   0.465   3.752   8.113  0.8769  1.6878 -3.0989
  874SOL     OW14599   2.470   8.894   2.693 -0.3075 -0.1252  0.1495
  874SOL    HW114600   2.503   8.962   2.751  0.3856 -0.8099  0.5790
  874SOL    HW214601   2.377   8.887   2.713  0.0321 -0.7481  1.6150
  875SOL     OW14602   9.966   9.408   6.216 -0.5900 -0.3939  0.5298
  875SOL    HW114603   9.953   9.500   6.239  0.7412  0.0733 -0.4045
  875SOL    HW214604   9.929   9.358   6.289 -0.1868  0.9073  1.6559
  876SOL     OW14605   8.621   4.648   8.969 -0.5797 -0.6332 -0.0762
  876SOL    HW114606   8.543   4.628   9.021 -2.0683  3.7778 -0.2357
  876SOL    HW214607   8.601   4.614   8.882 -2.3760  0.3293 -0.0867
  877SOL     OW14608   1.550   2.628   0.800 -0.7098 -0.5645  0.4091
  877SOL    HW114609   1.466   2.669   0.779 -0.3757 -0.5300 -0.9438
  877SOL    HW214610   1.586   2.681   0.870 -1.3117  0.0988  0.2274
  878SOL     OW14611   0.399  10.105   8.197  0.7691  0.1743 -0.5355
  878SOL    HW114612   0.361  10.071   8.278  1.2755 -1.6974 -1.0273
  878SOL    HW214613   0.490  10.126   8.220  0.7421  0.2165 -0.4682
  879SOL     OW14614   6.874   2.386   4.939  0.5082  0.5233  1.1661
  879SOL    HW114615   6.952   2.402   4.991 -0.7453  1.4770  2.8171
  879SOL    HW214616   6.855   2.293   4.951  0.8965  0.4827  1.4466
  880SOL     OW14617   6.951  10.191   6.534 -0.0337 -0.7826 -0.3305
  880SOL    HW114618   7.006  10.180   6.612  1.2234 -1.6631 -1.3079
  880SOL    HW214619   6.885  10.121   6.541 -1.3199  0.4906  1.0218
  881SOL     OW14620   0.612  10.294   9.977  0.4769  0.0294  0.3221
  881SOL    HW114621   0.661  10.376   9.990  2.0443 -1.0791  1.8477
  881SOL    HW214622   0.675  10.235   9.935 -0.2807 -0.7308  0.2400
  882SOL     OW14623   4.792   5.855   7.942 -0.3277  0.1055  0.4923
  882SOL    HW114624   4.744   5.785   7.898  0.0826  0.5220 -0.6682
  882SOL    HW214625   4.795   5.926   7.877  1.1405  0.3833  0.8234
  883SOL     OW14626   7.013   0.824   1.934  0.0621  0.4059  0.1850
  883SOL    HW114627   6.969   0.907   1.916 -0.4637  0.3198  1.0174
  883SOL    HW214628   7.028   0.785   1.848 -3.1080 -0.4227 -0.1171
  884SOL     OW14629   5.559   1.158   5.097 -0.4197 -0.2408  0.1106
  884SOL    HW114630   5.494   1.112   5.150 -0.6911 -0.0920 -0.0931
  884SOL    HW214631   5.572   1.242   5.141  1.3392 -1.1442  1.4630
  885SOL     OW14632   9.064   0.321   5.190 -0.2159  0.0944  0.1385
  885SOL    HW114633   9.004   0.391   5.165 -0.1375  0.1861  0.2057
  885SOL    HW214634   9.075   0.269   5.111 -0.0637  0.3141  0.0139
  886SOL     OW14635   3.048   3.660   7.165  0.2370 -0.1311 -0.3141
  886SOL    HW114636   2.965   3.620   7.139 -0.5077  0.6800  0.7469
  886SOL    HW214637   3.109   3.586   7.173 -0.9447 -1.0182  1.0405
  887SOL     OW14638   0.991   0.864  10.043 -0.7533 -0.6138  0.5303
  887SOL    HW114639   1.068   0.904  10.004 -1.6339  0.3170 -0.2951
  887SOL    HW214640   1.025   0.788  10.090  0.7633  0.2649  0.9128
  888SOL     OW14641   7.597   4.527   2.290  0.4451  0.1986 -0.2438
  888SOL    HW114642   7.554   4.612   2.301 -0.1572 -0.0826 -0.3858
  888SOL    HW214643   7.538   4.477   2.235  0.4788 -0.5402  0.3722
  889SOL     OW14644   8.380   3.451  10.077  0.2120  0.4222  0.6114
  889SOL    HW114645   8.351   3.534  10.040  2.2657  0.7034 -0.5272
  889SOL    HW214646   8.401   3.471  10.168 -1.6041  0.5354  1.0470
  890SOL     OW14647   7.441   8.671   4.654  0.2882  0.2831  0.0882
  890SOL    HW114648   7.371   8.735   4.644  0.1022 -0.2023 -2.0531
  890SOL    HW214649   7.405   8.605   4.714 -0.8009  0.4253 -0.3993
  891SOL     OW14650   1.651   1.070   6.573  0.4274 -0.2518 -0.3323
  891SOL    HW114651   1.695   1.154   6.561 -1.1997  1.1425  2.4784
  891SOL    HW214652   1.559   1.088   6.555 -0.0071 -1.2668  0.7304
  892SOL     OW14653   3.788   1.706   6.811 -0.6346 -0.0878 -0.1480
  892SOL    HW114654   3.876   1.685   6.779 -0.6498 -0.2341 -0.0973
  892SOL    HW214655   3.743   1.743   6.735 -0.6803 -0.4631 -0.3117
  893SOL     OW14656   3.156   0.959   1.097  0.6775 -0.7352 -0.1603
  893SOL    HW114657   3.205   0.988   1.174 -0.4471 -0.2218  0.4028
  893SOL    HW214658   3.104   1.036   1.073 -0.2505 -1.4156 -0.3812
  894SOL     OW14659   8.505   3.596   8.892  0.1298 -0.3634  0.0867
  894SOL    HW114660   8.542   3.511   8.918  0.7493 -0.2371 -0.3608
  894SOL    HW214661   8.571   3.660   8.919 -0.6180  0.0522  1.0149
  895SOL     OW14662   7.980   2.449   5.779 -0.3946 -0.1510  0.6655
  895SOL    HW114663   7.972   2.365   5.825  0.6618 -1.2442 -1.0608
  895SOL    HW214664   7.967   2.427   5.687  1.8584  1.2445 -0.0453
  896SOL     OW14665   5.825   9.586   9.320 -0.1613 -0.1983 -0.1471
  896SOL    HW114666   5.829   9.681   9.310 -2.8147  0.0081 -0.0657
  896SOL    HW214667   5.887   9.567   9.391  0.3638  1.4659 -0.1061
  897SOL     OW14668   9.621   5.120   4.931 -0.6762 -0.1280 -0.0357
  897SOL    HW114669   9.685   5.052   4.909 -0.2404  0.4529 -0.6011
  897SOL    HW214670   9.536   5.080   4.913 -0.3895 -0.2291 -1.2115
  898SOL     OW14671   4.506   4.112   6.723 -0.3953 -0.2835 -0.2228
  898SOL    HW114672   4.450   4.146   6.654 -0.8568 -0.3118  0.1344
  898SOL    HW214673   4.564   4.185   6.745 -0.1269 -0.3324 -0.7604
  899SOL     OW14674   3.352   8.352   1.232  0.0189 -0.0821  0.0721
  899SOL    HW114675   3.323   8.293   1.302  0.4033 -0.5649 -0.1646
  899SOL    HW214676   3.282   8.416   1.224  0.1162  0.1800  1.1321
  900SOL     OW14677   2.988   6.050   0.077 -0.0878  0.1370  0.7201
  900SOL    HW114678   2.997   5.958   0.049 -0.9549 -0.5308  2.4774
  900SOL    HW214679   3.055   6.062   0.144  1.1485  1.3331 -0.6834
  901SOL     OW14680   1.110   0.814   3.290  0.7228 -0.1210 -0.5065
  901SOL    HW114681   1.170   0.888   3.288 -0.5996  0.9703 -1.0167
  901SOL    HW214682   1.028   0.850   3.323  0.4708 -1.6902  0.6978
  902SOL     OW14683   8.227   5.273   5.858 -0.1428  0.4718  0.5815
  902SOL    HW114684   8.162   5.315   5.914  0.0679 -0.7143  1.7459
  902SOL    HW214685   8.310   5.289   5.901  0.0812 -0.0014  0.3335
  903SOL     OW14686   1.465   5.222   3.930  0.3475 -0.2085 -0.6796
  903SOL    HW114687   1.465   5.198   4.022  1.6291  4.4431  0.8181
  903SOL    HW214688   1.550   5.192   3.897  2.5694  2.9339  1.4983
  904SOL     OW14689   2.357   4.073   4.804 -0.2414 -0.3534  0.4157
  904SOL    HW114690   2.289   4.018   4.766 -1.2440  0.5166  0.8993
  904SOL    HW214691   2.311   4.126   4.870  0.3354  2.1661 -1.0725
  905SOL     OW14692   3.225   3.542   1.013 -0.1330  0.2720  0.0173
  905SOL    HW114693   3.192   3.631   1.002 -1.6813 -0.5439 -3.3224
  905SOL    HW214694   3.178   3.508   1.089  0.4573  2.2040  1.3346
  906SOL     OW14695   0.659   8.302   9.033  0.0845 -0.3592 -0.2937
  906SOL    HW114696   0.678   8.295   8.939 -0.1875  0.2244 -0.3966
  906SOL    HW214697   0.717   8.238   9.073  2.9397  1.8572 -0.5270
  907SOL     OW14698   0.277   2.037   5.065  0.6527 -0.2579  0.7185
  907SOL    HW114699   0.247   2.081   4.986 -0.4969  0.7680  1.6842
  907SOL    HW214700   0.222   1.959   5.072  1.2540 -0.7427  0.1321
  908SOL     OW14701   2.868   2.771   3.781  0.5112  0.0943  0.3437
  908SOL    HW114702   2.787   2.799   3.824  0.0520 -0.3328 -0.2354
  908SOL    HW214703   2.854   2.679   3.760  1.6825 -0.3673  1.4649
  909SOL     OW14704   4.206   2.305   2.607 -0.3023 -0.6562  0.2890
  909SOL    HW114705   4.265   2.380   2.605  2.4702 -2.6935 -1.0091
  909SOL    HW214706   4.185   2.289   2.515 -1.4247 -1.0614  0.6063
  910SOL     OW14707   7.583   7.345   6.634  0.3273 -0.2876 -0.1237
  910SOL    HW114708   7.672   7.318   6.658  0.0234  0.9917  2.9457
  910SOL    HW214709   7.591   7.438   6.612 -0.3260  0.0291  0.9145
  911SOL     OW14710   2.599   4.206   2.062  0.1729 -0.9174 -0.0456
  911SOL    HW114711   2.604   4.185   1.969 -1.7620  0.1011 -0.4391
  911SOL    HW214712   2.575   4.123   2.104 -0.9035 -0.9738 -0.7329
  912SOL     OW14713   5.175   0.354   3.879 -0.3448  0.2214  0.4421
  912SOL    HW114714   5.227   0.387   3.953 -2.2118  2.9447  0.6780
  912SOL    HW214715   5.182   0.422   3.812 -1.5741 -0.5135 -0.4875
  913SOL     OW14716   7.607  10.322  10.186  0.0980 -0.2307 -0.3213
  913SOL    HW114717   7.533  10.276  10.227  0.9484 -1.3132  0.0707
  913SOL    HW214718   7.645  10.257  10.126  2.2275 -0.6222  1.3214
  914SOL     OW14719   8.362   4.946   0.267  0.3148  0.1420  0.0088
  914SOL    HW114720   8.347   5.022   0.211 -3.1890 -0.5956 -0.3036
  914SOL    HW214721   8.309   4.962   0.345  1.5082 -0.8908  1.0877
  915SOL     OW14722   3.275   2.429   2.203  0.3945  0.1335 -0.0151
  915SOL    HW114723   3.308   2.517   2.185  2.3546 -0.1884  1.5366
  915SOL    HW214724   3.304   2.377   2.128  0.4079  0.5563 -0.3071
  916SOL     OW14725   3.062   6.821   9.662  0.0032 -0.7264 -0.4189
  916SOL    HW114726   3.064   6.748   9.599 -1.9194 -1.7965  0.6655
  916SOL    HW214727   2.993   6.879   9.630  1.8884  1.0315 -1.5870
  917SOL     OW14728   8.516  10.361   5.206  0.1805  0.5400  0.0385
  917SOL    HW114729   8.593  10.415   5.222 -0.1067  1.2300 -0.8254
  917SOL    HW214730   8.503  10.364   5.111 -1.4749  1.2813  0.2372
  918SOL     OW14731   2.667   2.820   6.279 -0.3535  0.2819  0.4222
  918SOL    HW114732   2.686   2.869   6.199  3.2155  1.0572  1.5635
  918SOL    HW214733   2.712   2.736   6.268 -1.5748 -0.4492  0.8176
  919SOL     OW14734   5.671   4.876   9.462 -0.4232 -0.6289 -0.8747
  919SOL    HW114735   5.651   4.963   9.425  0.1252  0.7571  1.8263
  919SOL    HW214736   5.588   4.846   9.499 -0.4260 -0.9231 -1.1109
  920SOL     OW14737   2.551   2.332   8.766  0.1000  0.0224  0.5562
  920SOL    HW114738   2.595   2.356   8.848  0.5125  1.3632 -0.0222
  920SOL    HW214739   2.614   2.356   8.698 -0.3977 -0.7067 -0.1799
  921SOL     OW14740   7.744   6.988   5.000 -0.0878  0.3015 -0.6050
  921SOL    HW114741   7.742   7.048   4.926 -0.0233 -0.3384 -1.1343
  921SOL    HW214742   7.654   6.957   5.008 -0.1044  0.4047 -0.3798
  922SOL     OW14743   4.086   0.363   0.343 -0.7844 -0.1884  0.5135
  922SOL    HW114744   4.135   0.445   0.331  2.4221 -2.1033 -0.7648
  922SOL    HW214745   4.071   0.332   0.254 -1.3008 -1.3544  0.9991
  923SOL     OW14746   3.917   8.566   1.776  0.0392 -0.1032 -0.0107
  923SOL    HW114747   3.953   8.642   1.823 -3.8183  1.7738  0.2660
  923SOL    HW214748   3.881   8.511   1.845 -0.1421 -0.4904 -0.4147
  924SOL     OW14749   2.153   9.443   9.015 -0.0813  0.5371 -0.5407
  924SOL    HW114750   2.110   9.481   8.938 -0.3560  1.7354  0.1830
  924SOL    HW214751   2.246   9.454   8.998 -0.1388  0.7222 -0.7398
  925SOL     OW14752   8.754   2.734   8.146  0.0565  0.0927  0.2363
  925SOL    HW114753   8.672   2.684   8.144  0.9649 -1.4604  0.3455
  925SOL    HW214754   8.810   2.686   8.208  1.2599  0.7568 -0.3077
  926SOL     OW14755   5.712  10.157   6.390  0.3480 -0.2979 -0.5629
  926SOL    HW114756   5.749  10.165   6.302  0.0834 -0.1358 -0.6611
  926SOL    HW214757   5.625  10.121   6.376  0.6234 -1.0884 -0.2983
  927SOL     OW14758   2.666   3.048   7.497 -0.2437  0.2702  0.2495
  927SOL    HW114759   2.570   3.041   7.490 -0.0940 -0.8871 -1.0513
  927SOL    HW214760   2.685   3.138   7.468 -1.0627  1.3377  2.7176
  928SOL     OW14761   1.817   6.072   7.892 -0.7807  0.4107 -0.0529
  928SOL    HW114762   1.802   6.085   7.798  0.8765 -2.5579 -0.8583
  928SOL    HW214763   1.909   6.096   7.905  0.3227 -3.0756 -0.2444
  929SOL     OW14764   0.481   6.822   2.430  0.8021 -0.4103  0.0942
  929SOL    HW114765   0.440   6.893   2.381  1.2433 -0.5862 -0.5511
  929SOL    HW214766   0.450   6.833   2.520 -1.1911 -0.9479 -0.4776
  930SOL     OW14767   6.427   8.330   1.213  0.1798  0.7657  0.0357
  930SOL    HW114768   6.432   8.236   1.197 -1.9586  0.3191  1.6029
  930SOL    HW214769   6.506   8.365   1.172  2.4080 -2.0065  1.5650
  931SOL     OW14770   7.389   4.712   6.424  0.4620 -0.3078 -0.6526
  931SOL    HW114771   7.365   4.635   6.475 -0.3793  0.8042  0.6845
  931SOL    HW214772   7.482   4.726   6.443  0.2729 -0.1892  0.2035
  932SOL     OW14773   5.477   4.661   9.268 -0.4502  0.4906 -0.5191
  932SOL    HW114774   5.546   4.595   9.278 -1.9826 -1.4909 -2.0535
  932SOL    HW214775   5.518   4.732   9.220  1.1243  0.4581  0.7113
  933SOL     OW14776   7.294   6.971   8.841 -0.0682 -0.5400  0.0968
  933SOL    HW114777   7.313   7.010   8.756  1.5686 -0.8918  0.2585
  933SOL    HW214778   7.241   6.894   8.821 -0.7382  0.0551 -0.4789
  934SOL     OW14779   9.794   0.989   3.253 -0.2917 -0.8896  0.0347
  934SOL    HW114780   9.709   1.033   3.261  0.7854  0.9989  2.0677
  934SOL    HW214781   9.789   0.916   3.315 -0.4197 -0.7801  0.1533
  935SOL     OW14782   1.733   4.471   1.169  0.0020  0.2048 -0.2537
  935SOL    HW114783   1.670   4.473   1.241 -1.6805  0.1945 -1.6453
  935SOL    HW214784   1.721   4.554   1.124  1.2740  0.3621 -0.3354
  936SOL     OW14785   2.480   1.128   0.477  0.3968  0.0454 -0.1926
  936SOL    HW114786   2.394   1.091   0.457 -0.1478  1.5388 -0.6862
  936SOL    HW214787   2.496   1.101   0.568 -0.5674 -0.2891 -0.1076
  937SOL     OW14788   3.283   8.404   5.969 -0.2724 -0.4989 -0.1748
  937SOL    HW114789   3.371   8.419   5.935  0.7455 -1.7105  1.7045
  937SOL    HW214790   3.264   8.482   6.021 -0.8868  0.3487 -1.6396
  938SOL     OW14791   7.903   1.565   3.448  0.2841 -0.9082  0.7055
  938SOL    HW114792   7.933   1.513   3.374  0.1046  0.0316 -0.0448
  938SOL    HW214793   7.862   1.502   3.507 -0.3137 -1.5609 -0.3875
  939SOL     OW14794   7.333   6.904   5.641 -0.0643 -0.2048 -0.2743
  939SOL    HW114795   7.360   6.890   5.551  0.0924  0.2106 -0.2924
  939SOL    HW214796   7.289   6.989   5.641 -0.1077 -0.2238  0.0293
  940SOL     OW14797   5.169   7.251   9.946 -0.0764 -0.1545  0.6112
  940SOL    HW114798   5.152   7.196   9.869  3.7032 -2.2252  0.9997
  940SOL    HW214799   5.181   7.339   9.910 -0.0744 -0.7559 -0.9382
  941SOL     OW14800   1.379   4.577  10.219 -0.4342  0.2088 -0.4044
  941SOL    HW114801   1.378   4.653  10.278 -0.3411  0.8076 -1.1594
  941SOL    HW214802   1.307   4.522  10.251 -0.3865  0.5216  0.2668
  942SOL     OW14803  10.213   8.719   6.021  0.4164 -0.2066 -0.0311
  942SOL    HW114804  10.294   8.667   6.018  0.7337  0.3219 -1.5902
  942SOL    HW214805  10.205   8.755   5.933 -2.3630 -1.4814 -0.4203
  943SOL     OW14806   1.878   1.174   9.716 -0.2630  0.2613  0.1188
  943SOL    HW114807   1.940   1.241   9.688 -0.6171  1.2029  1.4959
  943SOL    HW214808   1.840   1.208   9.797  0.5030 -2.1622  1.6246
  944SOL     OW14809   9.949  10.195   0.483  0.3229 -0.4139  0.0806
  944SOL    HW114810  10.018  10.130   0.495  0.5878  0.0488  1.1602
  944SOL    HW214811   9.961  10.257   0.555  0.5558  1.2606 -1.3142
  945SOL     OW14812   4.022   2.345   7.721 -0.3592  0.1218  0.0786
  945SOL    HW114813   4.092   2.396   7.761  0.3300 -1.4500  0.9862
  945SOL    HW214814   3.961   2.327   7.793 -3.2265  3.6195 -1.1329
  946SOL     OW14815   2.504   5.591   7.692 -0.5029 -0.8636  0.6147
  946SOL    HW114816   2.573   5.625   7.749  1.1772 -2.6144 -0.2471
  946SOL    HW214817   2.531   5.616   7.604 -1.8837 -0.1260  0.3863
  947SOL     OW14818   1.628   0.135   4.331  0.8619 -0.2753  1.1495
  947SOL    HW114819   1.574   0.138   4.410 -2.6353  1.0658 -1.0392
  947SOL    HW214820   1.608   0.050   4.292 -0.1022  0.3657  0.1580
  948SOL     OW14821   6.437   1.005   4.451  0.3083  0.4798 -0.2562
  948SOL    HW114822   6.527   0.981   4.473  0.4549  0.0830 -1.2417
  948SOL    HW214823   6.441   1.031   4.359 -0.4781  1.0591 -0.1325
  949SOL     OW14824   8.172   0.822  10.239  0.1473  0.2234  0.7321
  949SOL    HW114825   8.121   0.752  10.280  0.8591  0.5796  2.2664
  949SOL    HW214826   8.251   0.829  10.293  1.0137  0.8738 -0.5722
  950SOL     OW14827   7.237   4.900   8.376 -0.1976 -0.1971 -0.0617
  950SOL    HW114828   7.275   4.906   8.288 -1.7491 -0.5573 -0.7917
  950SOL    HW214829   7.313   4.891   8.434  0.9425  1.4852 -1.1936
  951SOL     OW14830   3.880   0.739   7.221 -0.1336 -0.1240  0.7549
  951SOL    HW114831   3.794   0.699   7.209 -0.0370 -0.0045 -0.4307
  951SOL    HW214832   3.878   0.774   7.310 -0.8297 -1.2771  1.2071
  952SOL     OW14833   0.472   7.622   6.987 -0.3341 -0.6686 -0.3648
  952SOL    HW114834   0.544   7.663   7.035 -0.7817 -1.3888  0.9745
  952SOL    HW214835   0.450   7.685   6.919  0.2908  0.4259  0.4108
  953SOL     OW14836   9.083   0.293   8.685  0.5957  0.5835  0.4616
  953SOL    HW114837   9.139   0.224   8.650 -0.5348  1.2205 -2.9684
  953SOL    HW214838   9.000   0.283   8.638 -1.7125  0.7325  4.0944
  954SOL     OW14839   2.614   9.185   4.475 -0.4281 -0.5506  0.5125
  954SOL    HW114840   2.622   9.276   4.448  0.5015 -0.6965  0.2692
  954SOL    HW214841   2.552   9.188   4.548 -0.1046  0.3367  0.7740
  955SOL     OW14842  10.321  10.114   6.945  0.4045 -0.1650 -0.0514
  955SOL    HW114843  10.262  10.182   6.912  1.7602  0.7992 -0.5974
  955SOL    HW214844  10.374  10.158   7.011  1.9915 -0.3799 -1.1248
  956SOL     OW14845   4.041   7.803   6.205  0.1061  0.0504 -0.6024
  956SOL    HW114846   4.047   7.889   6.247  0.8174 -0.4256  0.3092
  956SOL    HW214847   4.042   7.822   6.111 -0.1620  1.0594 -0.4086
  957SOL     OW14848  10.120   0.796   5.565 -0.1995 -0.1603  0.1213
  957SOL    HW114849  10.128   0.877   5.515  0.2883 -0.0222  0.4179
  957SOL    HW214850  10.049   0.812   5.627 -1.1167 -0.4879 -0.8099
  958SOL     OW14851   8.779   4.825   0.781 -0.5450  0.4370  0.5181
  958SOL    HW114852   8.710   4.881   0.817 -3.7255 -1.3402 -2.2049
  958SOL    HW214853   8.830   4.883   0.725 -1.8690  1.2412  0.0921
  959SOL     OW14854   3.718   2.845   2.383  0.4591 -0.0153  0.1330
  959SOL    HW114855   3.748   2.785   2.314  2.0933  0.1631  0.6373
  959SOL    HW214856   3.633   2.810   2.410 -0.2573 -0.0459 -1.9988
  960SOL     OW14857  10.143   9.935   5.866 -0.4666  0.0310  0.1656
  960SOL    HW114858  10.084   9.889   5.806 -1.1786 -0.4068  1.1584
  960SOL    HW214859  10.113  10.026   5.865 -2.0805 -0.4197  1.6424
  961SOL     OW14860   4.759   2.233   9.567  0.0063 -0.1747  0.2415
  961SOL    HW114861   4.763   2.264   9.658  0.8293 -1.0696  0.5273
  961SOL    HW214862   4.844   2.256   9.530  0.2255 -1.1161  0.1427
  962SOL     OW14863   0.763   7.732  10.025 -0.4539  0.7818  0.2479
  962SOL    HW114864   0.709   7.670  10.074  0.1013  1.7094  2.1329
  962SOL    HW214865   0.852   7.699  10.034 -0.2503  1.4059  0.5715
  963SOL     OW14866   8.871   2.336   8.101  0.6164 -0.3206  0.6257
  963SOL    HW114867   8.777   2.337   8.120  0.8540 -1.3704  2.0255
  963SOL    HW214868   8.906   2.412   8.148  0.0761  2.1020 -2.5897
  964SOL     OW14869   0.834   0.880   6.401 -0.6006  0.0878 -1.0740
  964SOL    HW114870   0.911   0.926   6.437  0.8330 -0.6653 -2.9816
  964SOL    HW214871   0.771   0.880   6.472  0.6261  2.0115  0.1104
  965SOL     OW14872   4.665   2.374   8.882  0.1533 -0.1248 -0.3757
  965SOL    HW114873   4.744   2.349   8.931 -0.1944  0.2433  0.3772
  965SOL    HW214874   4.699   2.415   8.802  0.7236 -0.3224 -0.2406
  966SOL     OW14875   5.705   9.583   8.750 -0.1465 -0.2340 -0.9790
  966SOL    HW114876   5.761   9.643   8.702 -0.5086  0.3748 -0.6480
  966SOL    HW214877   5.650   9.543   8.682 -1.0966  1.0932 -1.0248
  967SOL     OW14878   0.050   8.861   3.409  0.0535 -0.1052  0.0312
  967SOL    HW114879   0.018   8.829   3.325  0.4271 -1.1531  0.2787
  967SOL    HW214880   0.023   8.953   3.411  1.8737  0.5705 -2.1609
  968SOL     OW14881   1.070   3.794   4.001  0.2368 -0.1562  0.3862
  968SOL    HW114882   1.008   3.821   4.068 -0.7744  1.2577 -1.0463
  968SOL    HW214883   1.025   3.725   3.952 -0.4518  1.1503 -0.9094
  969SOL     OW14884   7.063   9.584   7.226  0.4666  0.0347 -0.4630
  969SOL    HW114885   7.033   9.529   7.153  0.0896  0.8931 -0.9749
  969SOL    HW214886   7.157   9.572   7.227  0.2029 -2.6113  1.0896
  970SOL     OW14887   0.061   2.639   5.332 -0.4396 -0.2582  0.2505
  970SOL    HW114888   0.087   2.553   5.298 -0.1282  0.4348 -1.3802
  970SOL    HW214889  -0.000   2.620   5.403 -0.1093 -1.8272  0.1426
  971SOL     OW14890   6.786   3.483   6.882  0.3802  0.2960  0.0657
  971SOL    HW114891   6.736   3.513   6.806  3.1249  0.9589 -1.6046
  971SOL    HW214892   6.780   3.556   6.944  1.1001  1.3492 -1.0546
  972SOL     OW14893   5.149   2.385   9.100 -0.1571  0.4925  0.0312
  972SOL    HW114894   5.193   2.339   9.029 -2.6954  0.6782 -1.7976
  972SOL    HW214895   5.097   2.317   9.143 -1.1706  0.9630 -0.4189
  973SOL     OW14896  10.223   7.760   3.940  0.5958 -0.5716 -0.3090
  973SOL    HW114897  10.157   7.806   3.992  1.5790  0.4104  0.0927
  973SOL    HW214898  10.234   7.816   3.862  1.4477 -0.3576 -0.0429
  974SOL     OW14899   4.670   6.579   6.972 -0.6921 -0.1617  0.7999
  974SOL    HW114900   4.633   6.590   6.884 -1.5539 -1.6933  0.9422
  974SOL    HW214901   4.601   6.536   7.022  0.5624 -1.2925  1.6292
  975SOL     OW14902   7.662   2.311   9.230 -0.1888  0.1500 -0.1180
  975SOL    HW114903   7.585   2.290   9.283 -1.2463 -0.7439 -1.9254
  975SOL    HW214904   7.656   2.252   9.154  1.2087  1.4396 -1.2903
  976SOL     OW14905   4.974   0.671   0.991  0.0013  0.0923  0.0351
  976SOL    HW114906   5.040   0.702   1.053  0.0743 -0.9180  0.4690
  976SOL    HW214907   4.975   0.576   0.999 -1.9998  0.0594  0.5703
  977SOL     OW14908   3.726   1.445   6.108  0.3363  0.2057  0.5775
  977SOL    HW114909   3.673   1.450   6.187 -0.6668  0.4400 -0.0970
  977SOL    HW214910   3.792   1.378   6.128 -0.0114  0.1304  1.5371
  978SOL     OW14911   5.529   4.651   0.363 -0.2077  0.6501 -0.3562
  978SOL    HW114912   5.458   4.700   0.322 -0.8174  0.4861  0.4749
  978SOL    HW214913   5.535   4.570   0.312 -0.7093  0.6057 -0.3478
  979SOL     OW14914   3.497   6.808   3.458  0.3031  0.1621 -0.1554
  979SOL    HW114915   3.500   6.861   3.538  0.4621 -1.1605  0.7616
  979SOL    HW214916   3.470   6.721   3.489 -1.0135 -0.0428 -1.7512
  980SOL     OW14917   3.130   5.802   5.630  0.2347  0.4168  0.3947
  980SOL    HW114918   3.112   5.792   5.724  2.6402 -0.9980  0.7996
  980SOL    HW214919   3.208   5.749   5.615  1.6682  2.8821 -1.8305
  981SOL     OW14920   7.351   1.190   0.941 -0.1602 -0.0681  0.0211
  981SOL    HW114921   7.387   1.112   0.983  1.9873  1.3859  1.0673
  981SOL    HW214922   7.399   1.198   0.859  0.5655  0.8073  0.5091
  982SOL     OW14923   1.782   4.992   6.036 -0.1071 -0.4469  0.1943
  982SOL    HW114924   1.822   4.970   6.121 -2.1879 -0.5974  1.1952
  982SOL    HW214925   1.824   5.074   6.011  2.1444 -1.5144  0.2469
  983SOL     OW14926   1.807   0.275   3.678 -0.1624 -0.5223 -0.2933
  983SOL    HW114927   1.886   0.286   3.624  1.0206 -1.2875  1.2164
  983SOL    HW214928   1.821   0.334   3.752 -1.8336  0.6240 -0.8260
  984SOL     OW14929   0.128   3.793   2.558  0.0748 -0.5200 -0.0824
  984SOL    HW114930   0.140   3.736   2.633 -0.8367 -1.3350 -0.5399
  984SOL    HW214931   0.084   3.739   2.493 -0.7087  0.6673 -0.5726
  985SOL     OW14932   8.014   9.321   9.869  0.1444 -0.5497 -0.1074
  985SOL    HW114933   7.958   9.289   9.940  0.3817  0.6755  0.6623
  985SOL    HW214934   7.970   9.401   9.839  0.7973 -0.2892 -0.3673
  986SOL     OW14935   3.419   7.416   4.287  0.5571 -0.2845 -0.3669
  986SOL    HW114936   3.408   7.479   4.358 -1.7384  0.6099 -1.4156
  986SOL    HW214937   3.513   7.401   4.283  0.8751  0.5720  2.0259
  987SOL     OW14938  10.391   0.126   4.750  0.1965  0.2364 -0.1381
  987SOL    HW114939  10.382   0.083   4.665  1.2780  1.1875 -0.7632
  987SOL    HW214940  10.411   0.054   4.811  0.8570 -0.2975 -0.9500
  988SOL     OW14941   9.211   9.474  10.158 -0.5918  0.3636 -1.2185
  988SOL    HW114942   9.174   9.561  10.174 -0.9905  0.4056 -2.2292
  988SOL    HW214943   9.228   9.473  10.063  1.4315  0.1077 -0.8830
  989SOL     OW14944   3.295   5.386   5.524 -0.4031  0.6790  0.5308
  989SOL    HW114945   3.241   5.460   5.496 -0.8746  0.8179  1.7520
  989SOL    HW214946   3.339   5.357   5.444 -4.7568 -1.6048 -1.3774
  990SOL     OW14947  10.209   8.800   0.925  0.0749  0.0667 -0.0312
  990SOL    HW114948  10.267   8.724   0.918 -1.1625 -0.8277 -0.9563
  990SOL    HW214949  10.137   8.771   0.981 -1.7290 -0.3681 -2.4143
  991SOL     OW14950   2.807   1.032   1.290  0.3036  0.2483  0.4629
  991SOL    HW114951   2.712   1.025   1.302  0.1991  1.4757  0.4483
  991SOL    HW214952   2.824   0.980   1.211 -0.4290  0.4476  0.1587
  992SOL     OW14953   2.295   3.164   9.257  0.4855  0.1455 -0.2100
  992SOL    HW114954   2.262   3.214   9.183  1.3314  0.1527 -0.5906
  992SOL    HW214955   2.253   3.078   9.248 -2.8260  1.3717  1.7422
  993SOL     OW14956   3.541   6.217  10.224  0.1052 -0.4368  0.7267
  993SOL    HW114957   3.534   6.258  10.138 -1.1612  2.8370  2.1897
  993SOL    HW214958   3.452   6.184  10.242  0.2188 -0.6024  0.9881
  994SOL     OW14959   1.143   1.103   5.555  0.3197 -0.0571  0.2728
  994SOL    HW114960   1.095   1.087   5.474  1.2920  1.8383 -0.7554
  994SOL    HW214961   1.075   1.105   5.623 -0.7498  0.1365 -0.7652
  995SOL     OW14962   9.715   0.433   8.720  0.0280  0.5053  0.5827
  995SOL    HW114963   9.808   0.436   8.696 -0.4731 -1.4697 -2.0372
  995SOL    HW214964   9.713   0.380   8.800  1.1817  1.4689  1.3009
  996SOL     OW14965   2.664   0.220   2.751  0.3588  0.0194  0.5536
  996SOL    HW114966   2.746   0.214   2.702  0.5374  1.7445  0.5775
  996SOL    HW214967   2.627   0.305   2.727 -2.2698 -1.3308 -0.6856
  997SOL     OW14968   7.143   9.491  10.090 -0.1369 -0.6173 -0.1844
  997SOL    HW114969   7.109   9.545  10.019  1.4142 -0.3965 -0.7867
  997SOL    HW214970   7.229   9.529  10.110 -0.1994 -1.1759  1.2618
  998SOL     OW14971   8.086   7.837   0.765 -0.3264 -0.1073  0.0057
  998SOL    HW114972   8.135   7.898   0.710 -1.6103  0.3844 -0.6313
  998SOL    HW214973   8.060   7.767   0.706  0.6882 -1.0262  0.6226
  999SOL     OW14974   1.960   2.861   3.148  0.3116  0.0709 -0.6165
  999SOL    HW114975   1.898   2.797   3.183  0.4072 -0.1072 -0.7722
  999SOL    HW214976   2.034   2.809   3.116  0.2892  0.2367 -0.9497
 1000SOL     OW14977   3.057   8.125   7.952  0.3736 -0.6846 -0.1712
 1000SOL    HW114978   2.975   8.120   8.000  0.8520  1.5188  1.0467
 1000SOL    HW214979   3.120   8.157   8.017  1.4169  0.8975 -1.8479
 1001SOL     OW14980   0.702   4.885   1.665  0.0048 -0.6147 -0.6749
 1001SOL    HW114981   0.738   4.827   1.599 -0.3287  0.3301 -1.7119
 1001SOL    HW214982   0.614   4.906   1.634  0.0643  0.3185 -0.2648
 1002SOL     OW14983   9.352   6.354   3.554 -0.5058 -0.8278  0.1486
 1002SOL    HW114984   9.367   6.282   3.616  0.5650 -1.6226 -0.9979
 1002SOL    HW214985   9.286   6.409   3.598  1.0969 -0.6684  2.5396
 1003SOL     OW14986   4.427   3.546   6.946 -0.2700  0.0415  0.0460
 1003SOL    HW114987   4.413   3.502   6.863 -1.4692 -1.9053  1.2132
 1003SOL    HW214988   4.522   3.555   6.953 -0.1259 -0.3727 -1.2208
 1004SOL     OW14989   8.977   1.119   0.526  0.2182 -0.0377 -0.3580
 1004SOL    HW114990   8.937   1.117   0.613  2.0654  1.0249  0.5893
 1004SOL    HW214991   8.954   1.206   0.492 -0.3403 -0.3800 -0.8832
 1005SOL     OW14992   4.746   2.640   6.458  0.1307 -0.0101  0.6337
 1005SOL    HW114993   4.666   2.657   6.508 -0.5429 -1.7721  0.2355
 1005SOL    HW214994   4.814   2.632   6.524 -0.1815  0.6049  1.0451
 1006SOL     OW14995   6.646   7.681   0.015 -0.0266 -0.0160 -0.3729
 1006SOL    HW114996   6.732   7.697  -0.023  0.7690 -0.4443  1.1654
 1006SOL    HW214997   6.645   7.732   0.097 -0.7041 -1.0413  0.2885
 1007SOL     OW14998   3.608   1.103   6.683 -0.1983  0.3755  0.1258
 1007SOL    HW114999   3.590   1.193   6.656 -0.0045  0.4573  0.2675
 1007SOL    HW215000   3.533   1.078   6.736 -0.8376  0.0414 -0.8903
 1008SOL     OW15001   0.431   3.527   2.262  0.4697 -0.1902  0.6929
 1008SOL    HW115002   0.387   3.556   2.182  1.4440  0.3735  0.3519
 1008SOL    HW215003   0.385   3.447   2.286  0.2056 -0.4039 -0.4631
 1009SOL     OW15004   6.631   6.093   5.809 -0.0423 -0.7201 -0.4283
 1009SOL    HW115005   6.687   6.166   5.836 -1.8189  1.0926 -1.3919
 1009SOL    HW215006   6.604   6.052   5.892  2.3305 -1.4286  0.0609
 1010SOL     OW15007   3.727   1.951   8.147 -0.3410  0.2587  0.2956
 1010SOL    HW115008   3.753   1.999   8.069 -0.6058 -1.5558 -0.9925
 1010SOL    HW215009   3.754   1.860   8.129 -1.7756 -0.4802  1.6415
 1011SOL     OW15010   3.039   0.230  10.073  0.2082 -0.0091  0.4288
 1011SOL    HW115011   3.017   0.137  10.071 -0.8734  0.2491 -0.6698
 1011SOL    HW215012   2.955   0.275  10.072  0.7007  0.9867 -1.3984
 1012SOL     OW15013   9.302   8.838   4.676 -0.0017  0.6178 -0.4104
 1012SOL    HW115014   9.318   8.822   4.583 -0.2196  1.3944 -0.5849
 1012SOL    HW215015   9.290   8.933   4.683 -1.1094  0.4533  0.2257
 1013SOL     OW15016   7.474   7.853   1.386 -0.3940  0.0737 -0.3522
 1013SOL    HW115017   7.522   7.863   1.468  0.6560  0.4309 -0.9911
 1013SOL    HW215018   7.413   7.927   1.384  0.8260  1.1033 -0.7057
 1014SOL     OW15019   0.864   7.697   8.174 -0.1770 -0.1508  0.3576
 1014SOL    HW115020   0.787   7.732   8.130  0.6796  1.2403 -0.1049
 1014SOL    HW215021   0.889   7.621   8.122 -1.7550 -1.1937  1.0562
 1015SOL     OW15022   0.727   0.090   1.314  0.5102  0.5179 -0.2621
 1015SOL    HW115023   0.652   0.130   1.357  0.0255 -1.6118  1.0337
 1015SOL    HW215024   0.789   0.074   1.385  0.7361 -0.8211 -0.7326
 1016SOL     OW15025   0.938   5.504   2.932 -0.0117 -0.0710  0.4765
 1016SOL    HW115026   0.877   5.569   2.967 -2.4398 -1.6066 -0.6049
 1016SOL    HW215027   0.972   5.459   3.009 -0.0162  1.0334  1.1325
 1017SOL     OW15028   6.862   5.962   8.751  0.1920  0.3093 -0.0505
 1017SOL    HW115029   6.778   5.916   8.753 -0.5085  1.5651  0.7640
 1017SOL    HW215030   6.898   5.944   8.664 -0.5398 -0.8948 -0.1215
 1018SOL     OW15031   2.472   2.425   9.474  0.1395 -0.4608  0.0612
 1018SOL    HW115032   2.552   2.449   9.426 -0.5282 -0.2774 -0.9781
 1018SOL    HW215033   2.434   2.509   9.500  1.7153 -0.5373  3.0784
 1019SOL     OW15034   7.054   3.792   3.142 -0.3743  0.0406  0.6775
 1019SOL    HW115035   6.991   3.830   3.082  0.3086 -0.8518 -0.6427
 1019SOL    HW215036   7.061   3.700   3.116  1.4487  0.1151  0.7746
 1020SOL     OW15037   2.017   0.666   9.089 -0.6317  0.2053 -0.1990
 1020SOL    HW115038   2.016   0.581   9.046  0.5899  1.1314 -2.2165
 1020SOL    HW215039   1.938   0.710   9.058 -1.8762 -0.5180  1.7305
 1021SOL     OW15040   3.186  10.088   9.679  0.2436  0.7569 -0.4327
 1021SOL    HW115041   3.278  10.107   9.694  0.1680 -0.8882  3.1130
 1021SOL    HW215042   3.185  10.021   9.611  1.6982  0.3288 -0.0566
 1022SOL     OW15043   1.315   2.759   5.508 -0.7982  0.5563  0.0371
 1022SOL    HW115044   1.251   2.761   5.436  1.1499 -0.1931 -1.8183
 1022SOL    HW215045   1.314   2.847   5.543 -2.0155  0.8682 -0.7146
 1023SOL     OW15046  10.083   4.055   9.306  0.1825  0.4940 -0.3166
 1023SOL    HW115047  10.028   4.024   9.233 -1.0696  2.6811 -0.4073
 1023SOL    HW215048  10.172   4.038   9.277 -0.3433 -1.5115 -0.9746
 1024SOL     OW15049   3.574   3.255   4.992 -0.2383 -0.0879 -0.2232
 1024SOL    HW115050   3.479   3.260   5.000 -0.1331  0.4426  0.8411
 1024SOL    HW215051   3.607   3.296   5.072  0.8804 -0.8152 -0.2944
 1025SOL     OW15052   2.511   2.180   5.233  0.0365 -0.2725  0.5828
 1025SOL    HW115053   2.477   2.211   5.317  0.6125  1.0762  0.3352
 1025SOL    HW215054   2.577   2.114   5.257 -0.2981 -0.4031  1.1627
 1026SOL     OW15055   9.258   1.318   9.109 -0.3200  0.6590 -0.1275
 1026SOL    HW115056   9.264   1.366   9.027  0.9642  1.9531  0.6811
 1026SOL    HW215057   9.343   1.274   9.118 -1.0882 -0.9484 -0.3286
 1027SOL     OW15058  10.092   9.320   9.693  0.4723  0.1627 -0.2478
 1027SOL    HW115059  10.171   9.313   9.746  0.3408  0.5494  0.0109
 1027SOL    HW215060  10.078   9.232   9.657  0.8071  0.0042  0.0099
 1028SOL     OW15061   0.621   5.203   0.793  0.2699  0.0571 -0.6386
 1028SOL    HW115062   0.618   5.298   0.792 -0.8922  0.0428 -2.2870
 1028SOL    HW215063   0.564   5.176   0.721 -1.9488 -1.9329  1.6645
 1029SOL     OW15064   5.850   0.329   0.670 -0.2592 -0.2115  0.1884
 1029SOL    HW115065   5.797   0.326   0.591  2.1276 -1.1720 -1.4715
 1029SOL    HW215066   5.853   0.422   0.693  0.2266  0.2788 -1.7383
 1030SOL     OW15067   4.269   6.343   7.401  0.1903 -0.2731 -0.4469
 1030SOL    HW115068   4.261   6.436   7.423  0.1011 -0.3371 -0.2132
 1030SOL    HW215069   4.232   6.337   7.312 -0.4285 -0.2012 -0.1975
 1031SOL     OW15070   0.227   6.206   3.083 -0.3750 -0.5439  0.1510
 1031SOL    HW115071   0.153   6.249   3.041  0.4558  0.6474 -0.1652
 1031SOL    HW215072   0.211   6.112   3.071 -1.0459 -0.2712 -1.2829
 1032SOL     OW15073   5.496   5.019   0.243  0.7621  0.4924 -0.2032
 1032SOL    HW115074   5.458   4.932   0.230  1.2509  0.1349  0.7242
 1032SOL    HW215075   5.436   5.062   0.304  0.5904  0.7673 -0.5603
 1033SOL     OW15076   5.834   1.022   9.700 -0.3160 -0.1183  0.5123
 1033SOL    HW115077   5.836   0.940   9.751  0.4297 -1.2728 -1.2760
 1033SOL    HW215078   5.850   0.994   9.610  0.2933  2.0692 -0.1019
 1034SOL     OW15079   2.344   6.144   6.730  0.3496 -0.5007 -0.0026
 1034SOL    HW115080   2.271   6.146   6.668  1.1929  1.5110 -1.0097
 1034SOL    HW215081   2.333   6.061   6.777 -2.8536 -0.0983  0.2314
 1035SOL     OW15082   5.074   5.015   0.390 -0.2616  0.0097 -0.2891
 1035SOL    HW115083   5.085   5.089   0.449 -0.9601 -0.2541  0.1896
 1035SOL    HW215084   5.162   4.979   0.380  0.0207  0.6686 -0.2181
 1036SOL     OW15085   7.062   1.476   2.523  0.3893  0.2263  0.8561
 1036SOL    HW115086   7.025   1.464   2.610 -0.5701 -1.5905  0.2553
 1036SOL    HW215087   7.080   1.388   2.492 -1.6909  0.5894 -1.7657
 1037SOL     OW15088   8.590   2.989   6.855  0.0291  0.0888  0.1446
 1037SOL    HW115089   8.666   3.020   6.903 -1.1011  0.1033  2.0024
 1037SOL    HW215090   8.524   3.058   6.866 -0.2854  0.0741 -1.4209
 1038SOL     OW15091   1.148   5.994   3.636 -0.1374 -0.3850  0.9499
 1038SOL    HW115092   1.191   6.040   3.708 -1.2329  2.0450  0.1322
 1038SOL    HW215093   1.065   5.965   3.672 -0.1568 -0.2537  1.0110
 1039SOL     OW15094  10.014   5.412   8.862  0.0844  0.3441 -0.3950
 1039SOL    HW115095  10.061   5.495   8.876  0.2939  0.4329 -1.5066
 1039SOL    HW215096   9.936   5.419   8.916  0.6213  0.8218  0.3398
 1040SOL     OW15097   3.928   1.011   8.733 -0.3904  0.2122 -0.1234
 1040SOL    HW115098   3.850   0.983   8.781  1.4745 -1.7189  2.0475
 1040SOL    HW215099   3.958   0.931   8.688  1.7261  0.1883  1.2277
 1041SOL     OW15100   0.241   0.755   9.464 -0.1636 -0.5397 -0.2434
 1041SOL    HW115101   0.161   0.714   9.432 -0.3901  0.5514 -1.1430
 1041SOL    HW215102   0.210   0.832   9.512  0.3471 -0.0169 -0.7465
 1042SOL     OW15103   8.132   3.640   8.906 -0.8455 -0.2914 -0.1139
 1042SOL    HW115104   8.125   3.611   8.997  0.2356 -1.0520 -0.2504
 1042SOL    HW215105   8.098   3.566   8.855 -0.3476 -0.3441 -0.3727
 1043SOL     OW15106   7.289   8.324   1.397 -0.5467 -0.1664  0.1225
 1043SOL    HW115107   7.195   8.343   1.405 -0.6844 -1.1463  1.1483
 1043SOL    HW215108   7.330   8.408   1.380 -1.9996 -0.1491 -4.6017
 1044SOL     OW15109   3.671   9.229   8.078 -0.2355 -0.2261 -0.6081
 1044SOL    HW115110   3.756   9.271   8.064 -1.0536  1.6576 -0.2070
 1044SOL    HW215111   3.653   9.244   8.171 -0.1781 -2.2714 -0.2279
 1045SOL     OW15112   7.357   0.489   6.473  0.0926  0.0552 -0.2098
 1045SOL    HW115113   7.301   0.547   6.423 -1.0299 -1.4743 -0.7912
 1045SOL    HW215114   7.392   0.427   6.409 -0.8147 -1.5096  0.7439
 1046SOL     OW15115   4.555   1.670   5.805  0.2050 -0.0063  0.0448
 1046SOL    HW115116   4.511   1.604   5.750 -2.1261  0.9624  0.6449
 1046SOL    HW215117   4.540   1.753   5.759  0.4277  0.4907  0.8591
 1047SOL     OW15118   2.952   7.860   4.973 -0.0762 -0.9031  0.2652
 1047SOL    HW115119   2.906   7.932   5.015  0.4823  0.1101 -0.7939
 1047SOL    HW215120   3.016   7.831   5.037 -1.2132 -1.3912  1.2154
 1048SOL     OW15121   0.818   4.965   5.185 -0.4546  0.6287 -0.3362
 1048SOL    HW115122   0.821   5.046   5.236  1.0442  0.7335 -0.5590
 1048SOL    HW215123   0.777   4.901   5.244  0.3434  1.0049  0.6585
 1049SOL     OW15124   9.455   2.400   6.228 -0.0611 -0.0815  0.3626
 1049SOL    HW115125   9.461   2.330   6.292 -0.4669 -1.1082 -0.6870
 1049SOL    HW215126   9.443   2.356   6.144  1.0420  1.2079 -0.5221
 1050SOL     OW15127   0.876   3.847   2.747 -0.0584 -0.1164 -0.7638
 1050SOL    HW115128   0.892   3.934   2.784  0.8499 -0.2231 -0.8916
 1050SOL    HW215129   0.867   3.862   2.653  2.5550 -0.4271 -1.1270
 1051SOL     OW15130   3.557   6.482   3.062  0.1663 -0.1839 -0.0956
 1051SOL    HW115131   3.571   6.575   3.045 -0.4410 -0.0885 -0.1168
 1051SOL    HW215132   3.557   6.441   2.976  3.4536 -0.6959  0.0306
 1052SOL     OW15133   0.855   4.903   9.652  0.4593 -0.1553  0.0162
 1052SOL    HW115134   0.851   4.959   9.574 -0.1593  2.1481  1.6107
 1052SOL    HW215135   0.785   4.839   9.639  0.2867  0.2618 -1.2601
 1053SOL     OW15136   4.127   7.890   3.274 -0.0276  0.0287  0.4724
 1053SOL    HW115137   4.102   7.816   3.330  1.1616 -2.9525 -2.5664
 1053SOL    HW215138   4.216   7.912   3.302 -0.8478  1.3224  2.2483
 1054SOL     OW15139   5.163   6.633   7.478  0.3898 -0.1593 -0.0082
 1054SOL    HW115140   5.093   6.590   7.527  0.6260 -0.9587 -0.3686
 1054SOL    HW215141   5.204   6.563   7.428  0.7040  0.5060 -0.6961
 1055SOL     OW15142  10.388   9.175   4.455  0.6943 -0.1701 -0.3839
 1055SOL    HW115143  10.353   9.207   4.372  0.0862  1.8367  0.5845
 1055SOL    HW215144  10.456   9.112   4.430 -0.1090 -0.3170 -2.3670
 1056SOL     OW15145   6.219   1.602   9.852 -0.7746  0.3599  0.4376
 1056SOL    HW115146   6.206   1.508   9.844  0.3432  0.1331  1.0677
 1056SOL    HW215147   6.224   1.618   9.946  0.9994  0.7275  0.3193
 1057SOL     OW15148   4.405   0.590   6.704 -0.5349 -0.0841  0.1277
 1057SOL    HW115149   4.358   0.622   6.626 -2.2557 -1.2802  0.6055
 1057SOL    HW215150   4.440   0.505   6.677 -1.7730 -0.8510  0.8224
 1058SOL     OW15151   3.207   2.160   7.745 -0.2108 -0.3837  0.0547
 1058SOL    HW115152   3.172   2.073   7.764  0.4364 -0.9247 -1.0984
 1058SOL    HW215153   3.288   2.165   7.795 -1.4763  0.5904  2.1528
 1059SOL     OW15154   0.853   8.133   4.850  0.6699 -0.3198 -0.0294
 1059SOL    HW115155   0.787   8.127   4.780  1.0321 -1.4081 -0.2957
 1059SOL    HW215156   0.826   8.208   4.902  1.0826  1.3320 -2.0637
 1060SOL     OW15157   7.006  10.334   0.248 -0.5260  1.0935  0.3066
 1060SOL    HW115158   7.080  10.318   0.189  0.9985  2.2281  1.8223
 1060SOL    HW215159   6.972  10.420   0.222 -0.1505  1.3856  0.7816
 1061SOL     OW15160   6.246   7.299   9.691 -0.1240  0.3736 -0.3072
 1061SOL    HW115161   6.174   7.307   9.629 -0.0249 -0.6410 -0.5756
 1061SOL    HW215162   6.214   7.239   9.758  1.0151 -1.4889 -1.3298
 1062SOL     OW15163   7.435  10.387   2.143 -0.4579  0.0981  0.0879
 1062SOL    HW115164   7.529  10.386   2.124 -0.3790  0.3928  0.4438
 1062SOL    HW215165   7.393  10.365   2.060 -0.0249 -1.7957  0.3407
 1063SOL     OW15166   8.597   4.600   5.746  0.6666  0.1051 -0.2592
 1063SOL    HW115167   8.688   4.573   5.756 -0.4457 -4.2919  0.3912
 1063SOL    HW215168   8.590   4.626   5.654  2.6762  1.3032 -0.1280
 1064SOL     OW15169   1.402   2.809   3.753  0.0862 -0.2046 -0.1120
 1064SOL    HW115170   1.462   2.875   3.720 -0.5411  0.5968  0.2959
 1064SOL    HW215171   1.458   2.744   3.795  0.6399  1.0039  1.1163
 1065SOL     OW15172   1.177   9.005   9.494 -0.1814  0.2299  0.0954
 1065SOL    HW115173   1.144   9.084   9.538  1.2309  0.5014  0.7447
 1065SOL    HW215174   1.245   9.038   9.435  0.2203 -0.4706  0.1625
 1066SOL     OW15175   7.728   4.128   9.500  0.6555 -0.3463 -0.5735
 1066SOL    HW115176   7.777   4.048   9.520  2.7739  0.2726 -2.7488
 1066SOL    HW215177   7.654   4.098   9.447 -0.7636 -1.1748  1.7431
 1067SOL     OW15178   2.916   1.955   3.522 -0.1042  0.1529 -0.1951
 1067SOL    HW115179   2.966   1.952   3.440 -1.7270  0.2514 -1.2402
 1067SOL    HW215180   2.838   1.904   3.504 -0.7947  0.7211  1.0876
 1068SOL     OW15181   4.382   5.276   4.882 -0.2720  0.4433  0.5489
 1068SOL    HW115182   4.304   5.241   4.927 -1.0970  1.1890 -0.2598
 1068SOL    HW215183   4.416   5.342   4.942 -0.9731  0.9588  0.3994
 1069SOL     OW15184   7.913   6.638   2.401  0.2266 -0.0423 -0.7223
 1069SOL    HW115185   7.913   6.706   2.468 -2.3594 -0.5778 -0.0814
 1069SOL    HW215186   8.006   6.625   2.380  0.9857  1.4354  1.3936
 1070SOL     OW15187   8.486   6.522   8.298 -0.2922  0.1979  0.2478
 1070SOL    HW115188   8.547   6.520   8.224  0.7190  0.4090  1.0646
 1070SOL    HW215189   8.499   6.437   8.341 -1.8655 -0.5074 -0.5672
 1071SOL     OW15190   5.368   9.839   8.405 -0.2184 -0.6017  0.4533
 1071SOL    HW115191   5.439   9.792   8.362 -0.8172 -1.3705  0.2794
 1071SOL    HW215192   5.370   9.809   8.496  1.1482  1.1420  1.0480
 1072SOL     OW15193   6.493   4.222   2.899  0.0912 -0.2878  0.2350
 1072SOL    HW115194   6.415   4.167   2.890  0.1860 -0.5156  0.7983
 1072SOL    HW215195   6.542   4.183   2.971 -0.0092  0.7454  0.8789
 1073SOL     OW15196   2.400   7.098   8.145 -0.5385 -0.1173  0.0305
 1073SOL    HW115197   2.362   7.047   8.216  0.3423 -1.2999 -0.3178
 1073SOL    HW215198   2.482   7.132   8.180 -0.6258  0.2112 -0.0742
 1074SOL     OW15199   3.948   6.963   9.478 -0.2871  0.4105  0.2533
 1074SOL    HW115200   4.027   6.970   9.531 -0.6390  3.6655  0.5471
 1074SOL    HW215201   3.881   6.932   9.540 -0.2523  2.2518  1.2842
 1075SOL     OW15202   0.917   5.269   0.440  0.3579  0.3595  0.1349
 1075SOL    HW115203   1.007   5.282   0.410  0.5718  1.2552  1.0868
 1075SOL    HW215204   0.924   5.203   0.509 -0.2270 -2.2419 -2.1413
 1076SOL     OW15205   7.626   6.281   6.047  0.1633  0.6217  0.0163
 1076SOL    HW115206   7.562   6.269   6.118  1.0803  1.0427  0.9403
 1076SOL    HW215207   7.613   6.206   5.989  0.5045 -0.6316  1.5071
 1077SOL     OW15208   6.215   6.108   5.303  0.5814  0.2686  0.5224
 1077SOL    HW115209   6.246   6.138   5.388 -1.1898 -1.4899  1.8993
 1077SOL    HW215210   6.194   6.188   5.255  1.7447  1.3066  1.6657
 1078SOL     OW15211   8.101   2.008   4.035  0.3826 -0.2736 -0.8302
 1078SOL    HW115212   8.157   2.054   4.097 -0.0543 -0.9041  0.0592
 1078SOL    HW215213   8.035   1.965   4.090  0.0986 -1.0043 -1.7188
 1079SOL     OW15214   4.946   3.918   5.810  0.4973  0.4328 -0.6233
 1079SOL    HW115215   4.884   3.924   5.883  0.6253 -0.1826 -0.4532
 1079SOL    HW215216   5.015   3.981   5.832  1.6247 -1.2197  0.8890
 1080SOL     OW15217   5.498   3.748   5.121  0.3635 -0.2386  0.5383
 1080SOL    HW115218   5.492   3.671   5.064  0.3596  1.5436 -2.0595
 1080SOL    HW215219   5.407   3.767   5.145  0.2073 -0.1990 -0.0611
 1081SOL     OW15220   7.382   7.529   8.438  1.2560  0.3973  0.3660
 1081SOL    HW115221   7.383   7.524   8.533 -0.5562 -1.4471  0.3635
 1081SOL    HW215222   7.463   7.485   8.410 -0.1848 -3.0036  1.0703
 1082SOL     OW15223   9.417   5.219   3.678  0.4480 -0.1999  0.1322
 1082SOL    HW115224   9.402   5.125   3.682  1.3983 -0.3143  2.6719
 1082SOL    HW215225   9.510   5.228   3.658  0.0522  0.2929 -1.7505
 1083SOL     OW15226   4.406   7.896   2.706  0.1060  0.3137  0.0013
 1083SOL    HW115227   4.420   7.878   2.799  0.5010 -2.4759 -0.5055
 1083SOL    HW215228   4.488   7.869   2.665 -0.3349  0.8108 -1.2395
 1084SOL     OW15229   8.162   3.394   7.490 -0.0004 -0.0592  0.9524
 1084SOL    HW115230   8.116   3.320   7.451  0.8469 -0.4735  0.7066
 1084SOL    HW215231   8.248   3.359   7.515  0.5871  0.9430  0.4168
 1085SOL     OW15232   2.458   1.758   9.505  0.1394 -1.0723  0.2918
 1085SOL    HW115233   2.446   1.838   9.556  1.8471  0.5759 -1.6981
 1085SOL    HW215234   2.535   1.716   9.544  1.6416  0.3491 -1.0141
 1086SOL     OW15235  10.138  10.109   0.821 -0.4951 -0.1044 -0.3005
 1086SOL    HW115236  10.122  10.170   0.893 -1.0781  0.7387 -1.1281
 1086SOL    HW215237  10.106  10.025   0.854  0.9811 -0.1646  1.1258
 1087SOL     OW15238   2.945   0.607   7.745  0.9644 -0.2862  0.6656
 1087SOL    HW115239   3.040   0.592   7.739  1.2478  1.6985 -1.6142
 1087SOL    HW215240   2.927   0.613   7.838  3.3232  0.3963  1.1474
 1088SOL     OW15241   8.923   5.766   7.553  0.3530  0.2166 -0.2018
 1088SOL    HW115242   8.991   5.804   7.609  0.3033 -0.6382  0.4646
 1088SOL    HW215243   8.961   5.768   7.465  0.4940  1.4368 -0.1364
 1089SOL     OW15244   2.358   2.617   2.936 -0.3124  0.1878 -0.3917
 1089SOL    HW115245   2.310   2.627   2.853 -2.2038  1.1660  0.7529
 1089SOL    HW215246   2.391   2.527   2.933  0.6026  0.5155 -2.6514
 1090SOL     OW15247   6.680   6.512   4.475  0.5312 -0.0186  0.3255
 1090SOL    HW115248   6.718   6.556   4.551  0.4158 -0.3129  0.5552
 1090SOL    HW215249   6.661   6.423   4.506 -0.2307  0.0893  0.1793
 1091SOL     OW15250   3.289   0.944   0.313 -0.3557  0.2653  0.3487
 1091SOL    HW115251   3.248   0.884   0.376  0.5368 -2.2305 -1.3052
 1091SOL    HW215252   3.383   0.928   0.323 -0.1375  0.8942 -0.5960
 1092SOL     OW15253   1.312   3.092   8.593  0.1122 -0.0727 -0.0995
 1092SOL    HW115254   1.405   3.088   8.569 -0.1497  0.2017 -1.2223
 1092SOL    HW215255   1.270   3.135   8.519 -0.8198  0.4395  0.6999
 1093SOL     OW15256   5.638   8.483   5.950  0.2196  0.8063 -0.2515
 1093SOL    HW115257   5.614   8.521   5.866 -0.1555 -1.1347 -1.0864
 1093SOL    HW215258   5.557   8.442   5.981  0.3905  1.3850  0.9966
 1094SOL     OW15259   5.699   6.417   8.448  0.1901 -0.1912  0.3415
 1094SOL    HW115260   5.694   6.412   8.352  0.5910 -0.6032  0.3392
 1094SOL    HW215261   5.715   6.327   8.476 -0.4906 -0.1587  0.8358
 1095SOL     OW15262   9.763   8.410   7.720  0.5554  0.1124  0.2941
 1095SOL    HW115263   9.773   8.441   7.810  2.3438  0.0747  0.1491
 1095SOL    HW215264   9.802   8.322   7.721 -1.3092 -0.7567 -0.0723
 1096SOL     OW15265   4.904   4.207   6.101  0.3770 -0.2215 -0.1760
 1096SOL    HW115266   4.977   4.269   6.110 -0.3739  0.4933  1.1649
 1096SOL    HW215267   4.930   4.132   6.155  0.5528 -0.4090 -0.5110
 1097SOL     OW15268   6.989   1.337   0.598  0.0918 -0.0419  0.3455
 1097SOL    HW115269   7.009   1.416   0.547  0.9991 -0.5524 -0.0967
 1097SOL    HW215270   7.021   1.358   0.686 -0.7802  0.5416  0.5428
 1098SOL     OW15271   7.861   1.735   1.257  0.2297  0.1145  0.1600
 1098SOL    HW115272   7.820   1.676   1.321  0.4425 -0.0188  0.1747
 1098SOL    HW215273   7.787   1.777   1.213  0.0830  0.1749  0.4630
 1099SOL     OW15274   9.356   6.647   3.408 -0.5382  0.3279  0.2215
 1099SOL    HW115275   9.266   6.678   3.419 -1.0006  0.0311 -2.2213
 1099SOL    HW215276   9.350   6.578   3.343  1.4825  0.3260 -0.0196
 1100SOL     OW15277  10.095   6.785   4.261  0.1869  0.6625 -0.0721
 1100SOL    HW115278  10.122   6.761   4.350  2.7652  0.6660 -0.7490
 1100SOL    HW215279  10.131   6.873   4.248 -0.0551  0.6172 -1.1572
 1101SOL     OW15280   4.926   8.756   4.266  0.3152 -0.1315  0.2937
 1101SOL    HW115281   4.965   8.799   4.189 -1.4935 -1.8575 -1.7210
 1101SOL    HW215282   4.999   8.745   4.327  1.5601  2.4917 -0.5572
 1102SOL     OW15283   4.008  10.383   5.219 -0.1416 -0.5231 -0.2650
 1102SOL    HW115284   4.055  10.461   5.249 -1.4453  0.6415 -1.0600
 1102SOL    HW215285   4.076  10.320   5.197  0.9279 -0.1050  1.6235
 1103SOL     OW15286   9.794   2.816   3.451 -0.2459  0.4895  0.5903
 1103SOL    HW115287   9.778   2.901   3.493  0.9189  0.2255  1.6290
 1103SOL    HW215288   9.818   2.758   3.523 -0.1680 -0.4967 -0.2166
 1104SOL     OW15289   0.912   4.526   5.275  0.0629  0.0694 -0.0739
 1104SOL    HW115290   0.870   4.440   5.274 -1.5056  0.6251 -4.5827
 1104SOL    HW215291   0.840   4.588   5.269  1.2042  1.7670  2.3437
 1105SOL     OW15292   1.891   3.868   7.538  0.1658 -0.1957 -0.4535
 1105SOL    HW115293   1.802   3.841   7.517 -0.4626  0.0829  1.6133
 1105SOL    HW215294   1.944   3.789   7.528 -0.2822 -0.3497 -1.7548
 1106SOL     OW15295   1.537   8.815   0.122  0.7664  0.0291  0.6711
 1106SOL    HW115296   1.523   8.773   0.206 -1.9433 -0.5608  0.0146
 1106SOL    HW215297   1.453   8.854   0.100  1.4687  0.4232 -1.6250
 1107SOL     OW15298   7.507   6.265   6.339 -0.1075 -0.0751  0.0928
 1107SOL    HW115299   7.470   6.339   6.292  1.1394  1.4675  1.4406
 1107SOL    HW215300   7.455   6.190   6.310 -1.2615  1.2622 -1.4831
 1108SOL     OW15301   1.405   3.586   3.202  0.3693 -0.0887 -0.0022
 1108SOL    HW115302   1.423   3.536   3.122 -0.1975 -0.2853 -0.0128
 1108SOL    HW215303   1.388   3.519   3.268  0.3329  0.0800  0.1607
 1109SOL     OW15304   7.306   8.063   6.340  0.1361 -0.2772  0.0013
 1109SOL    HW115305   7.258   8.081   6.421  0.4056 -0.9097  0.2982
 1109SOL    HW215306   7.283   7.973   6.317  1.7839 -0.8630  0.5596
 1110SOL     OW15307   3.278   8.424   7.432  0.2037 -0.1756 -0.0491
 1110SOL    HW115308   3.351   8.381   7.477  0.1995 -0.2196 -0.0851
 1110SOL    HW215309   3.201   8.405   7.487  0.3558  0.5793  0.4406
 1111SOL     OW15310   9.677   6.984   4.904 -0.2576  0.5697  0.2652
 1111SOL    HW115311   9.677   7.055   4.840  0.8826 -0.9043 -1.4809
 1111SOL    HW215312   9.594   6.940   4.890  0.3863 -0.3267 -0.9573
 1112SOL     OW15313   8.526   6.755   6.796  0.4003 -0.2736 -0.0150
 1112SOL    HW115314   8.585   6.692   6.755  1.2939  0.4511  0.1064
 1112SOL    HW215315   8.445   6.749   6.745  1.7081  1.1584 -2.4726
 1113SOL     OW15316   9.046   0.510   2.610 -0.6408 -0.4904  0.2520
 1113SOL    HW115317   9.010   0.597   2.627 -0.4193 -0.1422 -0.9513
 1113SOL    HW215318   9.132   0.511   2.654 -1.0861 -0.4981  1.1503
 1114SOL     OW15319   5.022   4.828   5.513  0.3186 -0.4373 -0.5801
 1114SOL    HW115320   4.962   4.855   5.582  1.2416  2.3224 -0.7085
 1114SOL    HW215321   5.070   4.908   5.491  0.4841 -1.3279 -4.0062
 1115SOL     OW15322   6.088   2.926   7.277  0.2766  0.0891 -0.3133
 1115SOL    HW115323   6.176   2.893   7.265  0.3084  0.2998 -0.6786
 1115SOL    HW215324   6.098   3.021   7.279  0.0449  0.1192 -0.4846
 1116SOL     OW15325   9.494   0.123   8.047  0.3824  0.1830 -0.4341
 1116SOL    HW115326   9.458   0.171   8.121 -0.8364  1.5827 -1.8539
 1116SOL    HW215327   9.545   0.188   7.999  2.8906 -1.1792  0.2144
 1117SOL     OW15328   5.171   7.640   3.827 -0.3170 -0.2392 -0.1516
 1117SOL    HW115329   5.092   7.659   3.879  0.3343  0.3489  0.6455
 1117SOL    HW215330   5.179   7.714   3.767  1.7857  1.8422  2.4320
 1118SOL     OW15331  10.332   6.911  10.007  0.0675 -0.6820  0.0668
 1118SOL    HW115332  10.399   6.880   9.946 -0.9695 -1.2671 -0.7992
 1118SOL    HW215333  10.249   6.880   9.971 -0.7299  0.3878  0.8928
 1119SOL     OW15334   9.329   1.526   7.589 -0.3566  0.2202 -0.3045
 1119SOL    HW115335   9.396   1.533   7.522 -0.7826 -1.3950 -0.9509
 1119SOL    HW215336   9.258   1.584   7.559  0.0505  0.6320 -0.4735
 1120SOL     OW15337   7.179   7.488   5.036  0.8102  0.2538 -0.4040
 1120SOL    HW115338   7.089   7.472   5.065  0.8825  2.8516  1.6335
 1120SOL    HW215339   7.191   7.430   4.961 -2.7340  0.2168 -1.1110
 1121SOL     OW15340   7.692   6.383   1.963 -0.0934 -0.2094  0.4367
 1121SOL    HW115341   7.721   6.391   1.873 -2.5375  1.5090 -0.3088
 1121SOL    HW215342   7.742   6.448   2.011 -1.2544  1.4128 -0.4546
 1122SOL     OW15343   5.032   0.798   9.232  0.5125  0.2855  0.0573
 1122SOL    HW115344   5.003   0.722   9.182 -1.2918  1.3986 -0.6701
 1122SOL    HW215345   5.073   0.856   9.167 -1.7612  1.6996 -0.2107
 1123SOL     OW15346   0.028  10.178   0.779 -0.5125  0.3021  0.4047
 1123SOL    HW115347   0.076  10.172   0.697 -0.5146 -0.8209  0.4691
 1123SOL    HW215348  -0.064  10.179   0.754 -0.6615 -2.9391  0.4365
 1124SOL     OW15349   0.262   4.281   2.579  0.1756  0.1369  0.8759
 1124SOL    HW115350   0.200   4.213   2.608  0.6758 -0.7714 -0.1023
 1124SOL    HW215351   0.208   4.359   2.568 -0.8996 -0.7413 -0.3791
 1125SOL     OW15352   1.686   3.408   8.544  0.6054  0.7397 -0.3999
 1125SOL    HW115353   1.745   3.405   8.619  0.3190  1.5825 -0.1300
 1125SOL    HW215354   1.743   3.390   8.469  0.4113 -3.2479  0.1905
 1126SOL     OW15355   7.297   9.899   3.902  0.6070  0.3430 -0.2932
 1126SOL    HW115356   7.382   9.867   3.933 -0.6762 -1.9567  1.2155
 1126SOL    HW215357   7.314   9.928   3.812  3.6149  3.1432  0.9726
 1127SOL     OW15358   5.752   9.004   6.254 -0.0874  0.4156  0.6803
 1127SOL    HW115359   5.684   9.059   6.293  1.0302  0.8439  2.1159
 1127SOL    HW215360   5.781   9.052   6.176 -1.9372 -0.1580 -0.4185
 1128SOL     OW15361   3.148   8.295   6.475  1.1632 -0.2109 -0.0652
 1128SOL    HW115362   3.096   8.346   6.412  1.5808 -0.3670 -0.5405
 1128SOL    HW215363   3.101   8.306   6.558 -1.4027 -2.7478 -0.9891
 1129SOL     OW15364   1.823   1.600   4.973  0.5103 -0.4961  0.2078
 1129SOL    HW115365   1.746   1.577   4.922  1.8265 -1.0006 -1.6809
 1129SOL    HW215366   1.807   1.562   5.059 -0.8732 -1.5320 -0.4576
 1130SOL     OW15367   5.016   7.973   7.784  0.0956 -0.0242  0.6272
 1130SOL    HW115368   5.101   7.970   7.739  0.1444  1.3221  0.5644
 1130SOL    HW215369   4.951   7.974   7.714  0.1090  0.6011  0.6178
 1131SOL     OW15370   1.353   9.689   9.212  0.7866  0.3640  0.1827
 1131SOL    HW115371   1.338   9.693   9.306  0.7182 -2.1103  0.3334
 1131SOL    HW215372   1.276   9.645   9.177  2.8152 -3.0572 -0.3663
 1132SOL     OW15373   7.925   2.148   9.293  0.7791  0.2833  0.5210
 1132SOL    HW115374   7.881   2.231   9.278  1.2968  0.2109 -1.7779
 1132SOL    HW215375   8.019   2.169   9.290  1.0072  0.1355  3.5282
 1133SOL     OW15376   3.425   9.516   9.325 -0.3175 -0.5065 -0.2212
 1133SOL    HW115377   3.441   9.426   9.355 -2.6603 -1.3577 -1.3015
 1133SOL    HW215378   3.483   9.569   9.378  0.3071 -2.5405  1.2736
 1134SOL     OW15379   2.599   2.562   4.774  0.4244 -0.6031 -0.1006
 1134SOL    HW115380   2.504   2.550   4.773  0.4579 -0.9715  0.5371
 1134SOL    HW215381   2.629   2.509   4.847  0.7429  2.2280  1.9988
 1135SOL     OW15382   2.628   7.962   7.042 -0.6306  0.6826 -0.6119
 1135SOL    HW115383   2.641   7.992   6.951 -1.6762  1.7784 -0.4173
 1135SOL    HW215384   2.655   8.037   7.095  0.6522 -0.2037  0.0274
 1136SOL     OW15385   5.093   0.022   6.356 -0.0370 -0.0174 -0.2327
 1136SOL    HW115386   5.141   0.088   6.407  1.1776 -0.8004 -0.3334
 1136SOL    HW215387   5.016   0.069   6.324  0.7287  1.3262 -0.2014
 1137SOL     OW15388   9.009   1.281   0.921 -0.2118 -0.2090  0.1631
 1137SOL    HW115389   8.978   1.362   0.881  0.4124 -0.6571 -1.3084
 1137SOL    HW215390   8.930   1.240   0.958 -1.0618 -0.3260 -1.6589
 1138SOL     OW15391   0.535   7.756   1.443 -0.0787  0.1371  0.1878
 1138SOL    HW115392   0.440   7.765   1.434 -0.0482  0.7193  0.4295
 1138SOL    HW215393   0.558   7.690   1.378 -0.6535 -0.0386  0.1520
 1139SOL     OW15394   3.135  10.227   6.188 -0.2763  0.1590  0.2973
 1139SOL    HW115395   3.205  10.163   6.206  0.2744  0.9887  1.1949
 1139SOL    HW215396   3.075  10.218   6.262  0.9531  2.1848  1.6317
 1140SOL     OW15397   4.554   7.320   9.904 -0.7503  0.2888 -0.5983
 1140SOL    HW115398   4.520   7.311   9.993 -0.7080 -1.9148 -0.7396
 1140SOL    HW215399   4.482   7.361   9.855 -1.5504 -0.2937  0.0482
 1141SOL     OW15400   1.327   4.757   3.603 -0.0843  0.7524 -0.8275
 1141SOL    HW115401   1.345   4.773   3.696  0.2976 -1.5385 -0.4449
 1141SOL    HW215402   1.413   4.758   3.562 -0.1327  0.4907 -0.9338
 1142SOL     OW15403   4.747   2.603   6.914 -0.3909  0.0979  0.2417
 1142SOL    HW115404   4.683   2.584   6.845  0.6117  0.9942 -0.9857
 1142SOL    HW215405   4.732   2.535   6.980 -1.9797 -0.2535 -0.4302
 1143SOL     OW15406   0.505   9.520  10.216  0.7461 -0.2588  0.1494
 1143SOL    HW115407   0.424   9.492  10.174  0.1825 -0.2818  1.2261
 1143SOL    HW215408   0.545   9.581  10.154 -2.1293  3.0784  1.2564
 1144SOL     OW15409   4.973   6.462   2.216  0.1873 -0.4064  0.4142
 1144SOL    HW115410   5.059   6.421   2.223  0.3842 -0.4665 -1.7026
 1144SOL    HW215411   4.916   6.392   2.185  0.3073  0.5589 -2.2497
 1145SOL     OW15412   4.821   1.493   3.297 -0.2311  0.5554  0.1176
 1145SOL    HW115413   4.728   1.470   3.286  0.3172 -1.0897 -1.6712
 1145SOL    HW215414   4.851   1.513   3.208  1.3251  0.2710  0.5515
 1146SOL     OW15415   0.830   7.613   2.178  0.0222  0.0688  0.2347
 1146SOL    HW115416   0.824   7.565   2.261 -1.3476  1.3390  0.9181
 1146SOL    HW215417   0.905   7.671   2.189  0.5764 -0.6142  0.1079
 1147SOL     OW15418   0.151   6.526   5.526  0.3394 -0.1727  0.6461
 1147SOL    HW115419   0.095   6.456   5.491 -1.6382  0.7831  1.7247
 1147SOL    HW215420   0.110   6.551   5.609  1.2514  1.9452  0.5329
 1148SOL     OW15421   1.111   3.163   8.158  0.2278 -0.2603  0.0821
 1148SOL    HW115422   1.113   3.204   8.071  1.1355  1.3735  0.8376
 1148SOL    HW215423   1.019   3.140   8.171 -0.1871  0.8470 -0.7022
 1149SOL     OW15424   9.553   5.342   9.160  0.2633 -0.4989 -0.2388
 1149SOL    HW115425   9.563   5.375   9.250 -0.6612 -1.5485  0.2658
 1149SOL    HW215426   9.627   5.381   9.113  0.8203  0.0068  0.9905
 1150SOL     OW15427   3.384   9.614   2.540 -0.7896  0.2423  0.5349
 1150SOL    HW115428   3.465   9.617   2.489 -0.6334  0.2539  0.7857
 1150SOL    HW215429   3.316   9.638   2.477 -0.6821 -0.4332  0.1578
 1151SOL     OW15430   0.846   3.102   9.696  0.1109  0.2106 -0.6887
 1151SOL    HW115431   0.848   3.050   9.616 -2.3536 -1.2935  0.1147
 1151SOL    HW215432   0.799   3.182   9.672 -0.3896 -0.1193 -0.8111
 1152SOL     OW15433   7.817   3.823   8.714  0.0020  0.3805 -0.1707
 1152SOL    HW115434   7.905   3.838   8.680  0.3813 -0.7156  0.3100
 1152SOL    HW215435   7.764   3.808   8.636  0.3001  0.6904 -0.4411
 1153SOL     OW15436   1.333   5.259   2.337  0.1471 -0.2539  0.2404
 1153SOL    HW115437   1.269   5.270   2.407 -0.5265 -1.2168 -0.2096
 1153SOL    HW215438   1.327   5.340   2.286  0.0343  0.0917  0.7910
 1154SOL     OW15439   8.554   2.207   4.229 -0.3441 -0.3463  0.2914
 1154SOL    HW115440   8.509   2.243   4.306 -2.7398 -0.6366 -0.8990
 1154SOL    HW215441   8.576   2.117   4.254  0.7652  0.1756  1.3243
 1155SOL     OW15442   7.442   0.537   3.281  0.3135 -0.3719 -0.4322
 1155SOL    HW115443   7.519   0.585   3.312 -0.0739  0.7931 -1.1908
 1155SOL    HW215444   7.458   0.447   3.308  1.6625 -0.0509 -0.0469
 1156SOL     OW15445   8.013   3.046   6.613  0.2255  0.0278 -0.7623
 1156SOL    HW115446   7.940   3.068   6.671  0.7787 -0.8824  0.3176
 1156SOL    HW215447   8.037   3.129   6.572  0.5880  0.9728  1.2299
 1157SOL     OW15448   1.056   5.883   6.488 -0.0795 -0.1042  0.2028
 1157SOL    HW115449   1.042   5.789   6.501 -1.5048  0.0518 -0.0471
 1157SOL    HW215450   0.972   5.915   6.457  0.3751  1.2762  0.3546
 1158SOL     OW15451   7.640   9.447   8.252 -0.2253 -0.5870  0.1066
 1158SOL    HW115452   7.645   9.534   8.292  0.2828 -0.1309 -0.8971
 1158SOL    HW215453   7.719   9.402   8.283  1.0913  0.3644 -1.6513
 1159SOL     OW15454   4.644   6.661   7.325  0.0886 -0.7543 -0.0404
 1159SOL    HW115455   4.580   6.633   7.260  0.9306  0.0318 -1.2380
 1159SOL    HW215456   4.653   6.585   7.383 -0.6084 -1.4999 -0.8755
 1160SOL     OW15457   2.720   2.604   5.342 -0.2689 -0.7693 -0.3242
 1160SOL    HW115458   2.717   2.522   5.392 -0.0861 -1.7841 -1.8757
 1160SOL    HW215459   2.767   2.580   5.261  1.9231  1.4343  0.1568
 1161SOL     OW15460   2.276   8.554   7.264 -0.1650  0.0355  0.6056
 1161SOL    HW115461   2.290   8.536   7.172 -0.9140  1.6270  0.1443
 1161SOL    HW215462   2.238   8.474   7.299 -1.1646 -0.1235 -0.7826
 1162SOL     OW15463   9.007   7.046   0.298 -0.0847 -0.0484  0.4678
 1162SOL    HW115464   9.011   6.962   0.252 -0.7386 -0.2639  0.7873
 1162SOL    HW215465   8.997   7.111   0.228  1.3077 -0.1412  0.1584
 1163SOL     OW15466   9.585  10.169   2.634  0.0142  0.1666  0.4444
 1163SOL    HW115467   9.635  10.238   2.590 -0.6481  0.3351 -0.0710
 1163SOL    HW215468   9.616  10.088   2.594 -2.3200  0.4549 -2.2370
 1164SOL     OW15469   9.334   5.989   7.226  0.0017 -0.1715 -0.0657
 1164SOL    HW115470   9.399   6.055   7.200  0.8244 -0.8807  0.1698
 1164SOL    HW215471   9.347   5.917   7.165  1.8261 -1.7826  2.1038
 1165SOL     OW15472   9.108   7.323   2.981 -0.3592 -0.3527 -0.6661
 1165SOL    HW115473   9.021   7.284   2.994 -0.3140 -0.2142  0.0887
 1165SOL    HW215474   9.107   7.354   2.890 -0.9757 -0.6586 -0.7710
 1166SOL     OW15475   9.178   9.637   7.261  0.3491  0.2850  0.1777
 1166SOL    HW115476   9.260   9.682   7.243  1.1781 -1.9219 -2.0838
 1166SOL    HW215477   9.193   9.546   7.234 -2.7747 -0.2581 -0.1801
 1167SOL     OW15478   9.850   5.679   3.399  0.0249 -0.1069 -0.1900
 1167SOL    HW115479   9.798   5.759   3.414 -0.0299 -0.1997  0.1281
 1167SOL    HW215480   9.865   5.678   3.305  0.0814  0.3154 -0.1884
 1168SOL     OW15481   2.961   8.581   6.527  0.1257  0.6471 -0.4425
 1168SOL    HW115482   2.967   8.549   6.437  0.3383  1.2105 -0.6323
 1168SOL    HW215483   3.030   8.647   6.534  0.6508  0.0281  0.3853
 1169SOL     OW15484   7.084   8.822   7.600 -0.0657  0.2500 -0.1835
 1169SOL    HW115485   7.010   8.841   7.542  2.1470  2.0639 -2.6408
 1169SOL    HW215486   7.142   8.767   7.547  0.1046 -1.7977  1.9634
 1170SOL     OW15487   9.340   4.200   9.934  0.1547 -0.2810  0.3615
 1170SOL    HW115488   9.322   4.214  10.027 -1.4668  0.4102 -0.0205
 1170SOL    HW215489   9.268   4.245   9.889  0.9083 -0.6078 -1.2285
 1171SOL     OW15490   4.707   7.419   4.791  0.2561 -0.5001 -0.4574
 1171SOL    HW115491   4.700   7.448   4.882  1.4256  0.6417 -0.7053
 1171SOL    HW215492   4.622   7.378   4.772 -0.2181 -0.2186  0.9563
 1172SOL     OW15493   3.494   0.388   1.890  0.1165 -0.1894  0.0406
 1172SOL    HW115494   3.454   0.327   1.827 -0.1342  0.2939 -0.2796
 1172SOL    HW215495   3.496   0.472   1.843 -1.9104  0.6664  1.3498
 1173SOL     OW15496   3.603   3.456   8.895 -0.5864 -0.4231  0.3527
 1173SOL    HW115497   3.667   3.386   8.906 -1.2387 -1.2718 -0.9450
 1173SOL    HW215498   3.604   3.474   8.801 -1.3373  0.4394  0.5013
 1174SOL     OW15499   6.467   9.417   4.737  0.2897  0.0597 -0.2205
 1174SOL    HW115500   6.451   9.499   4.690 -2.5132 -0.5257 -0.4464
 1174SOL    HW215501   6.445   9.438   4.828 -1.5062 -0.6626 -0.4566
 1175SOL     OW15502   0.333   4.396  10.152 -0.5359 -0.5912 -0.1693
 1175SOL    HW115503   0.383   4.436  10.224  0.3765  1.3280 -1.7768
 1175SOL    HW215504   0.246   4.436  10.160 -0.1802  0.2994 -0.6291
 1176SOL     OW15505   8.267   5.124   0.466  0.3121 -0.0837 -0.4117
 1176SOL    HW115506   8.311   5.208   0.482 -0.4866  0.3414 -0.4096
 1176SOL    HW215507   8.245   5.092   0.554  1.1476 -0.6006 -0.3745
 1177SOL     OW15508   4.308   5.927   5.668  0.2012  0.1185  0.6626
 1177SOL    HW115509   4.308   5.874   5.748 -0.5972 -1.8414 -0.5557
 1177SOL    HW215510   4.228   5.901   5.622  0.5263  1.3680 -0.6667
 1178SOL     OW15511   3.829   4.797   0.911  0.1089 -0.1513  0.0443
 1178SOL    HW115512   3.904   4.836   0.955 -1.1223  2.1692  0.2302
 1178SOL    HW215513   3.781   4.753   0.981  0.2778  0.0404  0.2841
 1179SOL     OW15514   0.281   0.300   4.762 -0.0351 -0.9125  0.1768
 1179SOL    HW115515   0.257   0.337   4.677 -0.2140 -1.2341  0.0866
 1179SOL    HW215516   0.208   0.242   4.784  0.3046 -1.3071  0.2578
 1180SOL     OW15517   0.601   2.834   4.644 -0.0418 -0.1318 -0.0423
 1180SOL    HW115518   0.578   2.909   4.698 -0.7607  0.1972 -0.7793
 1180SOL    HW215519   0.549   2.761   4.679  1.3182 -0.5266  1.2386
 1181SOL     OW15520   3.384   8.766   1.194  0.0826 -0.1349  0.4606
 1181SOL    HW115521   3.442   8.694   1.218 -0.8712 -0.3764  2.2154
 1181SOL    HW215522   3.361   8.749   1.102 -0.2301 -2.1663  0.8672
 1182SOL     OW15523   7.148   5.075   5.955  0.1877  0.2001  0.1991
 1182SOL    HW115524   7.168   5.154   5.904  1.0538 -1.3512 -2.0325
 1182SOL    HW215525   7.234   5.035   5.970 -0.3481 -1.1189 -0.1355
 1183SOL     OW15526   7.124   6.212   1.248 -0.4851  0.2907 -0.3042
 1183SOL    HW115527   7.184   6.197   1.175  0.1234  1.0899  0.0139
 1183SOL    HW215528   7.037   6.205   1.209 -0.3034 -2.7304 -0.4326
 1184SOL     OW15529   1.128   5.033   4.238 -0.6111 -0.2297  0.2132
 1184SOL    HW115530   1.060   5.059   4.300  0.9057  2.0288  1.0296
 1184SOL    HW215531   1.080   5.015   4.157 -2.2998 -0.0976  1.1416
 1185SOL     OW15532   3.758   8.094   4.742  0.3632  0.0644 -0.9242
 1185SOL    HW115533   3.773   8.035   4.667 -0.8686 -0.8671 -0.4698
 1185SOL    HW215534   3.703   8.164   4.707 -0.1118 -0.3074 -0.9401
 1186SOL     OW15535   9.282   0.719   2.067  0.0405 -0.0966 -0.0263
 1186SOL    HW115536   9.305   0.683   1.981 -0.0660 -0.2304  0.0010
 1186SOL    HW215537   9.347   0.788   2.082  1.2600 -1.3553  0.6443
 1187SOL     OW15538   3.015   8.011   4.628 -0.2044 -0.3346  0.3634
 1187SOL    HW115539   2.921   8.007   4.640 -0.4051 -0.2332 -1.0338
 1187SOL    HW215540   3.043   8.083   4.685 -1.3160  1.2371 -0.9894
 1188SOL     OW15541   6.810   1.946   9.725 -0.1081  0.4199 -0.5029
 1188SOL    HW115542   6.838   1.854   9.722  2.5205  1.0978  0.3460
 1188SOL    HW215543   6.797   1.964   9.818  1.1959  1.3395 -0.4714
 1189SOL     OW15544   5.754   8.051   8.328 -0.2179 -0.5717 -0.2588
 1189SOL    HW115545   5.811   7.975   8.331  0.2990 -0.1580  0.8687
 1189SOL    HW215546   5.801   8.119   8.377 -0.7928  0.3913 -1.0004
 1190SOL     OW15547   3.636   1.076   4.303  0.2465  0.5153  0.1050
 1190SOL    HW115548   3.687   1.094   4.382  3.2941 -3.0910 -0.7600
 1190SOL    HW215549   3.576   1.006   4.328 -0.6130  1.0980 -0.2450
 1191SOL     OW15550   1.725   0.454   7.784 -0.2576 -0.1506 -0.1612
 1191SOL    HW115551   1.696   0.364   7.770 -2.2801  0.1172  1.6998
 1191SOL    HW215552   1.816   0.446   7.815 -0.4995 -1.5727  0.2367
 1192SOL     OW15553   1.375   0.859   9.932  0.1590  0.0156  0.2489
 1192SOL    HW115554   1.454   0.912   9.947  1.1620 -1.5941  0.8706
 1192SOL    HW215555   1.305   0.924   9.921  1.8838  1.6151 -2.6411
 1193SOL     OW15556   4.748   0.289   2.349  0.2222 -0.4016 -0.0519
 1193SOL    HW115557   4.663   0.254   2.375  0.0440  0.3470  0.4173
 1193SOL    HW215558   4.750   0.377   2.387  0.7213  0.0279 -1.0553
 1194SOL     OW15559   4.037   8.081   6.123 -0.8562  0.9886 -0.2287
 1194SOL    HW115560   4.020   8.131   6.203 -1.7911  0.8489 -0.3289
 1194SOL    HW215561   4.080   8.143   6.064  0.2356  0.9727  0.5235
 1195SOL     OW15562   2.214   6.261   0.463  0.5018 -0.0853  0.0750
 1195SOL    HW115563   2.207   6.354   0.483 -0.1495  0.8257 -3.6387
 1195SOL    HW215564   2.124   6.228   0.470  0.6306 -0.3268  0.7280
 1196SOL     OW15565   7.450   3.009   8.252 -0.3865 -0.8698 -0.3410
 1196SOL    HW115566   7.381   2.989   8.189  0.3466  0.6952 -1.7437
 1196SOL    HW215567   7.516   2.941   8.238 -0.7712 -1.2326 -0.4038
 1197SOL     OW15568   8.768   3.951   7.044 -0.1424  0.4293  0.3745
 1197SOL    HW115569   8.787   4.035   7.002  0.2499  0.4516  0.5865
 1197SOL    HW215570   8.674   3.940   7.034 -0.3761  1.4004  1.2486
 1198SOL     OW15571   1.804   1.529   5.791 -0.7956 -0.3903 -0.4399
 1198SOL    HW115572   1.879   1.556   5.844 -0.9886  1.0046 -0.8506
 1198SOL    HW215573   1.842   1.472   5.724  0.1895  1.4755 -1.5529
 1199SOL     OW15574   9.959   0.295   3.096  0.0849 -0.1075 -0.1674
 1199SOL    HW115575  10.046   0.267   3.124  0.9525  1.6449 -0.9662
 1199SOL    HW215576   9.899   0.239   3.145  1.6472 -1.3221  0.4417
 1200SOL     OW15577   0.415   8.943  10.119 -0.5923  0.2741 -0.6453
 1200SOL    HW115578   0.338   8.987  10.157  0.8745  1.1562  1.4454
 1200SOL    HW215579   0.413   8.855  10.156 -1.4661 -0.2570 -1.8967
 1201SOL     OW15580   9.546   8.572   6.006 -0.7011 -0.4411 -0.0141
 1201SOL    HW115581   9.496   8.570   6.088 -0.7047  0.6940  0.0386
 1201SOL    HW215582   9.486   8.535   5.941 -2.5996  2.8105 -0.3914
 1202SOL     OW15583   6.266   4.118   8.288 -0.1843 -0.0748  0.1338
 1202SOL    HW115584   6.188   4.173   8.278  0.1401  0.0824 -2.1596
 1202SOL    HW215585   6.338   4.180   8.296 -0.0420 -0.1789 -0.3057
 1203SOL     OW15586   4.641   6.545   4.837  0.0195  0.4649 -0.4277
 1203SOL    HW115587   4.697   6.530   4.913  0.4650  1.2176 -0.5994
 1203SOL    HW215588   4.657   6.636   4.812 -2.6454  1.3134  0.6258
 1204SOL     OW15589   1.964   5.959   6.500  0.6735 -0.3563  0.5169
 1204SOL    HW115590   1.989   5.875   6.464 -0.7754 -0.1145 -1.1937
 1204SOL    HW215591   1.868   5.955   6.507  0.4254  1.6165 -0.9465
 1205SOL     OW15592   8.485  10.210   9.127  0.0028 -0.2711 -0.3254
 1205SOL    HW115593   8.447  10.123   9.122  1.3316 -1.0348  1.6342
 1205SOL    HW215594   8.411  10.270   9.129 -0.9235 -1.2753 -2.2728
 1206SOL     OW15595   0.474   4.352   6.978  0.0088  0.9665  0.1223
 1206SOL    HW115596   0.391   4.326   6.936 -0.3797  0.9192  0.8990
 1206SOL    HW215597   0.527   4.272   6.977 -0.3037  0.7543  0.4428
 1207SOL     OW15598   2.229   2.485   7.561 -0.0461 -0.4752 -0.2808
 1207SOL    HW115599   2.144   2.523   7.541  0.9890  0.9215 -2.3267
 1207SOL    HW215600   2.231   2.402   7.514 -0.9115 -1.4258  1.2581
 1208SOL     OW15601   4.735   4.438   6.041 -0.5657  0.2896  0.1822
 1208SOL    HW115602   4.772   4.517   6.081  0.6940 -0.2352  0.1043
 1208SOL    HW215603   4.807   4.375   6.043 -0.9391 -0.2337 -1.5528
 1209SOL     OW15604   6.949   9.209   5.704 -0.2813 -0.3082  0.2295
 1209SOL    HW115605   6.972   9.195   5.612 -1.4300 -0.3260 -0.0676
 1209SOL    HW215606   6.934   9.120   5.738  2.9322 -0.5717  1.2363
 1210SOL     OW15607   7.176   6.011   9.717  0.1814  0.0909  0.3355
 1210SOL    HW115608   7.129   6.092   9.697  1.0274  0.5283  0.0397
 1210SOL    HW215609   7.225   5.992   9.636 -0.1683 -0.8296  0.3355
 1211SOL     OW15610  10.088   7.284   1.234 -0.1540 -0.3919  0.1277
 1211SOL    HW115611  10.047   7.198   1.242 -1.7069  0.3319  0.2113
 1211SOL    HW215612  10.099   7.297   1.140 -1.2339 -0.1019  0.0292
 1212SOL     OW15613   1.450   5.733   6.227  0.8592 -0.1383 -0.1483
 1212SOL    HW115614   1.418   5.705   6.141  2.5202  1.1555 -1.2531
 1212SOL    HW215615   1.539   5.699   6.232  0.3300 -1.3928  1.7020
 1213SOL     OW15616   1.457   2.073   6.104  0.1348  0.1952 -0.3344
 1213SOL    HW115617   1.504   2.154   6.124 -1.9433  1.3469  0.1301
 1213SOL    HW215618   1.479   2.015   6.177 -0.5106  1.3320  0.8145
 1214SOL     OW15619   0.626   8.245   8.354 -0.1545 -0.1160 -0.4056
 1214SOL    HW115620   0.706   8.202   8.326  0.2517 -0.0025  0.5282
 1214SOL    HW215621   0.649   8.286   8.437 -1.0487  0.3259 -0.3625
 1215SOL     OW15622   8.140   0.357   6.998 -0.3761 -0.7235  0.2285
 1215SOL    HW115623   8.111   0.344   6.908  0.6816 -0.6081 -0.1407
 1215SOL    HW215624   8.059   0.356   7.050 -1.0527 -0.1499 -0.7857
 1216SOL     OW15625   0.196   4.176   0.524 -0.2343 -0.0231 -0.3690
 1216SOL    HW115626   0.208   4.111   0.455 -0.6050  0.2444 -0.6903
 1216SOL    HW215627   0.111   4.216   0.504 -0.4153 -0.0554  0.3336
 1217SOL     OW15628   7.739   1.582   2.080 -0.2671  0.0757  0.1471
 1217SOL    HW115629   7.761   1.498   2.040  0.2096 -0.5591  1.6452
 1217SOL    HW215630   7.803   1.592   2.151 -1.3219  0.9281  1.0211
 1218SOL     OW15631   7.464   9.258   5.928  0.5328 -0.2615  0.3158
 1218SOL    HW115632   7.451   9.194   5.857 -0.1526 -0.5546  0.6905
 1218SOL    HW215633   7.394   9.322   5.914  0.2731 -0.4290  0.8305
 1219SOL     OW15634   9.159   6.808   0.577  0.1778  0.6573 -0.3078
 1219SOL    HW115635   9.184   6.801   0.485  1.9725  0.6162  0.1452
 1219SOL    HW215636   9.104   6.886   0.582 -0.1702  0.4971 -1.4468
 1220SOL     OW15637   7.991   9.927   0.112  0.0967  0.4766  0.3260
 1220SOL    HW115638   8.010  10.017   0.085  0.5610 -0.1335 -1.5690
 1220SOL    HW215639   7.922   9.935   0.177 -0.2771  2.1797 -0.2353
 1221SOL     OW15640   2.772   2.100   5.586 -0.3921  0.1749  0.3340
 1221SOL    HW115641   2.864   2.106   5.608 -0.5133 -0.4777  1.0423
 1221SOL    HW215642   2.729   2.163   5.644 -1.0339 -3.2727  4.0847
 1222SOL     OW15643  10.271   7.712   9.330 -0.3186  0.2809  0.2565
 1222SOL    HW115644  10.321   7.646   9.282 -1.1192  0.3003 -0.6358
 1222SOL    HW215645  10.266   7.786   9.271 -0.3460  0.7404  0.8283
 1223SOL     OW15646   2.441   3.558   4.974  0.1968 -0.8132  0.2259
 1223SOL    HW115647   2.415   3.481   4.924  0.2008 -1.4318  1.1420
 1223SOL    HW215648   2.370   3.570   5.038  0.4455 -0.3720  0.4203
 1224SOL     OW15649   8.934   7.154   9.557 -0.0905  0.5049  0.0529
 1224SOL    HW115650   8.935   7.060   9.541 -1.1158  0.3466  0.8091
 1224SOL    HW215651   8.927   7.193   9.470  1.4742 -0.0581 -0.3534
 1225SOL     OW15652   0.058   1.959   7.158 -0.1221  0.2745 -0.5805
 1225SOL    HW115653   0.008   2.036   7.184  0.4748  0.9893 -1.4820
 1225SOL    HW215654   0.102   1.985   7.077  1.2025 -0.5320 -0.1560
 1226SOL     OW15655   7.353   8.030   4.401 -0.2161  0.3447 -0.0067
 1226SOL    HW115656   7.286   7.963   4.415 -0.9474  1.0501 -0.1045
 1226SOL    HW215657   7.333   8.098   4.464  1.5337 -0.2431  1.2523
 1227SOL     OW15658   1.250   7.285   9.237  0.3792  0.2145 -0.6958
 1227SOL    HW115659   1.331   7.334   9.250 -0.5397  1.1809  1.9196
 1227SOL    HW215660   1.228   7.251   9.324 -1.7677 -0.4374 -1.4327
 1228SOL     OW15661   5.179   9.214   9.992 -0.1179  0.1183  0.1682
 1228SOL    HW115662   5.195   9.286   9.931  0.8471  1.1415  1.5645
 1228SOL    HW215663   5.128   9.253  10.063 -0.3196 -0.7991  0.5463
 1229SOL     OW15664   1.634   4.317   7.388  0.3471  0.2163  0.5930
 1229SOL    HW115665   1.624   4.412   7.397  1.3755  0.3913 -0.0565
 1229SOL    HW215666   1.721   4.298   7.423  0.8693 -0.2401 -0.8748
 1230SOL     OW15667   9.229   2.883   0.433  0.0485 -0.0545 -0.4778
 1230SOL    HW115668   9.305   2.827   0.449 -0.9096 -1.3039 -0.1033
 1230SOL    HW215669   9.226   2.942   0.508 -0.3452 -1.1789  0.4221
 1231SOL     OW15670  10.150   5.070   0.078 -0.2451 -0.2955 -0.0171
 1231SOL    HW115671  10.105   5.125   0.014 -0.0417 -0.8238 -0.6190
 1231SOL    HW215672  10.130   5.111   0.163  0.5118  1.1454 -0.4954
 1232SOL     OW15673   7.486   9.740   5.973 -0.2678  0.2475  0.2113
 1232SOL    HW115674   7.536   9.756   6.054  0.1683 -0.1225  0.0151
 1232SOL    HW215675   7.529   9.666   5.932 -0.3684  0.5562 -0.4644
 1233SOL     OW15676   3.867   5.083   3.969 -0.6491  0.3043  0.0160
 1233SOL    HW115677   3.940   5.104   3.910  0.1181 -1.5518  0.2525
 1233SOL    HW215678   3.870   5.152   4.036  0.2703  0.8058 -0.5220
 1234SOL     OW15679   1.617   0.834   6.235 -0.5689 -0.4983 -0.6196
 1234SOL    HW115680   1.706   0.817   6.203 -0.6838 -0.8713 -0.7496
 1234SOL    HW215681   1.624   0.828   6.330 -0.3384  0.0580 -0.5943
 1235SOL     OW15682   0.450   3.776   7.870  0.2074 -0.3154  0.6060
 1235SOL    HW115683   0.441   3.805   7.779 -0.0205  0.1850  0.7813
 1235SOL    HW215684   0.385   3.828   7.918 -0.2450 -1.1712  0.9319
 1236SOL     OW15685   8.695   0.233   8.550 -0.4387  0.3665  0.5308
 1236SOL    HW115686   8.722   0.182   8.474  4.1047  0.4662  1.7726
 1236SOL    HW215687   8.667   0.168   8.614 -0.3915 -0.0688  0.1123
 1237SOL     OW15688   0.442   2.587   2.707  0.1077 -0.2300 -0.5771
 1237SOL    HW115689   0.457   2.676   2.675 -0.9640  0.2947  0.3130
 1237SOL    HW215690   0.509   2.574   2.774 -0.1797  0.1880 -0.2014
 1238SOL     OW15691   4.287   4.891   3.683  0.2460 -0.3645 -0.4086
 1238SOL    HW115692   4.228   4.818   3.664  0.7283 -0.3437 -2.1438
 1238SOL    HW215693   4.229   4.967   3.692 -0.2213 -0.8524  0.9935
 1239SOL     OW15694   2.598   9.268   8.990  0.5306  0.3420 -0.1131
 1239SOL    HW115695   2.663   9.220   9.041 -0.4105  0.5738  1.3597
 1239SOL    HW215696   2.594   9.222   8.907 -1.8887 -3.6295  1.8769
 1240SOL     OW15697   9.033   6.714   1.053 -0.3229 -0.2005  0.3182
 1240SOL    HW115698   9.116   6.760   1.060 -0.7695  0.7413 -0.2979
 1240SOL    HW215699   9.032   6.679   0.964 -1.1436  0.9518 -0.1491
 1241SOL     OW15700   3.715   8.205  10.117 -0.0481 -0.1680  0.2881
 1241SOL    HW115701   3.750   8.189  10.030 -0.6734 -0.8175  0.1469
 1241SOL    HW215702   3.779   8.263  10.159 -0.1236  0.7652 -0.8521
 1242SOL     OW15703   2.394   8.760   9.552  0.4955  0.2352 -0.5002
 1242SOL    HW115704   2.463   8.756   9.617 -0.0892 -0.5986  0.0816
 1242SOL    HW215705   2.362   8.851   9.556  2.2590  0.9469 -1.5524
 1243SOL     OW15706   0.161   1.308   8.414 -0.0594  0.2845 -0.3973
 1243SOL    HW115707   0.225   1.371   8.381  0.1631  0.7142  0.7815
 1243SOL    HW215708   0.208   1.261   8.483 -0.6642 -0.1937 -0.3028
 1244SOL     OW15709   3.705   8.429   4.949 -0.2567 -0.1655 -0.1356
 1244SOL    HW115710   3.721   8.359   4.886  1.1745  2.5034 -2.9950
 1244SOL    HW215711   3.622   8.468   4.922  1.3279  2.3019 -1.9308
 1245SOL     OW15712   0.358   0.228   8.753  0.2282 -0.5356  0.2067
 1245SOL    HW115713   0.419   0.162   8.719  0.5623  0.4428 -1.1541
 1245SOL    HW215714   0.294   0.177   8.803 -0.0496 -2.0095 -1.5378
 1246SOL     OW15715   5.253   9.939   0.654 -0.2428 -0.9475 -0.1043
 1246SOL    HW115716   5.257   9.880   0.729 -1.7616  1.4085  2.0223
 1246SOL    HW215717   5.333   9.990   0.659  0.2059 -1.5566 -0.8392
 1247SOL     OW15718   4.646   3.748   8.283 -0.9638 -0.3707 -1.2471
 1247SOL    HW115719   4.636   3.843   8.280 -1.7995 -0.3609  0.4582
 1247SOL    HW215720   4.740   3.735   8.301 -0.9023  0.1455 -1.1791
 1248SOL     OW15721   5.225   3.612   6.971  0.7131 -0.7844 -0.1124
 1248SOL    HW115722   5.285   3.626   7.044  0.2738  3.0103 -0.2729
 1248SOL    HW215723   5.138   3.619   7.009  0.4669  2.3787 -0.9877
 1249SOL     OW15724   9.652   7.844   9.866 -0.5476 -0.1227 -0.4128
 1249SOL    HW115725   9.662   7.768   9.924  1.1068  0.4716  0.1265
 1249SOL    HW215726   9.666   7.808   9.779 -0.6657 -0.6013 -0.2415
 1250SOL     OW15727   3.142   7.700   3.693 -0.6962 -0.1095 -0.0711
 1250SOL    HW115728   3.218   7.688   3.635 -0.2422 -1.9620  0.8514
 1250SOL    HW215729   3.074   7.644   3.656 -0.7134 -0.5739  0.6476
 1251SOL     OW15730   9.531   9.406   1.575  0.2417 -0.0118 -0.7411
 1251SOL    HW115731   9.505   9.401   1.667  0.5198 -1.2748 -0.7170
 1251SOL    HW215732   9.449   9.410   1.527  0.0852  0.0640 -0.4666
 1252SOL     OW15733   5.130  10.170   8.070  0.4405  0.0310  0.3016
 1252SOL    HW115734   5.122  10.118   8.149  0.2459  0.2747  0.4452
 1252SOL    HW215735   5.056  10.143   8.015  0.2193  0.2987  0.4626
 1253SOL     OW15736   5.562   4.642   9.923  0.0347 -0.0690  0.0065
 1253SOL    HW115737   5.573   4.610  10.012  0.4402 -0.5424 -0.2063
 1253SOL    HW215738   5.490   4.589   9.887 -1.4777  1.4465  0.6567
 1254SOL     OW15739   8.472   9.867   5.080  0.3020 -0.5209  0.3332
 1254SOL    HW115740   8.559   9.827   5.090  0.5077 -0.0878  0.2979
 1254SOL    HW215741   8.439   9.833   4.997  0.7954 -0.0310 -0.0700
 1255SOL     OW15742   9.012   9.546   2.611  0.3313  0.6424 -0.1013
 1255SOL    HW115743   8.926   9.584   2.632  0.4442 -0.3754  2.6857
 1255SOL    HW215744   9.074   9.599   2.663  1.0638 -0.2087 -0.0878
 1256SOL     OW15745   5.008   3.100   3.245 -0.2472  0.3056 -0.2851
 1256SOL    HW115746   4.932   3.042   3.237  1.3697 -2.4174  2.0530
 1256SOL    HW215747   5.074   3.062   3.187  0.3413  0.7439  0.0889
 1257SOL     OW15748   8.991   7.190   1.308  0.1409  0.6132 -0.1438
 1257SOL    HW115749   8.976   7.120   1.244 -1.7745  0.9644 -0.1219
 1257SOL    HW215750   9.002   7.269   1.255 -0.3952  0.7275 -0.0929
 1258SOL     OW15751   5.033   4.965   7.403 -0.1423 -0.2643 -0.5664
 1258SOL    HW115752   5.094   4.963   7.476 -0.5613 -1.0852 -0.2260
 1258SOL    HW215753   4.946   4.959   7.443 -0.4555  0.7985 -1.0471
 1259SOL     OW15754   3.026   6.018   4.398  0.0111 -0.2219  0.0270
 1259SOL    HW115755   2.954   6.080   4.409 -0.0323 -0.2109 -0.3190
 1259SOL    HW215756   2.985   5.942   4.355  0.4311  0.2279 -1.1952
 1260SOL     OW15757  10.254   7.751   1.773 -0.1272  0.0740 -0.1604
 1260SOL    HW115758  10.340   7.743   1.732  0.1717  0.1150  0.4473
 1260SOL    HW215759  10.231   7.661   1.797 -0.9388 -0.1503 -1.6709
 1261SOL     OW15760   9.495  10.329   0.557 -0.4561  0.4812 -0.2845
 1261SOL    HW115761   9.438  10.261   0.593 -1.6492  2.2416  1.2786
 1261SOL    HW215762   9.547  10.283   0.491 -2.3798 -1.5965 -0.4801
 1262SOL     OW15763   0.079   9.392   1.770 -0.4373  0.8097 -0.1872
 1262SOL    HW115764   0.058   9.311   1.724  3.6337 -0.6413  0.1888
 1262SOL    HW215765   0.114   9.450   1.702 -1.5730  1.5971 -0.1277
 1263SOL     OW15766   9.736   9.943   0.729 -0.3486 -0.6325 -0.4265
 1263SOL    HW115767   9.762  10.026   0.769  0.1049 -0.7552 -0.4570
 1263SOL    HW215768   9.641   9.940   0.737 -0.6968  1.1632 -2.8604
 1264SOL     OW15769   8.002   4.650   9.160  0.4314 -0.3526  0.8687
 1264SOL    HW115770   8.018   4.690   9.245 -1.5914 -1.3132  1.7626
 1264SOL    HW215771   8.050   4.567   9.163 -1.1060 -1.2532  1.8614
 1265SOL     OW15772   3.956   2.138   0.628  0.0723 -0.0023  0.0536
 1265SOL    HW115773   3.872   2.169   0.662 -0.0121 -1.5565  1.3455
 1265SOL    HW215774   3.934   2.099   0.543 -0.5483 -0.5389  0.4500
 1266SOL     OW15775   9.994   4.477   0.628  0.1924 -0.3236 -0.6298
 1266SOL    HW115776  10.028   4.555   0.671  0.0712  0.6854 -2.2793
 1266SOL    HW215777  10.021   4.404   0.685 -0.3540  0.9482  1.3321
 1267SOL     OW15778   3.256   7.285   9.472 -0.6486  0.1731 -0.2459
 1267SOL    HW115779   3.208   7.365   9.493 -1.5757 -0.8350  1.6803
 1267SOL    HW215780   3.203   7.244   9.403 -0.6047  0.8078 -0.6671
 1268SOL     OW15781   9.548   3.533   8.282  0.2812 -0.2678  0.6625
 1268SOL    HW115782   9.551   3.546   8.377  0.3059  1.5484  0.4425
 1268SOL    HW215783   9.584   3.614   8.245  1.2022 -1.3320 -0.8931
 1269SOL     OW15784   3.707   2.025   4.706 -0.1523 -0.0052  0.1783
 1269SOL    HW115785   3.713   1.974   4.787  1.6968 -0.0835  0.0221
 1269SOL    HW215786   3.738   2.112   4.731  1.0618 -0.2055 -0.5736
 1270SOL     OW15787   6.920   4.037   1.276  0.0971 -0.2165  0.3544
 1270SOL    HW115788   6.974   4.080   1.342  1.0745 -0.2717 -0.3983
 1270SOL    HW215789   6.975   4.033   1.198 -0.7848 -0.8020 -0.2586
 1271SOL     OW15790   8.289   3.994   4.323 -0.7547  0.3865  0.5192
 1271SOL    HW115791   8.320   3.980   4.233 -1.9028 -1.1946  0.3279
 1271SOL    HW215792   8.368   3.992   4.376 -0.1841  0.0074 -0.3218
 1272SOL     OW15793  10.078   9.190   5.888  0.4366 -0.2718 -0.6432
 1272SOL    HW115794  10.068   9.205   5.982  0.1000  0.1329 -0.7408
 1272SOL    HW215795  10.165   9.224   5.867 -0.6355  2.5225 -1.0251
 1273SOL     OW15796   0.969   6.503   0.307 -0.1491  0.2075 -0.2512
 1273SOL    HW115797   1.032   6.521   0.376 -0.0841 -0.7163 -0.0579
 1273SOL    HW215798   0.967   6.583   0.255  0.4059  0.6191  0.3430
 1274SOL     OW15799   1.752   9.051   4.003 -0.2208  0.2607  0.1251
 1274SOL    HW115800   1.669   9.066   3.959 -0.1899  0.5584  0.1663
 1274SOL    HW215801   1.729   9.031   4.094 -0.3176 -0.8831 -0.1321
 1275SOL     OW15802   6.799   0.197  10.262 -0.0614  0.3623  0.1832
 1275SOL    HW115803   6.873   0.253  10.237  0.4092  1.2670  3.1765
 1275SOL    HW215804   6.823   0.110  10.231  0.4383  1.2918 -2.2431
 1276SOL     OW15805   3.397   0.561   1.448  0.3912 -0.0223 -0.3157
 1276SOL    HW115806   3.357   0.532   1.366  1.4134 -0.0322 -0.8189
 1276SOL    HW215807   3.410   0.655   1.436 -0.9037  0.2796  0.4630
 1277SOL     OW15808   2.834   8.472   1.086 -0.1447 -0.1115  0.4999
 1277SOL    HW115809   2.836   8.540   1.153 -1.6612  0.1431  0.3365
 1277SOL    HW215810   2.923   8.466   1.053  0.3321  0.6906  1.6155
 1278SOL     OW15811   3.655   1.379   0.852  0.0100  0.2508  0.4157
 1278SOL    HW115812   3.592   1.435   0.897 -0.4362  1.1863 -1.3009
 1278SOL    HW215813   3.628   1.381   0.760 -0.5822 -3.5334  0.3456
 1279SOL     OW15814   7.767   7.904   9.589 -0.2053  0.1506 -0.0479
 1279SOL    HW115815   7.841   7.950   9.629  0.6685 -0.1544 -1.2723
 1279SOL    HW215816   7.697   7.910   9.655  1.3824 -0.9488  1.8688
 1280SOL     OW15817   9.518   9.400   7.282  0.2914  0.4717  0.5130
 1280SOL    HW115818   9.547   9.312   7.308  0.3793 -0.0086 -1.1147
 1280SOL    HW215819   9.430   9.386   7.247 -0.9820  1.5311  3.0188
 1281SOL     OW15820   7.854   3.945   0.978  0.5091 -0.3443 -0.2067
 1281SOL    HW115821   7.818   3.953   1.066  0.8726 -0.7996 -0.0112
 1281SOL    HW215822   7.943   3.979   0.986  0.5918 -0.5219 -0.3649
 1282SOL     OW15823   8.817   4.359   5.079  0.3340  0.1831  0.2469
 1282SOL    HW115824   8.852   4.435   5.032  1.0757  1.0063  2.0609
 1282SOL    HW215825   8.863   4.359   5.162 -3.0345  0.5643  2.2773
 1283SOL     OW15826   3.891   8.616   5.018 -0.5036 -0.0722 -0.1364
 1283SOL    HW115827   3.966   8.570   5.055  0.0337  0.9946  0.1352
 1283SOL    HW215828   3.833   8.547   4.987  0.9113 -0.9274 -0.9983
 1284SOL     OW15829   3.494   1.861   8.456  0.2172  0.1617 -0.0694
 1284SOL    HW115830   3.567   1.919   8.435  0.2397  0.3426  0.4979
 1284SOL    HW215831   3.452   1.901   8.531 -0.2755 -0.1141 -0.1918
 1285SOL     OW15832   6.542   3.293   9.107 -0.3936  0.4423  0.1957
 1285SOL    HW115833   6.585   3.371   9.143  1.2168 -0.5375  0.5286
 1285SOL    HW215834   6.549   3.304   9.012 -0.3500  0.7864  0.2362
 1286SOL     OW15835   2.198   6.615   4.203  0.4431  0.1692  0.6620
 1286SOL    HW115836   2.136   6.677   4.241 -0.0341 -0.1704  0.4469
 1286SOL    HW215837   2.283   6.660   4.208 -0.1546  1.6063 -1.1604
 1287SOL     OW15838   8.757   8.390   6.953 -0.3642 -0.1163 -0.4232
 1287SOL    HW115839   8.716   8.476   6.959  0.6677  0.4107 -0.7488
 1287SOL    HW215840   8.850   8.406   6.966 -0.2338 -1.2911  0.2834
 1288SOL     OW15841  10.293   0.354   5.936  0.9036  0.5715 -0.2765
 1288SOL    HW115842  10.376   0.402   5.933  0.8175  0.6752 -1.1878
 1288SOL    HW215843  10.316   0.267   5.969  1.0869  1.1623  1.2424
 1289SOL     OW15844   5.576   8.148   9.748 -0.2427  0.5528 -0.0759
 1289SOL    HW115845   5.517   8.222   9.734 -0.5737  0.2463 -0.3300
 1289SOL    HW215846   5.664   8.187   9.752 -0.5191  1.0973  1.0336
 1290SOL     OW15847   9.278  10.327   2.410 -0.0405 -0.1884 -0.2281
 1290SOL    HW115848   9.256  10.234   2.416 -0.1834 -0.1573 -0.2624
 1290SOL    HW215849   9.233  10.368   2.483  1.1307 -0.3430  0.5995
 1291SOL     OW15850   6.062   2.631   4.283 -0.0281  0.5027  0.0136
 1291SOL    HW115851   6.031   2.590   4.363 -0.5779 -0.9317 -0.9104
 1291SOL    HW215852   6.096   2.716   4.311 -4.0406  1.8984  1.2022
 1292SOL     OW15853   5.188   6.730   4.454 -0.5040  0.0028  0.4508
 1292SOL    HW115854   5.161   6.741   4.545  1.1432 -1.0065  1.1056
 1292SOL    HW215855   5.128   6.664   4.418 -0.2099 -0.7404  1.2842
 1293SOL     OW15856   7.414   4.290   0.129  0.1787  0.1167  0.0935
 1293SOL    HW115857   7.391   4.312   0.219  0.4743  2.4195 -0.3243
 1293SOL    HW215858   7.431   4.375   0.087  1.6556 -0.9788 -1.7006
 1294SOL     OW15859   3.506   9.104   8.469 -0.5405  0.2278 -0.3188
 1294SOL    HW115860   3.493   9.064   8.383  1.5201 -2.0838  0.3135
 1294SOL    HW215861   3.585   9.157   8.459 -0.1196 -0.2941  0.2030
 1295SOL     OW15862   2.814   6.831   9.044  0.2589  0.0141  0.0490
 1295SOL    HW115863   2.792   6.883   9.121  1.5379  1.6198 -0.5880
 1295SOL    HW215864   2.799   6.741   9.070 -0.8728  0.6121  1.6267
 1296SOL     OW15865   0.302   8.716   2.430  0.1501  0.0773  0.4298
 1296SOL    HW115866   0.226   8.675   2.388  0.3572 -1.8940  1.8253
 1296SOL    HW215867   0.355   8.748   2.357 -2.1626  1.9452 -0.5772
 1297SOL     OW15868   5.530   4.069   2.827 -0.1505  0.3132  0.2585
 1297SOL    HW115869   5.553   4.138   2.764 -1.1577 -0.5863 -1.1562
 1297SOL    HW215870   5.612   4.021   2.840  0.2221  0.8977  0.1436
 1298SOL     OW15871   1.747   0.229   6.012 -0.1809  0.4132  0.0744
 1298SOL    HW115872   1.692   0.271   5.946 -1.1884 -0.6292  0.2396
 1298SOL    HW215873   1.705   0.145   6.030  1.5967 -0.5423  0.0121
 1299SOL     OW15874   7.608   9.604   2.461 -0.2387  0.2796  0.1661
 1299SOL    HW115875   7.530   9.549   2.456 -1.1480  1.6342 -1.6617
 1299SOL    HW215876   7.574   9.693   2.477  1.0454  0.6791  0.8397
 1300SOL     OW15877   9.946   3.252  10.261  0.1820  0.3247  0.3758
 1300SOL    HW115878   9.988   3.308  10.326  0.6508 -0.1779  0.5095
 1300SOL    HW215879   9.984   3.166  10.274  0.0566  0.1459 -0.3652
 1301SOL     OW15880   6.191   8.804   7.390  0.0022 -0.3482 -0.2981
 1301SOL    HW115881   6.285   8.791   7.402  0.3836  0.4580 -2.0888
 1301SOL    HW215882   6.182   8.897   7.371 -0.9093 -0.7252 -1.9142
 1302SOL     OW15883   5.493   1.746   5.739  0.5929 -0.1358  0.6131
 1302SOL    HW115884   5.446   1.671   5.701  1.7910 -0.8829  0.5639
 1302SOL    HW215885   5.577   1.710   5.767  1.2159  1.2088  0.5394
 1303SOL     OW15886   4.641   3.475   7.730  0.3973  0.1093 -0.1890
 1303SOL    HW115887   4.615   3.567   7.725 -0.7990 -0.2038  0.0154
 1303SOL    HW215888   4.731   3.477   7.764  0.4915  1.2050 -0.4595
 1304SOL     OW15889   9.252   1.960   8.163  0.0295  0.2414  0.1542
 1304SOL    HW115890   9.174   1.928   8.117  0.1050  1.2813 -0.7382
 1304SOL    HW215891   9.222   2.040   8.207  0.4811  0.4065  0.1629
 1305SOL     OW15892   3.664   3.505   4.008  0.1979  0.2275 -0.0176
 1305SOL    HW115893   3.747   3.553   4.015  0.8053 -0.7931 -0.0239
 1305SOL    HW215894   3.660   3.453   4.088 -0.0628 -0.3070 -0.3713
 1306SOL     OW15895   4.804   0.134   8.286 -0.6403  0.2075 -0.1901
 1306SOL    HW115896   4.794   0.181   8.203 -0.1607  1.0145  0.1913
 1306SOL    HW215897   4.894   0.103   8.286 -0.3403  1.0242  0.4200
 1307SOL     OW15898   1.476   1.466   7.949  1.1844  0.4576 -0.2859
 1307SOL    HW115899   1.534   1.390   7.957 -0.1040 -0.5378  0.0349
 1307SOL    HW215900   1.457   1.492   8.039  0.1710 -0.0105 -0.3508
 1308SOL     OW15901   0.139   3.593   0.248  0.3772 -0.0403  0.2221
 1308SOL    HW115902   0.233   3.580   0.253  0.2236 -2.5619 -1.5358
 1308SOL    HW215903   0.105   3.511   0.212 -2.1304  1.8554 -2.2508
 1309SOL     OW15904  10.167   0.987   0.559  0.0855  0.4331  0.4456
 1309SOL    HW115905  10.082   0.974   0.517  0.5779  1.8638 -1.1060
 1309SOL    HW215906  10.174   1.082   0.570  1.3107  0.3060  0.9150
 1310SOL     OW15907   7.568   0.915   6.684 -0.2237 -0.0530  0.5909
 1310SOL    HW115908   7.515   0.853   6.735 -1.2524  0.8484  0.6666
 1310SOL    HW215909   7.530   1.001   6.704 -0.3125  0.3867 -1.2636
 1311SOL     OW15910   0.666   8.744   2.504 -0.2978  0.3617  0.2153
 1311SOL    HW115911   0.749   8.789   2.521 -0.0146 -0.0518 -0.0606
 1311SOL    HW215912   0.683   8.693   2.425 -0.7678  0.1448  0.2554
 1312SOL     OW15913   6.817   1.447   8.709 -0.2352 -0.2096  0.1321
 1312SOL    HW115914   6.789   1.528   8.750  0.5202  0.2788 -0.2761
 1312SOL    HW215915   6.881   1.475   8.643 -0.4350 -1.0813 -0.4502
 1313SOL     OW15916   8.020   6.573   6.114  0.5197 -0.0716 -0.1508
 1313SOL    HW115917   7.929   6.565   6.085  0.4303  1.0711 -0.2624
 1313SOL    HW215918   8.031   6.505   6.180 -0.4010 -0.2593 -0.1837
 1314SOL     OW15919   4.679   7.786   8.888  0.4063  0.1928 -0.0769
 1314SOL    HW115920   4.678   7.801   8.983 -1.2115 -0.9109  0.1291
 1314SOL    HW215921   4.676   7.691   8.879 -2.9055  0.2403 -1.1344
 1315SOL     OW15922   9.068   5.961   2.211 -0.2046 -0.1499  0.2078
 1315SOL    HW115923   9.145   5.929   2.258 -0.7772  0.1585  1.4045
 1315SOL    HW215924   9.101   6.033   2.158  1.0954 -2.5342 -2.4718
 1316SOL     OW15925   8.320   8.501   2.262  0.1180  0.6219  0.6924
 1316SOL    HW115926   8.350   8.562   2.329  0.4198  0.5505  0.6254
 1316SOL    HW215927   8.306   8.556   2.184  2.6228  0.3160 -0.0646
 1317SOL     OW15928  10.316   7.332   3.256  0.1455  0.2080  0.4815
 1317SOL    HW115929  10.235   7.281   3.259  0.2100  0.1099  2.9921
 1317SOL    HW215930  10.288   7.422   3.273  0.2939  0.6858 -1.5723
 1318SOL     OW15931   8.188   9.918   7.632 -0.4350 -0.2407  0.1530
 1318SOL    HW115932   8.109   9.864   7.630  0.5663 -1.7697 -1.4983
 1318SOL    HW215933   8.258   9.859   7.660  0.8051 -0.0640 -2.2580
 1319SOL     OW15934   4.878  10.103   0.145  0.3642  0.0451 -0.1680
 1319SOL    HW115935   4.785  10.096   0.124 -0.0545  1.1696  1.1279
 1319SOL    HW215936   4.918  10.140   0.066 -0.4063  0.2183 -0.4894
 1320SOL     OW15937   2.568   4.384   4.270  0.2574  0.1662 -0.1432
 1320SOL    HW115938   2.495   4.351   4.323  0.1946  0.8420  0.2059
 1320SOL    HW215939   2.641   4.327   4.291  0.4953  0.9853  1.4088
 1321SOL     OW15940   5.430   0.738   6.937  0.4715 -0.2044 -0.3238
 1321SOL    HW115941   5.459   0.662   6.887 -1.1828 -0.2541 -1.2545
 1321SOL    HW215942   5.342   0.716   6.967  0.2928  1.0038  0.1153
 1322SOL     OW15943   4.862  10.264   7.916 -0.2008  0.1295 -0.8208
 1322SOL    HW115944   4.825  10.236   8.000 -1.1976 -2.6974 -2.0464
 1322SOL    HW215945   4.829  10.353   7.904  0.4173  0.8439  1.9531
 1323SOL     OW15946   2.887   2.342   9.020 -0.0236 -0.1330  0.0204
 1323SOL    HW115947   2.853   2.431   9.010 -0.9719 -0.1941  2.0532
 1323SOL    HW215948   2.978   2.347   8.991 -0.1895  1.3882 -0.3195
 1324SOL     OW15949   9.206   2.274   1.213  0.1943  0.3456 -0.2862
 1324SOL    HW115950   9.290   2.232   1.231 -0.3597  0.0428  1.8906
 1324SOL    HW215951   9.142   2.203   1.220 -0.5454  1.1114  1.4122
 1325SOL     OW15952   1.917  10.021   1.003 -0.2503  0.3022  0.7248
 1325SOL    HW115953   2.009  10.042   1.020 -0.8739  1.9522  2.5058
 1325SOL    HW215954   1.908   9.929   1.028  1.1753 -0.2893 -0.7957
 1326SOL     OW15955   8.917   5.735   6.401 -0.3874 -0.0975 -0.6132
 1326SOL    HW115956   9.006   5.766   6.382 -0.8553  0.4869 -1.9876
 1326SOL    HW215957   8.916   5.723   6.496  2.0105 -2.8234 -0.7993
 1327SOL     OW15958   5.843   5.551   1.685  0.0772  0.3518 -0.2148
 1327SOL    HW115959   5.798   5.584   1.608 -1.3834  0.1830  0.5425
 1327SOL    HW215960   5.936   5.550   1.660 -0.3966 -0.1094 -2.1145
 1328SOL     OW15961   5.838   3.372   6.244 -0.1922 -0.3436 -0.2430
 1328SOL    HW115962   5.752   3.329   6.244  0.2813 -1.3323 -0.9078
 1328SOL    HW215963   5.893   3.315   6.190  0.7045  0.6428 -0.4004
 1329SOL     OW15964   6.477   9.035   7.939  0.2078  0.5614  0.2627
 1329SOL    HW115965   6.440   9.113   7.899 -0.9179  0.5601  1.2469
 1329SOL    HW215966   6.401   8.981   7.961  0.9998 -1.6176 -1.9101
 1330SOL     OW15967   6.984   4.306   7.237 -0.2720 -0.1604 -0.4780
 1330SOL    HW115968   7.077   4.294   7.217 -0.2753 -1.7529  0.2915
 1330SOL    HW215969   6.956   4.377   7.179  1.2301 -0.1791 -1.2846
 1331SOL     OW15970   1.012   2.890   1.282  0.4246 -0.4995  0.3588
 1331SOL    HW115971   1.057   2.947   1.344  2.2167  0.5706 -1.8220
 1331SOL    HW215972   1.034   2.801   1.311  2.2520 -0.0084  0.5610
 1332SOL     OW15973   8.367   1.196   9.617 -0.3945  0.1682 -0.5714
 1332SOL    HW115974   8.286   1.233   9.582  0.0982  0.4098 -1.4843
 1332SOL    HW215975   8.350   1.102   9.623 -1.2936  0.3860  0.7766
 1333SOL     OW15976   1.578   0.281   0.343 -0.0609 -0.0747  0.7718
 1333SOL    HW115977   1.511   0.246   0.284 -2.0100  2.1310  1.5479
 1333SOL    HW215978   1.554   0.248   0.429 -0.5429  1.2063  1.1441
 1334SOL     OW15979   6.053   4.430   7.092  0.3604 -0.0444  0.6600
 1334SOL    HW115980   6.077   4.521   7.107 -0.9455  0.5986 -0.8900
 1334SOL    HW215981   6.130   4.391   7.050  0.0845  1.0303 -0.9331
 1335SOL     OW15982   4.727   4.516   6.860 -0.2332 -0.1337  0.1403
 1335SOL    HW115983   4.663   4.540   6.927 -0.5136  1.4909 -0.6528
 1335SOL    HW215984   4.807   4.495   6.908 -0.4200  1.0226  0.9913
 1336SOL     OW15985   6.401   9.605  10.008  0.5469 -0.6287  0.0696
 1336SOL    HW115986   6.307   9.617  10.021  0.4650  0.5840 -1.3558
 1336SOL    HW215987   6.434   9.693   9.986  1.7646 -1.2653 -0.8043
 1337SOL     OW15988   2.040   6.061   8.053 -0.0187 -0.0283 -0.2135
 1337SOL    HW115989   2.059   6.136   8.108 -2.5708  0.6105 -0.1138
 1337SOL    HW215990   2.034   5.987   8.113  1.3228 -0.1287 -0.1766
 1338SOL     OW15991   8.468   9.218   4.751 -0.2261 -0.2162  0.2370
 1338SOL    HW115992   8.493   9.310   4.749  0.5228 -0.4021  0.5800
 1338SOL    HW215993   8.545   9.173   4.786 -0.6723 -0.9412  0.3154
 1339SOL     OW15994   0.830   7.814   4.691  0.5226  0.6589 -0.0630
 1339SOL    HW115995   0.891   7.825   4.618  0.6516  0.1144 -0.0444
 1339SOL    HW215996   0.776   7.893   4.689  1.5048  1.3671  0.1866
 1340SOL     OW15997   5.876   5.944   7.722 -0.3950 -0.8246 -0.8137
 1340SOL    HW115998   5.952   5.915   7.772 -0.1046  1.4046  0.1372
 1340SOL    HW215999   5.893   6.036   7.702 -2.5884 -0.4057 -1.0639
 1341SOL     OW16000   1.231   7.938   5.485 -0.3093  0.3876 -0.0142
 1341SOL    HW116001   1.145   7.929   5.527  0.1848  0.4867  1.0512
 1341SOL    HW216002   1.293   7.939   5.558  0.5468  0.9823 -0.7368
 1342SOL     OW16003   4.115   0.340   9.187  0.4072 -0.0060 -0.1422
 1342SOL    HW116004   4.091   0.303   9.271  1.8647  1.0477  0.7963
 1342SOL    HW216005   4.204   0.307   9.171  0.1029 -0.3025 -1.3460
 1343SOL     OW16006   7.541   0.501   5.734 -0.3341  0.1159 -0.4650
 1343SOL    HW116007   7.509   0.568   5.674 -0.1388  0.0094 -0.6888
 1343SOL    HW216008   7.461   0.462   5.770 -0.4479  0.6068 -0.1755
 1344SOL     OW16009   8.933   7.159   3.995  0.0135 -0.8404  0.4847
 1344SOL    HW116010   8.869   7.225   3.968  0.8692  0.0094  0.4996
 1344SOL    HW216011   8.882   7.078   4.004 -1.0295 -0.2043  0.3811
 1345SOL     OW16012   1.998   1.073   4.043 -0.2555 -0.4731 -0.2111
 1345SOL    HW116013   1.944   1.151   4.029  0.3123  0.1011  0.7120
 1345SOL    HW216014   1.957   1.006   3.988  0.3302  0.9401 -2.5184
 1346SOL     OW16015   7.254   7.663   0.927 -0.6837 -0.2584  0.1739
 1346SOL    HW116016   7.223   7.572   0.933 -3.4894  0.6459  0.9376
 1346SOL    HW216017   7.194   7.712   0.983 -0.2039  2.3080 -1.4099
 1347SOL     OW16018   8.146   8.460   3.655  0.7300 -0.4949 -0.1463
 1347SOL    HW116019   8.236   8.436   3.676  1.4210  1.6996 -0.3597
 1347SOL    HW216020   8.155   8.534   3.595 -1.2263 -0.1574 -0.0673
 1348SOL     OW16021   5.279   8.373   7.177  0.1306  0.5509  0.5549
 1348SOL    HW116022   5.276   8.345   7.269  0.0918 -0.7343  0.1844
 1348SOL    HW216023   5.203   8.330   7.137  1.9119 -1.5893 -0.7632
 1349SOL     OW16024  10.093  10.287   3.156 -0.4367  0.9385  0.3246
 1349SOL    HW116025  10.155  10.222   3.189 -1.4778  0.1683  0.8190
 1349SOL    HW216026  10.067  10.255   3.070 -2.1760 -0.2128  1.2241
 1350SOL     OW16027   3.369   8.022   8.549  0.5436 -0.2845 -0.3908
 1350SOL    HW116028   3.329   8.000   8.633 -0.2162  1.1359 -0.3511
 1350SOL    HW216029   3.463   8.020   8.566  0.3968  1.1811  0.8503
 1351SOL     OW16030   3.108   4.485   7.777 -0.4964  0.6152 -0.3195
 1351SOL    HW116031   3.126   4.484   7.871 -1.4306  0.2987 -0.1335
 1351SOL    HW216032   3.095   4.393   7.754 -1.0354  0.7548 -0.6024
 1352SOL     OW16033   2.056   8.826   7.349 -0.2090  0.2188  1.0412
 1352SOL    HW116034   2.148   8.855   7.354  1.0802 -3.1821 -0.1970
 1352SOL    HW216035   2.010   8.900   7.308  2.1923  1.5825  0.5993
 1353SOL     OW16036   4.261   0.753   6.168  0.0874  0.1094  0.2486
 1353SOL    HW116037   4.216   0.837   6.156  0.0717 -0.1373 -1.8980
 1353SOL    HW216038   4.251   0.709   6.084 -0.0311 -2.1294  1.3754
 1354SOL     OW16039   9.268   8.786   6.683 -0.3572 -0.1938  0.0907
 1354SOL    HW116040   9.263   8.796   6.588  0.8973 -2.0683 -0.2425
 1354SOL    HW216041   9.346   8.733   6.697  0.1133  0.9742  2.2734
 1355SOL     OW16042   1.107   9.707   0.015 -0.4834 -0.7278 -0.0827
 1355SOL    HW116043   1.045   9.677   0.081  0.1950  1.3877  1.6127
 1355SOL    HW216044   1.062   9.692  -0.069 -2.2271 -1.5146  0.9390
 1356SOL     OW16045   3.459   1.539   0.992  0.1821  0.6236 -0.4622
 1356SOL    HW116046   3.391   1.479   0.960 -0.1623  0.4092  0.6208
 1356SOL    HW216047   3.435   1.624   0.956 -0.0217  0.3397 -1.0125
 1357SOL     OW16048   2.256   1.957   7.980 -0.3459 -0.3946 -0.5570
 1357SOL    HW116049   2.267   1.939   8.073  0.9486 -0.9467 -0.8025
 1357SOL    HW216050   2.188   1.896   7.952  1.9839 -3.1192 -0.7683
 1358SOL     OW16051   8.742   6.492   7.656  0.0913 -0.2089 -0.0883
 1358SOL    HW116052   8.665   6.481   7.599 -0.3498 -1.0805  0.6567
 1358SOL    HW216053   8.758   6.586   7.656 -1.3600  0.0606  0.2308
 1359SOL     OW16054   6.064   7.475   9.913  0.3904 -0.2174  0.5927
 1359SOL    HW116055   6.057   7.487   9.818  0.0416 -2.2947  0.2912
 1359SOL    HW216056   6.142   7.523   9.938  2.0466 -1.7772 -1.2419
 1360SOL     OW16057   7.560   4.785   0.986 -0.2292  0.3886 -0.7089
 1360SOL    HW116058   7.517   4.829   1.060 -0.1309  0.3507 -0.6283
 1360SOL    HW216059   7.530   4.695   0.991 -0.0399  0.3313 -0.5738
 1361SOL     OW16060   8.153   1.276   9.447  0.7940 -0.1746 -0.2444
 1361SOL    HW116061   8.207   1.325   9.385 -0.2275  1.2791 -0.0314
 1361SOL    HW216062   8.082   1.240   9.394 -0.1243  1.1354  0.0450
 1362SOL     OW16063   2.333   4.194   8.026 -0.3307 -0.1560 -0.0646
 1362SOL    HW116064   2.416   4.146   8.027 -0.9488 -1.2908  2.1973
 1362SOL    HW216065   2.270   4.132   7.989 -0.4455  0.2267 -0.5182
 1363SOL     OW16066   0.208   3.915   7.323  0.5312  0.0448 -0.4438
 1363SOL    HW116067   0.287   3.878   7.284 -0.2626  0.2548 -2.3462
 1363SOL    HW216068   0.180   3.983   7.262  0.0060  1.4111  1.2203
 1364SOL     OW16069   4.244   2.853   7.019 -0.2226 -0.2915 -0.2469
 1364SOL    HW116070   4.321   2.871   6.965 -0.0648 -0.6568 -0.1420
 1364SOL    HW216071   4.173   2.899   6.974  0.0297 -0.0537 -0.4109
 1365SOL     OW16072   0.223   1.732   5.957  0.2200  0.0747 -0.0473
 1365SOL    HW116073   0.312   1.751   5.927 -0.1417  0.9633 -0.5935
 1365SOL    HW216074   0.215   1.777   6.041 -0.0342  0.8329 -0.4720
 1366SOL     OW16075   3.515   1.211   5.383 -0.2649  0.4653  0.3209
 1366SOL    HW116076   3.560   1.263   5.317 -0.6025  0.0567 -0.2395
 1366SOL    HW216077   3.435   1.181   5.341 -0.6144  0.4117  1.0031
 1367SOL     OW16078   2.997   2.722   0.441  0.4485  0.4620 -0.2781
 1367SOL    HW116079   2.939   2.759   0.375 -1.9903 -0.0605  1.4412
 1367SOL    HW216080   2.984   2.627   0.433  3.2260  0.0873 -1.6517
 1368SOL     OW16081   2.971   9.405   8.440 -0.1065 -0.1329  0.4275
 1368SOL    HW116082   2.886   9.449   8.443  0.3546  0.7345  1.3523
 1368SOL    HW216083   3.023   9.450   8.506  0.7223 -1.4040  0.6624
 1369SOL     OW16084   5.394   1.244   0.293  0.0653 -0.4662  0.0035
 1369SOL    HW116085   5.326   1.177   0.294 -0.8491  0.3578 -1.8628
 1369SOL    HW216086   5.360   1.314   0.349  0.0312 -0.6299  0.1903
 1370SOL     OW16087   8.752   1.485   8.981  0.0367 -0.5106 -0.0136
 1370SOL    HW116088   8.819   1.553   8.993 -1.0193  0.4260  0.8002
 1370SOL    HW216089   8.670   1.528   9.006 -0.7506 -1.9076 -0.1172
 1371SOL     OW16090   5.919   0.131   7.745 -1.2010 -0.6159 -0.0320
 1371SOL    HW116091   5.830   0.165   7.758 -1.6219  0.5658 -4.4466
 1371SOL    HW216092   5.961   0.196   7.688  2.5391 -1.2213  1.7449
 1372SOL     OW16093   8.660   7.524   5.259 -0.5539 -0.0233  0.2809
 1372SOL    HW116094   8.730   7.468   5.293 -0.0314  0.2493 -0.3230
 1372SOL    HW216095   8.702   7.610   5.247 -1.3033  0.4720  1.0596
 1373SOL     OW16096   7.913   2.901   4.762  0.5418  0.2612 -0.6357
 1373SOL    HW116097   7.916   2.993   4.789 -0.0124  0.1503 -0.1923
 1373SOL    HW216098   8.000   2.867   4.784  0.6675  0.6121 -0.5766
 1374SOL     OW16099   5.246   1.689   7.860  0.2979 -0.6293 -0.2401
 1374SOL    HW116100   5.246   1.595   7.879 -0.4321 -0.4620  0.6773
 1374SOL    HW216101   5.265   1.695   7.767  2.5357 -1.5797  0.0847
 1375SOL     OW16102   7.480   1.709   2.008  0.0479  0.2904  0.2129
 1375SOL    HW116103   7.421   1.641   2.043 -1.3208  0.0662 -2.2997
 1375SOL    HW216104   7.568   1.675   2.025 -0.5824 -0.9604  1.1504
 1376SOL     OW16105   2.765   9.859   0.113  1.1303  0.5397 -0.0486
 1376SOL    HW116106   2.715   9.794   0.163 -1.0657  1.4756 -0.9119
 1376SOL    HW216107   2.847   9.815   0.091  0.0763 -1.6169  0.1335
 1377SOL     OW16108   7.622   1.116   2.202  0.6245 -0.2590  0.4115
 1377SOL    HW116109   7.697   1.113   2.142  0.9875  0.5007  0.8165
 1377SOL    HW216110   7.659   1.091   2.287  0.5141  0.5385  0.6986
 1378SOL     OW16111   4.941   8.251   8.431 -0.3162  0.0146  0.2092
 1378SOL    HW116112   4.933   8.292   8.345  1.3869 -0.0289 -0.0023
 1378SOL    HW216113   4.999   8.176   8.416 -2.0200 -1.5278  0.9222
 1379SOL     OW16114   1.670   2.906   6.675 -0.1360  0.1361  0.0982
 1379SOL    HW116115   1.757   2.933   6.647 -0.8341  1.3564 -1.0550
 1379SOL    HW216116   1.670   2.917   6.770  0.8345  0.5284  0.0590
 1380SOL     OW16117   9.505   0.354   6.377 -0.5420  0.1446 -0.1443
 1380SOL    HW116118   9.465   0.289   6.319 -0.6714 -0.6641  0.8171
 1380SOL    HW216119   9.587   0.314   6.405  0.9459  1.7509 -2.0125
 1381SOL     OW16120   1.137   6.963   9.114 -0.3724  0.0804  0.2951
 1381SOL    HW116121   1.109   7.050   9.142  0.8177  0.7014 -0.3825
 1381SOL    HW216122   1.219   6.947   9.160  1.3146  0.8713 -2.2423
 1382SOL     OW16123   5.836  10.299   1.697  0.1272  0.0168  0.3523
 1382SOL    HW116124   5.821  10.207   1.721  0.0857  0.0056  0.2828
 1382SOL    HW216125   5.802  10.349   1.772 -3.8359  0.1843 -1.3045
 1383SOL     OW16126   4.204   8.204   5.909  0.1254  0.0399  0.7679
 1383SOL    HW116127   4.176   8.267   5.976  1.8896 -1.2308  2.8007
 1383SOL    HW216128   4.298   8.196   5.921  0.5834 -0.0273 -2.1484
 1384SOL     OW16129   3.260   0.207   7.909 -0.0210  0.0880  0.1865
 1384SOL    HW116130   3.312   0.153   7.849  2.3721 -0.3924  2.5305
 1384SOL    HW216131   3.314   0.283   7.926 -0.9447  0.5323  1.2445
 1385SOL     OW16132   0.463   1.378   2.213 -0.4286 -0.3185 -0.0442
 1385SOL    HW116133   0.378   1.336   2.225 -0.3297 -0.5196 -0.0416
 1385SOL    HW216134   0.507   1.366   2.297  0.0543 -1.2432 -0.4223
 1386SOL     OW16135   0.376   1.728   7.563 -0.0555 -0.0458 -0.2580
 1386SOL    HW116136   0.386   1.679   7.481 -0.6852 -0.5950 -0.0181
 1386SOL    HW216137   0.293   1.774   7.553 -0.3003 -0.3785  0.1974
 1387SOL     OW16138   9.558   2.838   1.103  0.1438  0.0062  0.3626
 1387SOL    HW116139   9.650   2.856   1.086 -0.2492  0.9038 -1.0090
 1387SOL    HW216140   9.539   2.759   1.052  0.6197 -1.4218  2.2943
 1388SOL     OW16141   4.438   7.813   1.592 -0.2691 -0.0090  0.8843
 1388SOL    HW116142   4.499   7.884   1.574  0.6751 -0.8015  0.9187
 1388SOL    HW216143   4.395   7.839   1.673  0.9236 -0.0220  1.5419
 1389SOL     OW16144   1.664   3.074   2.700  0.1672 -0.4014  0.2941
 1389SOL    HW116145   1.572   3.093   2.719  0.8832  1.5324  2.1587
 1389SOL    HW216146   1.701   3.049   2.784  1.0506 -2.8658 -0.7351
 1390SOL     OW16147   3.034   4.574   4.208 -0.5719 -0.6706  0.2468
 1390SOL    HW116148   2.988   4.644   4.253  1.0543  0.6348 -0.0366
 1390SOL    HW216149   3.110   4.555   4.264 -1.0138 -2.2576  0.3479
 1391SOL     OW16150   7.540   0.705   8.860  0.1902 -0.0948 -0.4694
 1391SOL    HW116151   7.568   0.718   8.950  0.9442 -0.2873 -0.6656
 1391SOL    HW216152   7.495   0.621   8.860  0.8069 -0.4324 -0.3992
 1392SOL     OW16153   3.529   9.560   9.777 -0.1091 -0.0773  0.2729
 1392SOL    HW116154   3.442   9.560   9.817 -0.4408  0.1997 -0.4274
 1392SOL    HW216155   3.517   9.606   9.694  1.0469  1.3250  0.8496
 1393SOL     OW16156   1.594   7.360   7.409 -0.8250  0.1445 -0.1917
 1393SOL    HW116157   1.581   7.323   7.497 -1.0217 -1.0465 -0.7030
 1393SOL    HW216158   1.520   7.328   7.359 -0.0905 -0.1726 -1.1009
 1394SOL     OW16159   9.931   1.117   8.643  0.1065  0.6232  0.3388
 1394SOL    HW116160   9.997   1.132   8.575  1.0846 -1.4337  0.7605
 1394SOL    HW216161   9.982   1.112   8.724 -0.6913 -0.0388  0.8093
 1395SOL     OW16162   8.711   8.648  10.387 -0.5257 -0.0862  0.0974
 1395SOL    HW116163   8.805   8.633  10.381 -0.6904 -0.7182 -1.4905
 1395SOL    HW216164   8.699   8.693  10.471  1.1509 -0.1604  0.4183
 1396SOL     OW16165   3.810   0.393   0.428  0.7803 -0.0104  0.4396
 1396SOL    HW116166   3.827   0.306   0.392  1.2695  0.5168 -0.6626
 1396SOL    HW216167   3.897   0.433   0.435  0.4003  1.5122 -2.0885
 1397SOL     OW16168   7.459   0.206   8.890 -0.3655 -0.9745 -0.4347
 1397SOL    HW116169   7.490   0.228   8.978 -0.1525 -0.8959 -0.5292
 1397SOL    HW216170   7.512   0.130   8.865  0.9219  0.1656 -1.2595
 1398SOL     OW16171   7.692   7.841   8.639 -0.2511 -0.1082 -0.3042
 1398SOL    HW116172   7.679   7.747   8.635  0.1013 -0.1341 -1.1320
 1398SOL    HW216173   7.726   7.864   8.552 -0.7815  0.8433 -0.2765
 1399SOL     OW16174   1.370   5.470   4.712  0.1612 -0.3192 -0.1484
 1399SOL    HW116175   1.404   5.388   4.678  0.9003 -0.6138  1.2224
 1399SOL    HW216176   1.281   5.448   4.741  0.0172 -0.3984 -0.6499
 1400SOL     OW16177   1.438   5.717   3.730  0.0652  0.0669 -0.0050
 1400SOL    HW116178   1.385   5.648   3.772  1.2365 -0.9315 -0.1150
 1400SOL    HW216179   1.504   5.740   3.796  0.1913  0.4954 -0.2805
 1401SOL     OW16180   2.277   5.293   8.579  0.3239 -0.0093 -0.3191
 1401SOL    HW116181   2.285   5.243   8.497 -2.0106  1.6019 -1.6469
 1401SOL    HW216182   2.293   5.384   8.552 -0.3363  0.5264  1.0534
 1402SOL     OW16183   8.542  10.310   9.770  0.0499 -0.1223  0.0934
 1402SOL    HW116184   8.500  10.316   9.856  1.7405  0.1486  0.9360
 1402SOL    HW216185   8.597  10.388   9.764  2.0666 -1.4825 -0.0429
 1403SOL     OW16186   4.927   4.935   6.930  0.8370  0.5444 -0.1837
 1403SOL    HW116187   4.976   4.914   6.850  0.5951  0.9049 -0.4317
 1403SOL    HW216188   4.930   5.030   6.935  0.6530  0.5344  0.1170
 1404SOL     OW16189   2.308   5.500   3.474  0.2909  0.5570 -0.1757
 1404SOL    HW116190   2.382   5.544   3.515 -0.0319  2.4534 -1.5092
 1404SOL    HW216191   2.256   5.467   3.548  1.4964  0.7754  0.8131
 1405SOL     OW16192   8.827   0.123   1.485 -0.1067 -0.4056 -0.2229
 1405SOL    HW116193   8.865   0.202   1.524  3.7647 -1.0035 -2.3127
 1405SOL    HW216194   8.784   0.153   1.405  0.6748 -0.3005 -0.6086
 1406SOL     OW16195   8.076   9.661   6.421 -0.4042  0.3796 -1.1106
 1406SOL    HW116196   7.988   9.643   6.388 -0.5036 -0.9006 -0.1952
 1406SOL    HW216197   8.064   9.730   6.486 -0.7986 -0.0356 -0.7316
 1407SOL     OW16198   7.101   2.577   5.799 -0.0029 -0.0719 -0.0758
 1407SOL    HW116199   7.040   2.553   5.870  0.4074  0.3517  0.4194
 1407SOL    HW216200   7.160   2.641   5.838  1.6216 -1.4627 -0.1464
 1408SOL     OW16201   0.785   9.586   4.763 -0.2009 -0.3924 -0.5273
 1408SOL    HW116202   0.748   9.499   4.778 -0.3816 -0.2177  0.0746
 1408SOL    HW216203   0.803   9.589   4.669  0.3791 -1.3054 -0.4570
 1409SOL     OW16204   1.644   0.227   2.415  0.4156 -0.6393  0.6014
 1409SOL    HW116205   1.714   0.239   2.480  1.7835 -0.9761 -0.7411
 1409SOL    HW216206   1.656   0.137   2.384 -0.7496 -0.7606  0.4648
 1410SOL     OW16207   6.720   1.848   6.401  0.9289 -0.2391 -0.2921
 1410SOL    HW116208   6.703   1.844   6.307 -3.8402 -0.6890  0.2978
 1410SOL    HW216209   6.676   1.770   6.436  2.2685  0.0992  2.3717
 1411SOL     OW16210   8.039   0.910   1.179  0.1664  0.3520  0.4862
 1411SOL    HW116211   8.039   0.985   1.238 -0.5099  1.1572 -0.4903
 1411SOL    HW216212   7.965   0.857   1.207 -0.4285  0.9620  0.0951
 1412SOL     OW16213   3.711   8.055   6.350 -0.2106 -0.2452  0.5741
 1412SOL    HW116214   3.652   8.115   6.395 -0.6987  0.6446 -1.1571
 1412SOL    HW216215   3.794   8.103   6.346 -0.6845  0.5117 -1.0841
 1413SOL     OW16216   0.412   4.642   9.554  0.4741 -0.1350 -0.4256
 1413SOL    HW116217   0.370   4.670   9.635  0.1965 -0.1443 -0.5642
 1413SOL    HW216218   0.343   4.598   9.505  0.7818 -0.6233 -0.4275
 1414SOL     OW16219   4.490   1.087   8.109  0.3572  0.6201  0.3165
 1414SOL    HW116220   4.583   1.096   8.126  0.3939  0.9572 -0.0459
 1414SOL    HW216221   4.455   1.043   8.187  1.2252 -1.8059 -0.5632
 1415SOL     OW16222   7.631   6.902   2.450  0.1695 -0.1340 -0.3180
 1415SOL    HW116223   7.715   6.907   2.403  0.3239  0.8358  0.0400
 1415SOL    HW216224   7.640   6.964   2.522 -0.2465 -1.2429  0.7235
 1416SOL     OW16225   0.998   7.892   7.300  0.4515  0.2426 -0.6364
 1416SOL    HW116226   1.017   7.899   7.207  0.9889 -1.3094 -0.6605
 1416SOL    HW216227   1.083   7.906   7.343  0.9058 -2.2549 -0.5595
 1417SOL     OW16228   8.754   6.264   0.623 -0.3458 -0.2794  0.1405
 1417SOL    HW116229   8.659   6.261   0.634 -0.8059  2.9014 -1.7531
 1417SOL    HW216230   8.778   6.353   0.650  2.0731 -0.9209  0.2791
 1418SOL     OW16231   4.210   2.152   4.400 -0.2868 -0.1194  0.1303
 1418SOL    HW116232   4.198   2.061   4.426 -1.0577 -0.1663 -0.3397
 1418SOL    HW216233   4.151   2.163   4.325 -0.0809  0.7218  0.0819
 1419SOL     OW16234   7.439   5.407   9.352  0.3984 -0.1590  0.5520
 1419SOL    HW116235   7.424   5.415   9.257 -0.9062 -0.2903  0.7222
 1419SOL    HW216236   7.521   5.359   9.360 -0.4433 -1.8566 -0.5251
 1420SOL     OW16237   8.240   0.513   1.246  0.4485  0.0126 -0.6039
 1420SOL    HW116238   8.214   0.456   1.319  1.9956 -1.0230 -0.7925
 1420SOL    HW216239   8.312   0.465   1.203 -0.8461  0.2390 -3.2469
 1421SOL     OW16240   4.407   8.315   6.189  0.3993  0.2376 -0.2844
 1421SOL    HW116241   4.480   8.277   6.238 -0.9293  0.3072  1.8848
 1421SOL    HW216242   4.429   8.299   6.097  4.4004  2.5943  0.0449
 1422SOL     OW16243   6.721   8.604   8.879  0.1050 -0.0180  0.1757
 1422SOL    HW116244   6.687   8.692   8.894  0.1766 -0.1961  1.4817
 1422SOL    HW216245   6.656   8.562   8.823 -1.9904 -0.4151  2.7321
 1423SOL     OW16246   0.042   9.192   1.958 -0.1809  0.0838 -0.0557
 1423SOL    HW116247  -0.002   9.263   1.911 -1.8075  0.2275  1.5672
 1423SOL    HW216248   0.123   9.231   1.989  0.7172  0.1190 -2.2292
 1424SOL     OW16249   3.736   6.694   7.470  0.2953 -0.3902  0.3059
 1424SOL    HW116250   3.724   6.600   7.481 -1.5895 -0.1888  0.4486
 1424SOL    HW216251   3.654   6.723   7.429 -0.4287  1.5743  2.8652
 1425SOL     OW16252   6.021   3.667   5.638  0.1138 -0.1762 -0.0405
 1425SOL    HW116253   6.046   3.612   5.712  0.4959  1.3573  1.0239
 1425SOL    HW216254   6.031   3.757   5.670 -0.1727  0.5365 -1.8065
 1426SOL     OW16255   4.656   4.907   6.821  0.2227 -0.0298 -0.0147
 1426SOL    HW116256   4.742   4.883   6.855  0.4069  1.3023  0.5431
 1426SOL    HW216257   4.615   4.956   6.892 -1.7053 -2.0578  0.3763
 1427SOL     OW16258  10.070   4.909   4.401  0.0222  0.1610 -0.6095
 1427SOL    HW116259   9.990   4.960   4.391  0.2912  1.0159  1.2867
 1427SOL    HW216260  10.123   4.959   4.463  0.3965 -2.2950  1.1831
 1428SOL     OW16261   8.498   7.953   6.818  0.6967 -0.0477  0.2425
 1428SOL    HW116262   8.464   7.969   6.906 -0.4585 -0.6772 -0.0678
 1428SOL    HW216263   8.592   7.942   6.830  0.7654  1.3368  1.1867
 1429SOL     OW16264   4.455   4.842   4.897 -0.1161  0.0852  0.5007
 1429SOL    HW116265   4.464   4.798   4.812  0.4817  0.8873  0.1386
 1429SOL    HW216266   4.517   4.797   4.954  1.2588  1.0897 -0.1450
 1430SOL     OW16267   8.777   0.760   3.271 -0.1344  0.5375 -0.5640
 1430SOL    HW116268   8.761   0.709   3.191 -0.8403 -0.7233  0.3525
 1430SOL    HW216269   8.740   0.846   3.251  0.6106  0.5717 -1.9527
 1431SOL     OW16270   8.140   9.261   8.992 -0.3581  0.4217  0.1325
 1431SOL    HW116271   8.087   9.224   8.922  1.5761 -0.4387 -0.9641
 1431SOL    HW216272   8.102   9.226   9.073  1.7224 -4.8891 -0.7962
 1432SOL     OW16273   5.678   3.635   6.328  0.0776  0.4955  0.1625
 1432SOL    HW116274   5.734   3.661   6.255  0.4105 -0.0857  0.2052
 1432SOL    HW216275   5.675   3.540   6.323 -1.4247  0.5472 -0.2162
 1433SOL     OW16276   0.590   0.076   0.668 -0.4050  0.6021  0.1828
 1433SOL    HW116277   0.506   0.122   0.661 -1.1180 -0.8083 -1.0096
 1433SOL    HW216278   0.571  -0.014   0.641  1.2899 -0.0112  0.8625
 1434SOL     OW16279   5.240   6.355   0.043 -0.2614  0.0359  0.3276
 1434SOL    HW116280   5.222   6.448   0.036  1.8436  0.5452  0.9049
 1434SOL    HW216281   5.234   6.337   0.137  0.8991 -0.0337  0.3996
 1435SOL     OW16282   3.621   8.927   6.622  0.7580  0.1794 -0.2777
 1435SOL    HW116283   3.525   8.925   6.619  0.7298  0.3380  0.4917
 1435SOL    HW216284   3.647   8.916   6.530  0.0233 -0.6377 -0.4016
 1436SOL     OW16285   6.057   3.028   2.070  0.4922  0.1636  0.2803
 1436SOL    HW116286   6.093   3.086   2.003  0.1454 -1.4608 -1.3912
 1436SOL    HW216287   5.967   3.060   2.083  0.2929  0.0245 -0.6491
 1437SOL     OW16288   4.911   5.494   5.872  0.0203 -0.0476  0.5775
 1437SOL    HW116289   4.834   5.544   5.845 -1.9728 -2.9416  0.4643
 1437SOL    HW216290   4.970   5.498   5.797 -0.8075  0.7351 -0.0497
 1438SOL     OW16291   0.466   6.589   6.171  0.0095 -0.2727 -0.5650
 1438SOL    HW116292   0.507   6.510   6.136 -1.5537 -0.9364 -0.9812
 1438SOL    HW216293   0.410   6.558   6.242 -0.7370  0.4305 -0.8279
 1439SOL     OW16294  10.046   8.731   9.374 -0.2139  0.5601  0.5854
 1439SOL    HW116295  10.046   8.717   9.279 -1.2533 -0.6140  0.7210
 1439SOL    HW216296  10.135   8.710   9.401 -0.7639 -2.7939  0.2803
 1440SOL     OW16297   4.527   8.729   2.625  0.8149  0.2325  0.1675
 1440SOL    HW116298   4.619   8.726   2.650  0.7506 -1.3016  0.3020
 1440SOL    HW216299   4.506   8.640   2.599 -0.7578  0.4448  0.5820
 1441SOL     OW16300   2.447   6.738   6.563  0.1795  0.3629 -0.1584
 1441SOL    HW116301   2.483   6.818   6.524  0.5894  0.5314  0.5554
 1441SOL    HW216302   2.524   6.681   6.576  0.0784  0.3973  0.6048
 1442SOL     OW16303   8.639   2.761   6.282 -0.1577  0.3022 -0.2269
 1442SOL    HW116304   8.680   2.679   6.311 -0.4626 -0.1275 -0.9954
 1442SOL    HW216305   8.652   2.821   6.356  0.5335 -0.2743  0.1379
 1443SOL     OW16306   7.097   2.051   9.563  0.4132 -0.5213 -0.1481
 1443SOL    HW116307   7.174   2.057   9.505  0.0526 -1.8208 -0.7959
 1443SOL    HW216308   7.054   1.970   9.537 -0.7257 -0.2401  0.7885
 1444SOL     OW16309   3.278   3.249   4.993 -0.0341  0.2455 -0.1768
 1444SOL    HW116310   3.228   3.175   5.027  3.2395 -0.8699  2.7988
 1444SOL    HW216311   3.256   3.322   5.051 -0.7641  0.7721 -1.0753
 1445SOL     OW16312   0.868   9.615   5.913 -0.2763 -0.2702  0.2033
 1445SOL    HW116313   0.881   9.557   5.988 -1.1715 -0.4047  0.2603
 1445SOL    HW216314   0.797   9.674   5.940 -1.1172 -0.7871 -0.8063
 1446SOL     OW16315   4.113   1.154   0.145 -0.3012  0.2955 -0.3521
 1446SOL    HW116316   4.152   1.112   0.221  0.8883  3.9401  1.2114
 1446SOL    HW216317   4.151   1.107   0.070  3.1245  0.3407  1.1969
 1447SOL     OW16318   9.096   4.177   9.416 -0.1501 -0.3944  0.5524
 1447SOL    HW116319   9.048   4.104   9.377 -0.4410 -0.1657  0.4816
 1447SOL    HW216320   9.053   4.193   9.499 -0.4721  0.0951  0.2932
 1448SOL     OW16321   2.838   8.020   7.747  0.4081  0.2444  0.6569
 1448SOL    HW116322   2.914   8.055   7.794  0.0124  0.9323  0.8078
 1448SOL    HW216323   2.832   7.929   7.773  1.1933  0.1864  0.6299
 1449SOL     OW16324   5.533   9.504   0.930  0.1384 -0.0924  0.1854
 1449SOL    HW116325   5.577   9.433   0.883 -0.5785 -0.0008 -0.6668
 1449SOL    HW216326   5.592   9.526   1.002  0.8672 -0.8270 -0.1683
 1450SOL     OW16327   5.359   8.872   7.695 -0.3054 -0.2431  0.7269
 1450SOL    HW116328   5.288   8.814   7.667  0.3841 -2.0469  2.4565
 1450SOL    HW216329   5.327   8.960   7.676 -2.8287 -1.0020  1.0602
 1451SOL     OW16330   4.908   9.621   2.919  0.7054  0.4225 -0.0325
 1451SOL    HW116331   4.816   9.649   2.920  0.4299 -0.2996 -1.6851
 1451SOL    HW216332   4.907   9.538   2.871  2.0048 -0.4998  1.4377
 1452SOL     OW16333   2.377   3.924   3.899 -0.1480 -0.3765 -0.4042
 1452SOL    HW116334   2.294   3.897   3.858 -1.1432  2.9826 -0.8518
 1452SOL    HW216335   2.350   3.963   3.983  0.9973  0.5804 -0.4641
 1453SOL     OW16336   1.806   0.712   7.436  0.2205 -0.2788  0.0381
 1453SOL    HW116337   1.842   0.793   7.472 -0.8610 -0.0815  0.7225
 1453SOL    HW216338   1.880   0.650   7.437  0.8034  0.4127  0.4175
 1454SOL     OW16339   9.978   1.333   0.932  0.9337 -0.4314  0.1130
 1454SOL    HW116340  10.065   1.367   0.912  0.8618 -0.5781 -0.4609
 1454SOL    HW216341   9.918   1.402   0.904  0.8565 -0.3909  0.3742
 1455SOL     OW16342   8.327   8.704   6.783  0.6696 -0.0942 -0.4249
 1455SOL    HW116343   8.342   8.659   6.866  1.1324 -0.8117 -0.8930
 1455SOL    HW216344   8.232   8.699   6.770  0.5221  0.4878  0.3049
 1456SOL     OW16345   0.092   9.164   7.849 -0.0513  0.3703  0.5922
 1456SOL    HW116346   0.071   9.075   7.819  3.3586 -0.8004  1.2778
 1456SOL    HW216347   0.136   9.151   7.933 -0.0525  2.7928  1.0149
 1457SOL     OW16348   3.224   0.524   1.222  0.8112 -0.2932  0.3848
 1457SOL    HW116349   3.190   0.599   1.173  1.0464  0.9783  2.0677
 1457SOL    HW216350   3.302   0.497   1.173  1.1521  1.0525  0.1258
 1458SOL     OW16351   3.716   5.458   4.336 -0.4767  0.0697  0.4794
 1458SOL    HW116352   3.638   5.513   4.331  0.2343  1.0872  0.3841
 1458SOL    HW216353   3.745   5.467   4.427  1.1610  2.0426 -0.1638
 1459SOL     OW16354   7.028   2.411   6.929  0.3011  0.0416 -0.4823
 1459SOL    HW116355   7.075   2.486   6.965 -1.5664  0.2980  1.6258
 1459SOL    HW216356   6.954   2.450   6.882 -1.4090 -0.4088  1.7001
 1460SOL     OW16357   5.458   8.532   3.624 -0.4823  0.3689  0.3268
 1460SOL    HW116358   5.374   8.490   3.601 -0.3165 -1.1115  2.1482
 1460SOL    HW216359   5.433   8.609   3.675 -0.7438  0.4177  0.1270
 1461SOL     OW16360   8.576   9.170   6.670  0.0780  0.7241 -0.1963
 1461SOL    HW116361   8.668   9.187   6.649  0.3167  1.1635  1.1233
 1461SOL    HW216362   8.578   9.123   6.754 -0.9142  1.4430  0.2552
 1462SOL     OW16363   0.516   2.464   8.558  0.4364  0.2336 -0.3347
 1462SOL    HW116364   0.518   2.401   8.631  0.3398 -0.1661 -0.6757
 1462SOL    HW216365   0.608   2.482   8.540  0.4560  0.6990  0.1976
 1463SOL     OW16366   2.961   1.149   3.889 -0.2290 -0.0069  0.2167
 1463SOL    HW116367   2.984   1.154   3.796 -0.3619  0.0599  0.1870
 1463SOL    HW216368   2.896   1.078   3.893 -2.3557  1.7882 -0.1818
 1464SOL     OW16369   1.706   1.640   2.964 -0.4372  0.5018 -0.1720
 1464SOL    HW116370   1.740   1.668   2.879  0.7420 -0.0501  0.1005
 1464SOL    HW216371   1.630   1.696   2.979  0.6326  2.1214 -0.5871
 1465SOL     OW16372   6.397   1.305   8.126  0.4887  0.2257  0.1507
 1465SOL    HW116373   6.459   1.312   8.054 -2.5167 -0.0054 -2.7006
 1465SOL    HW216374   6.423   1.226   8.173  2.5613  0.3836 -0.6460
 1466SOL     OW16375  10.246   2.560   1.061  0.1864 -0.7587  0.2676
 1466SOL    HW116376  10.329   2.515   1.076  0.5077  0.0598  1.0406
 1466SOL    HW216377  10.267   2.653   1.066 -0.0516 -0.3619 -3.4728
 1467SOL     OW16378   8.730   2.623   4.567  0.4706  0.1860  0.2455
 1467SOL    HW116379   8.731   2.671   4.649 -0.4700  0.9633 -0.1814
 1467SOL    HW216380   8.812   2.572   4.568  1.1799  1.2972  1.0000
 1468SOL     OW16381   4.362   5.663   2.960 -0.4081 -0.2826  0.0951
 1468SOL    HW116382   4.394   5.573   2.970  1.0749  0.1903 -0.2081
 1468SOL    HW216383   4.387   5.688   2.871 -3.4495 -0.5540 -0.9562
 1469SOL     OW16384   7.045   7.948   4.078 -0.2357 -0.5641 -0.0764
 1469SOL    HW116385   7.015   7.972   4.166  0.9278  0.8106 -0.0152
 1469SOL    HW216386   7.011   7.859   4.064 -0.0850 -0.9799  1.9248
 1470SOL     OW16387   4.881   6.547   4.679 -0.1862 -0.3530  0.2293
 1470SOL    HW116388   4.805   6.516   4.630 -0.2135  1.2242 -0.8208
 1470SOL    HW216389   4.879   6.497   4.760 -2.0391 -0.7440 -0.0005
 1471SOL     OW16390   6.919   8.497   5.593 -0.5519 -0.2365  0.4102
 1471SOL    HW116391   6.833   8.474   5.628 -0.3074 -1.4028  0.3051
 1471SOL    HW216392   6.975   8.423   5.618 -0.2252 -0.8602 -1.9250
 1472SOL     OW16393   9.214   7.617   1.123 -0.1536 -0.1719 -0.1504
 1472SOL    HW116394   9.284   7.643   1.063 -0.0281  0.8431  0.4070
 1472SOL    HW216395   9.133   7.629   1.073  0.0144 -0.3585 -0.4649
 1473SOL     OW16396   1.275   7.897   8.480  0.0620  0.0759 -0.1603
 1473SOL    HW116397   1.182   7.900   8.456 -0.1476 -0.3025  0.5598
 1473SOL    HW216398   1.314   7.837   8.416 -0.2285  0.0919 -0.3565
 1474SOL     OW16399   1.170   0.309   4.756  0.4046  0.2701 -0.0663
 1474SOL    HW116400   1.148   0.237   4.696 -0.7833  0.9513 -0.4904
 1474SOL    HW216401   1.185   0.383   4.698  3.5536 -0.0063  0.2203
 1475SOL     OW16402   4.882   0.923   0.414 -0.5207 -0.0151  0.1911
 1475SOL    HW116403   4.929   0.839   0.422  0.5906  0.5161 -0.4215
 1475SOL    HW216404   4.895   0.966   0.499  1.2726  0.6794 -0.3903
 1476SOL     OW16405   5.220   8.452   2.674  0.2652 -0.1478 -0.4779
 1476SOL    HW116406   5.187   8.446   2.763 -0.3918 -0.0786 -0.7128
 1476SOL    HW216407   5.269   8.371   2.661  0.3036 -0.1902 -0.0857
 1477SOL     OW16408   2.581   0.893   6.698 -0.7054  0.5652 -0.0948
 1477SOL    HW116409   2.653   0.856   6.750 -1.1398 -0.6594 -0.3468
 1477SOL    HW216410   2.618   0.903   6.610 -0.7825  0.1207 -0.1784
 1478SOL     OW16411   0.968   8.594   9.035  0.3601  0.4752  0.2918
 1478SOL    HW116412   1.003   8.529   8.975 -0.1162 -2.0287  2.5160
 1478SOL    HW216413   1.045   8.632   9.078  0.6042 -0.3114  0.5753
 1479SOL     OW16414   0.282   6.139   5.643  0.1410  0.3219  0.0160
 1479SOL    HW116415   0.199   6.147   5.596  0.7158 -0.1065 -1.1226
 1479SOL    HW216416   0.257   6.116   5.732 -0.9662  0.0861 -0.3329
 1480SOL     OW16417   7.450   9.608   4.522 -0.3282  0.4213  0.0594
 1480SOL    HW116418   7.525   9.656   4.558  0.1648 -0.7044  0.5801
 1480SOL    HW216419   7.438   9.534   4.582 -2.5398  1.1387  0.5863
 1481SOL     OW16420   9.833   4.316   0.048 -0.3590 -0.2864 -0.1478
 1481SOL    HW116421   9.815   4.367  -0.031 -1.3362 -1.1397 -0.5115
 1481SOL    HW216422   9.896   4.249   0.020 -1.3138 -1.0911 -0.4347
 1482SOL     OW16423   4.989   7.310   8.639  0.1001  0.0751 -0.4754
 1482SOL    HW116424   4.920   7.260   8.682 -0.7325 -1.1583 -3.0169
 1482SOL    HW216425   5.059   7.247   8.623  0.3612  0.4775 -0.9484
 1483SOL     OW16426   6.280   3.028   3.362 -0.4904 -0.0288 -0.1101
 1483SOL    HW116427   6.196   3.024   3.318  0.2441 -1.9756 -1.4590
 1483SOL    HW216428   6.332   3.089   3.310 -0.5052 -0.1797 -0.2988
 1484SOL     OW16429   9.889   4.049   1.236 -0.2842  0.0867  0.7159
 1484SOL    HW116430   9.905   4.093   1.152 -0.2615  1.0206  1.1954
 1484SOL    HW216431   9.970   4.062   1.286  0.3805 -1.9552  0.2846
 1485SOL     OW16432   8.924   6.481   9.989  0.3722 -0.1384 -0.3285
 1485SOL    HW116433   8.956   6.394   9.962 -2.5627 -1.4522  0.0224
 1485SOL    HW216434   8.865   6.508   9.918 -1.2231  0.0413  1.0037
 1486SOL     OW16435   8.474   4.456   3.156 -0.0878 -0.0254 -0.8677
 1486SOL    HW116436   8.390   4.413   3.170  0.6489 -1.4013 -0.4447
 1486SOL    HW216437   8.484   4.458   3.061 -0.5545  0.0755 -0.9188
 1487SOL     OW16438  10.366  10.286   8.427  0.0883  0.0587 -0.0101
 1487SOL    HW116439  10.348  10.379   8.414  2.2835  0.5776  0.1402
 1487SOL    HW216440  10.361  10.247   8.340  0.6683  0.6490 -0.3176
 1488SOL     OW16441   7.727   9.988   7.402 -0.0358 -0.1687  0.3938
 1488SOL    HW116442   7.637  10.017   7.416  0.3758  1.0541  0.6178
 1488SOL    HW216443   7.781  10.062   7.430  1.0132 -0.2624 -1.2406
 1489SOL     OW16444   7.565   7.679   4.944  0.0730 -0.2971  0.1690
 1489SOL    HW116445   7.486   7.659   4.894 -0.4536  0.9561  0.4599
 1489SOL    HW216446   7.564   7.775   4.953  0.4495 -0.4462  2.0978
 1490SOL     OW16447   6.853   5.878  10.220 -0.0807  0.0612 -0.2159
 1490SOL    HW116448   6.837   5.847  10.131  0.3085  1.2400 -0.7188
 1490SOL    HW216449   6.816   5.967  10.222  1.1636  0.5936  0.3597
 1491SOL     OW16450   3.098   7.404   5.162  0.2607 -0.8093  0.1640
 1491SOL    HW116451   3.036   7.475   5.181  0.7197 -0.3703  0.0509
 1491SOL    HW216452   3.048   7.342   5.108 -0.4571 -1.0887  1.1281
 1492SOL     OW16453   5.864  10.128   2.661 -0.0506  0.2611  0.6746
 1492SOL    HW116454   5.827  10.042   2.641  0.2795 -0.0165  1.2263
 1492SOL    HW216455   5.953  10.110   2.692 -0.0675  0.7768  1.0528
 1493SOL     OW16456   8.043   0.365   2.503  0.2899  0.2947 -0.1976
 1493SOL    HW116457   7.989   0.435   2.466 -0.7484 -0.6363 -0.4963
 1493SOL    HW216458   8.124   0.367   2.452 -0.0170  0.8113 -0.6768
 1494SOL     OW16459   1.754   0.362   8.134 -0.0717 -0.1939  0.5042
 1494SOL    HW116460   1.729   0.272   8.111  0.7329 -0.1187 -0.7745
 1494SOL    HW216461   1.814   0.352   8.207  1.5578 -0.8921 -0.8535
 1495SOL     OW16462   9.000   0.194   8.071  0.2532  0.1694  0.1444
 1495SOL    HW116463   9.047   0.135   8.130  0.4417 -0.8379 -0.9883
 1495SOL    HW216464   9.068   0.230   8.014 -0.2385 -0.7898 -1.0800
 1496SOL     OW16465   7.821   8.112   1.167  0.6865 -0.2945  0.2072
 1496SOL    HW116466   7.855   8.150   1.248  0.0028 -0.4858  0.5970
 1496SOL    HW216467   7.870   8.154   1.098 -0.4240  1.7534  0.5788
 1497SOL     OW16468   5.158   9.761   6.938  0.7011  0.1067 -0.3057
 1497SOL    HW116469   5.253   9.758   6.935  0.7785  0.7506  1.0335
 1497SOL    HW216470   5.132   9.677   6.977  0.7651  0.2708  0.0911
 1498SOL     OW16471   9.108  10.294   8.592  0.3049 -0.2803 -0.3587
 1498SOL    HW116472   9.087  10.254   8.677  0.8484 -1.0140 -0.5651
 1498SOL    HW216473   9.162  10.370   8.615 -0.2557  0.0097  0.0041
 1499SOL     OW16474   7.789   0.299   8.791  0.0747 -0.0278  0.3695
 1499SOL    HW116475   7.727   0.236   8.754 -1.2376  0.7521  1.1760
 1499SOL    HW216476   7.799   0.365   8.722  2.0729 -1.4539 -0.8006
 1500SOL     OW16477   8.946  10.011   7.575  0.2026  0.1470 -0.6011
 1500SOL    HW116478   8.896   9.962   7.510 -2.6230  1.1410  0.6530
 1500SOL    HW216479   8.926   9.968   7.658  2.0599  0.1795 -0.0939
 1501SOL     OW16480   4.846   0.994   6.548 -0.1046 -0.1932 -0.1982
 1501SOL    HW116481   4.752   0.983   6.555  0.0282 -1.6283 -0.3821
 1501SOL    HW216482   4.863   0.999   6.454  0.2417 -2.8025 -0.3483
 1502SOL     OW16483   2.845   3.138   1.513 -0.4318 -0.1600  0.2467
 1502SOL    HW116484   2.892   3.134   1.596  1.7689 -0.8075 -0.9270
 1502SOL    HW216485   2.814   3.048   1.499  1.4359 -0.7083 -0.7506
 1503SOL     OW16486   1.748   3.158   1.682  1.2621 -0.3877 -0.0042
 1503SOL    HW116487   1.675   3.172   1.622  1.8531  0.4619 -0.5324
 1503SOL    HW216488   1.707   3.117   1.759  0.2532 -0.0601 -0.3449
 1504SOL     OW16489   6.123   2.416   9.084 -0.5167 -0.4824 -0.4492
 1504SOL    HW116490   6.095   2.455   9.001  0.1374 -1.3331 -1.0946
 1504SOL    HW216491   6.048   2.428   9.142 -0.4292  1.4623 -0.6882
 1505SOL     OW16492   3.613   8.759   3.208  0.0456  0.4518 -0.4132
 1505SOL    HW116493   3.560   8.784   3.284  2.8848 -0.5748  2.0616
 1505SOL    HW216494   3.663   8.838   3.187  0.7566  0.1567  0.1368
 1506SOL     OW16495   2.876   8.452   9.498 -0.1972 -0.3389 -0.5503
 1506SOL    HW116496   2.845   8.541   9.514 -0.5473 -0.9373  2.8774
 1506SOL    HW216497   2.801   8.397   9.517  1.1293 -1.4986  1.8345
 1507SOL     OW16498   8.353   9.050   3.252 -0.2077  0.0015 -0.1764
 1507SOL    HW116499   8.298   8.997   3.194 -2.3117 -0.3324  1.9538
 1507SOL    HW216500   8.303   9.132   3.264  2.0854  1.7778 -1.9024
 1508SOL     OW16501   7.444   8.551   0.283  0.1166 -0.2276 -0.3986
 1508SOL    HW116502   7.519   8.494   0.303 -0.9536 -0.7192  2.7577
 1508SOL    HW216503   7.368   8.501   0.314 -1.1456  1.6629 -0.3497
 1509SOL     OW16504   9.501   3.237   6.548  0.8059  0.8530 -0.6291
 1509SOL    HW116505   9.562   3.259   6.477  1.3552  0.1123 -0.4047
 1509SOL    HW216506   9.451   3.163   6.514  2.1839 -0.5870  0.3114
 1510SOL     OW16507   1.466   7.179   0.738  0.0341 -0.4547  0.3326
 1510SOL    HW116508   1.420   7.231   0.804  1.6457 -0.6567  1.6824
 1510SOL    HW216509   1.425   7.204   0.655 -1.3811  0.5531  1.2816
 1511SOL     OW16510   6.095   5.890   7.511 -0.4638 -0.5576 -0.2773
 1511SOL    HW116511   6.079   5.806   7.553  0.4852  0.1470  1.6106
 1511SOL    HW216512   6.185   5.912   7.535 -0.7975  1.1348 -0.4609
 1512SOL     OW16513   7.488   5.101   1.824 -0.2480 -0.5084  0.2856
 1512SOL    HW116514   7.471   5.090   1.731  3.0825 -0.2003 -0.4995
 1512SOL    HW216515   7.509   5.013   1.855 -2.3034 -0.7737  1.0343
 1513SOL     OW16516   2.229   4.822   8.855  0.4432  0.2338  0.0341
 1513SOL    HW116517   2.276   4.743   8.879  0.3867  0.1705 -0.0657
 1513SOL    HW216518   2.270   4.851   8.773  0.4589  0.3038  0.0665
 1514SOL     OW16519   5.944   2.666   3.058 -0.2800 -0.1000  0.0837
 1514SOL    HW116520   5.944   2.585   3.006 -1.0251  0.0791 -0.2168
 1514SOL    HW216521   5.897   2.729   3.003 -0.8303  0.1775  0.8612
 1515SOL     OW16522   3.511   3.757   3.914 -0.6403 -0.1983  0.2179
 1515SOL    HW116523   3.559   3.719   3.841 -0.6059 -1.5634  0.9046
 1515SOL    HW216524   3.467   3.682   3.955 -1.1759  0.6226  1.2094
 1516SOL     OW16525   1.399   7.790   8.969  0.1705  0.3266 -0.5804
 1516SOL    HW116526   1.327   7.833   9.017  0.7277  0.5918  0.0282
 1516SOL    HW216527   1.375   7.800   8.877 -0.1751  1.1291 -0.4116
 1517SOL     OW16528   7.483   1.628   0.128  0.0608 -0.1502  0.1123
 1517SOL    HW116529   7.538   1.568   0.179  0.7459  0.2263 -0.1772
 1517SOL    HW216530   7.455   1.694   0.191  0.4122 -0.0227  0.1374
 1518SOL     OW16531   2.605   3.300   3.463 -0.5160  0.3361 -0.0288
 1518SOL    HW116532   2.543   3.306   3.391 -1.1758  2.7117  0.6520
 1518SOL    HW216533   2.591   3.379   3.514  1.5041 -0.1616  1.4519
 1519SOL     OW16534   7.382   2.449   2.027 -0.7698  0.3457 -0.3866
 1519SOL    HW116535   7.448   2.380   2.022 -0.6417  0.5309 -1.4281
 1519SOL    HW216536   7.379   2.472   2.120  0.3815  0.0953 -0.2686
 1520SOL     OW16537   9.166   9.744   2.736 -0.3721 -0.5276 -0.2721
 1520SOL    HW116538   9.121   9.806   2.793  0.4974  0.1637 -0.3117
 1520SOL    HW216539   9.249   9.786   2.715  0.1647 -1.6254 -0.4615
 1521SOL     OW16540   0.887   0.196   6.295  0.3958 -1.3074  0.1885
 1521SOL    HW116541   0.805   0.148   6.285 -0.8719  0.9009 -0.7748
 1521SOL    HW216542   0.929   0.189   6.209 -0.2142 -0.0641 -0.2397
 1522SOL     OW16543   9.199  10.057   3.128  0.6235  0.6665  0.3406
 1522SOL    HW116544   9.276  10.005   3.147  0.6204  0.9340  1.1190
 1522SOL    HW216545   9.151  10.061   3.211  1.1694  2.7824  0.6264
 1523SOL     OW16546   3.536   6.661   6.128 -0.3679  0.3605 -0.3518
 1523SOL    HW116547   3.447   6.645   6.162 -0.6861 -0.7585 -1.6450
 1523SOL    HW216548   3.584   6.581   6.150  0.1577  0.7214 -0.1859
 1524SOL     OW16549   8.980   0.233   8.409 -0.0870  0.0125 -0.2176
 1524SOL    HW116550   8.993   0.316   8.363  1.4079 -0.1218 -0.1124
 1524SOL    HW216551   8.902   0.195   8.369  0.1633  0.7078 -1.4211
 1525SOL     OW16552   4.878   0.446   2.030  0.6497 -0.7302  0.0623
 1525SOL    HW116553   4.901   0.375   2.089  1.4561 -1.5440 -1.1964
 1525SOL    HW216554   4.890   0.525   2.083 -1.1324 -1.5013  1.7684
 1526SOL     OW16555   3.635   6.503   8.309 -0.8432  0.2696  0.1408
 1526SOL    HW116556   3.702   6.490   8.242 -0.9467  1.0696 -0.1294
 1526SOL    HW216557   3.604   6.415   8.330  0.5460 -0.1503  0.5479
 1527SOL     OW16558   8.345   9.693   4.203  0.0904  0.1323  0.6443
 1527SOL    HW116559   8.251   9.687   4.218  0.1922  0.2680  1.3331
 1527SOL    HW216560   8.361   9.786   4.184  0.5122  0.7300  3.5399
 1528SOL     OW16561   1.698   8.301   6.817  0.0982  0.2775 -0.0537
 1528SOL    HW116562   1.719   8.293   6.724 -1.4354  0.7604 -0.4715
 1528SOL    HW216563   1.752   8.234   6.859 -0.1465 -0.8487 -1.4506
 1529SOL     OW16564   3.009   2.821   9.322 -0.1400 -0.6789  0.1313
 1529SOL    HW116565   3.060   2.871   9.259 -2.0101  2.2041  0.7222
 1529SOL    HW216566   3.040   2.731   9.312  2.5718  0.3434 -1.8694
 1530SOL     OW16567   6.931   7.088   5.959  0.1605 -0.3975 -0.3215
 1530SOL    HW116568   6.935   7.005   6.007  1.6874 -0.7014 -0.9264
 1530SOL    HW216569   6.957   7.066   5.870  0.6274  0.7405 -0.4852
 1531SOL     OW16570   4.864   7.361   1.168  0.4265  0.0363 -0.0225
 1531SOL    HW116571   4.912   7.432   1.210 -0.2468 -0.2482  1.2594
 1531SOL    HW216572   4.816   7.319   1.239 -0.4970 -0.6526 -1.0299
 1532SOL     OW16573   2.044   6.996   2.031 -0.1133  0.1658 -0.3722
 1532SOL    HW116574   2.087   6.931   2.087 -1.0280 -0.8855 -0.8649
 1532SOL    HW216575   1.981   7.040   2.089 -0.6859 -0.5601 -0.4348
 1533SOL     OW16576   9.608   6.417   9.918  0.5436  0.0665  0.0216
 1533SOL    HW116577   9.672   6.373   9.861 -0.3039 -0.6635 -0.3923
 1533SOL    HW216578   9.602   6.361   9.995  0.9182  0.5118  0.3831
 1534SOL     OW16579   6.790   9.777  10.371  0.6575  0.1677 -0.5251
 1534SOL    HW116580   6.836   9.854  10.339 -2.3067  1.4769 -2.0266
 1534SOL    HW216581   6.753   9.805  10.455  2.4425 -0.8622  0.6616
 1535SOL     OW16582   4.539   0.693   8.973 -0.5173  0.0521  0.5068
 1535SOL    HW116583   4.532   0.755   8.900  0.0680 -1.3902 -0.8241
 1535SOL    HW216584   4.625   0.653   8.962  0.3362  1.0061  3.0231
 1536SOL     OW16585   4.669   2.605   4.298 -0.0657 -0.6396 -0.7870
 1536SOL    HW116586   4.761   2.625   4.318  0.1147 -0.5231 -1.6822
 1536SOL    HW216587   4.622   2.626   4.378  0.5332  0.4868 -0.7139
 1537SOL     OW16588  10.114   8.605   4.856  0.5047  0.4066  0.4532
 1537SOL    HW116589  10.089   8.647   4.774  1.0612  1.7726  0.9582
 1537SOL    HW216590  10.127   8.677   4.918  1.3842 -0.5137  1.3874
 1538SOL     OW16591   8.766   6.065   4.218 -0.6156 -0.1371  0.0858
 1538SOL    HW116592   8.804   6.153   4.213 -1.8273  0.3605 -1.5614
 1538SOL    HW216593   8.804   6.026   4.296 -0.6759  2.1600  1.3552
 1539SOL     OW16594   4.464   9.633   6.910  0.3567 -0.4774  0.3180
 1539SOL    HW116595   4.375   9.599   6.897  0.2194 -0.8597  1.9780
 1539SOL    HW216596   4.519   9.555   6.909  1.1378 -0.0657 -3.4013
 1540SOL     OW16597   5.262   9.641   4.285 -0.0696 -0.0662  0.2481
 1540SOL    HW116598   5.231   9.587   4.357  0.6626  0.6902  1.1504
 1540SOL    HW216599   5.356   9.648   4.299 -0.0658  0.9137 -0.2111
 1541SOL     OW16600   1.262   1.053   5.924 -0.8335 -0.2713  0.5261
 1541SOL    HW116601   1.260   0.972   5.872 -1.2474 -1.8692  2.8531
 1541SOL    HW216602   1.186   1.103   5.893  0.1230 -0.1308 -1.8009
 1542SOL     OW16603  10.249   8.955   4.661  0.3614  0.0066 -0.3276
 1542SOL    HW116604  10.261   8.949   4.756 -0.1121 -0.0313 -0.2700
 1542SOL    HW216605  10.312   9.022   4.634  0.3921  0.1284  0.0338
 1543SOL     OW16606   8.486   7.402   8.586  0.0380  0.5615  0.3812
 1543SOL    HW116607   8.434   7.334   8.542  1.0159  1.0924 -1.7424
 1543SOL    HW216608   8.569   7.359   8.606 -0.5476  0.1941  2.2531
 1544SOL     OW16609  10.061   7.297   8.171  0.3949 -0.8216  0.0548
 1544SOL    HW116610   9.990   7.239   8.200 -0.3396 -0.5521 -1.1344
 1544SOL    HW216611  10.081   7.350   8.248  0.1670 -1.7408  0.7764
 1545SOL     OW16612   7.097   3.088   4.059 -0.9047 -0.2371  0.3390
 1545SOL    HW116613   7.051   3.124   3.983 -2.8864 -1.0224  1.1021
 1545SOL    HW216614   7.163   3.154   4.081 -2.3513  1.4532 -0.1836
 1546SOL     OW16615   9.516   3.374   2.203  0.3326  0.4405 -0.7755
 1546SOL    HW116616   9.544   3.463   2.223  0.1973  0.4631 -0.6862
 1546SOL    HW216617   9.556   3.320   2.272  0.3654  0.4382 -0.7961
 1547SOL     OW16618   3.034   3.973   5.102 -0.5978 -0.3591  0.3171
 1547SOL    HW116619   3.127   3.971   5.123 -0.2915  0.0360 -0.9463
 1547SOL    HW216620   3.001   3.889   5.134  0.3773 -0.8992 -0.0653
 1548SOL     OW16621   3.869   7.809   3.750 -0.0973 -0.1447  0.1982
 1548SOL    HW116622   3.814   7.764   3.814 -1.0867  0.6341 -0.0821
 1548SOL    HW216623   3.957   7.774   3.765 -0.8294 -2.2741 -0.0966
 1549SOL     OW16624   5.008   3.044   0.656 -0.1666 -0.3820  0.3873
 1549SOL    HW116625   5.035   3.120   0.707  2.7033 -0.5861 -0.6601
 1549SOL    HW216626   5.087   2.990   0.650 -1.2467 -1.8581 -1.6676
 1550SOL     OW16627   0.259   3.300   2.271  0.1403  0.2175 -0.2528
 1550SOL    HW116628   0.270   3.314   2.177  1.1839  1.4584  0.0260
 1550SOL    HW216629   0.243   3.206   2.279 -0.2530  0.1347 -1.6906
 1551SOL     OW16630   0.913   9.629   2.151 -0.2899  0.2531 -0.5304
 1551SOL    HW116631   0.867   9.547   2.132  0.1460  0.0262 -0.6273
 1551SOL    HW216632   0.844   9.689   2.180 -0.9731  0.5705 -2.6260
 1552SOL     OW16633   0.615   9.149   1.721  0.5281  0.1984  0.1243
 1552SOL    HW116634   0.534   9.180   1.762  1.2736  3.0016 -0.2837
 1552SOL    HW216635   0.620   9.197   1.639  2.4569 -0.1224  0.0099
 1553SOL     OW16636   3.600   7.550   4.948  0.4972  0.3807  0.2929
 1553SOL    HW116637   3.649   7.473   4.919 -0.1190  0.2136 -0.3372
 1553SOL    HW216638   3.525   7.514   4.997  0.2280  0.5769  0.0293
 1554SOL     OW16639   6.935   8.134   7.173 -0.2903  0.1132  0.2147
 1554SOL    HW116640   6.969   8.209   7.125 -1.2954  0.3700 -0.1180
 1554SOL    HW216641   6.981   8.059   7.136 -2.8416 -0.0352 -3.0920
 1555SOL     OW16642   1.293   8.199   0.435  0.2827  0.4440  0.1881
 1555SOL    HW116643   1.307   8.289   0.463  0.2432  0.9288 -1.2537
 1555SOL    HW216644   1.201   8.182   0.455  0.1131  0.9631 -0.1255
 1556SOL     OW16645   2.537   7.743   3.220 -1.0583  0.0092  0.0315
 1556SOL    HW116646   2.613   7.696   3.186 -1.6481 -0.0450 -1.2945
 1556SOL    HW216647   2.541   7.828   3.177 -0.9771  0.5318  1.0528
 1557SOL     OW16648   1.977   4.874   7.591  0.2706  0.1201 -0.1369
 1557SOL    HW116649   2.050   4.865   7.653  1.4703 -1.1372 -1.6555
 1557SOL    HW216650   1.950   4.784   7.574  0.4480  0.3769 -1.9521
 1558SOL     OW16651   1.952   2.928   8.460  0.0641 -0.3717 -0.3873
 1558SOL    HW116652   1.965   2.940   8.366 -0.8699  0.1488 -0.4687
 1558SOL    HW216653   1.884   2.991   8.482 -0.5267 -1.2612  0.4236
 1559SOL     OW16654   1.471   9.678   0.441 -0.1260  0.7484 -0.2105
 1559SOL    HW116655   1.379   9.675   0.415 -0.1502  0.8082 -0.1311
 1559SOL    HW216656   1.514   9.729   0.373 -0.1309  0.6216 -0.3091
 1560SOL     OW16657   1.918   1.173   8.783 -0.2374 -0.1527  0.0175
 1560SOL    HW116658   2.012   1.187   8.788 -0.3092  0.2407  0.3618
 1560SOL    HW216659   1.886   1.243   8.727 -0.3536 -0.1397  0.0987
 1561SOL     OW16660   0.353   6.421   7.652  0.1613  1.0828  0.6604
 1561SOL    HW116661   0.434   6.443   7.698  0.6716 -0.3931  0.5039
 1561SOL    HW216662   0.353   6.326   7.646 -1.2952  1.0894  0.1083
 1562SOL     OW16663   2.319   7.030   2.324  0.9102  0.3094 -0.7304
 1562SOL    HW116664   2.371   7.019   2.404  2.2849  3.9905 -0.9186
 1562SOL    HW216665   2.234   7.062   2.355  0.6273 -0.4584 -0.6851
 1563SOL     OW16666   6.804   5.383   4.254  0.2067 -0.4488  0.4542
 1563SOL    HW116667   6.730   5.344   4.302  1.6505 -2.4314  1.1951
 1563SOL    HW216668   6.805   5.337   4.171 -1.2670  1.8280 -0.9390
 1564SOL     OW16669   2.737   4.043   7.698  0.4412 -0.2178 -0.7608
 1564SOL    HW116670   2.783   4.067   7.779  0.9647 -1.2410 -0.7380
 1564SOL    HW216671   2.717   4.127   7.657  0.3870  0.3170  0.3041
 1565SOL     OW16672   1.276   1.956   7.125  0.2305  0.3978 -0.3350
 1565SOL    HW116673   1.186   1.971   7.094  0.1304 -0.7034 -0.6284
 1565SOL    HW216674   1.267   1.950   7.220 -0.1814 -0.6643 -0.4208
 1566SOL     OW16675   6.606   9.312   1.900  0.1529 -0.0730  0.0126
 1566SOL    HW116676   6.617   9.277   1.812  0.5034 -0.6084  0.2662
 1566SOL    HW216677   6.513   9.304   1.919  0.2874 -1.2985  0.2406
 1567SOL     OW16678   3.257   7.388   3.948 -0.0356 -0.2077 -0.0048
 1567SOL    HW116679   3.166   7.393   3.917  0.1644 -2.0369 -1.0588
 1567SOL    HW216680   3.250   7.347   4.034 -0.1972 -0.8786 -0.3256
 1568SOL     OW16681   0.806   2.291   3.659 -0.0673  0.2374  0.2869
 1568SOL    HW116682   0.756   2.346   3.599 -0.2006  0.1144  0.2843
 1568SOL    HW216683   0.868   2.351   3.701  1.7300 -0.0534 -1.7416
 1569SOL     OW16684   2.989   7.810   5.655  0.3319  0.4071  0.0093
 1569SOL    HW116685   3.036   7.867   5.717  0.5153  0.5513 -0.2612
 1569SOL    HW216686   2.906   7.790   5.699  0.0583  1.2745 -0.0944
 1570SOL     OW16687   1.989   8.275   5.201 -0.4217 -0.2157 -0.6695
 1570SOL    HW116688   1.941   8.258   5.120  2.0404 -0.1163 -2.2912
 1570SOL    HW216689   2.021   8.189   5.228 -2.2862 -0.4405  0.9974
 1571SOL     OW16690  10.093   4.447   6.221  0.0270 -0.2686  0.2411
 1571SOL    HW116691  10.108   4.501   6.299  0.0362  0.7555 -0.4613
 1571SOL    HW216692  10.167   4.467   6.164 -0.7881  0.1768 -0.6789
 1572SOL     OW16693   5.883   6.065   6.308 -0.0562  0.2037  0.5754
 1572SOL    HW116694   5.957   6.125   6.307  1.7822 -1.9136  1.1866
 1572SOL    HW216695   5.853   6.063   6.217 -0.5145  2.3535  0.6273
 1573SOL     OW16696   7.162   8.445   2.095 -0.5706  0.2398 -0.0826
 1573SOL    HW116697   7.088   8.486   2.051 -2.1023 -2.9327 -0.6964
 1573SOL    HW216698   7.210   8.400   2.025 -0.1376 -0.7081  0.8026
 1574SOL     OW16699   9.903   4.815   4.658  0.4981 -0.2428 -0.3561
 1574SOL    HW116700   9.935   4.814   4.567  2.9725  3.6150  0.2326
 1574SOL    HW216701   9.948   4.741   4.699  2.0182 -0.0412 -1.5468
 1575SOL     OW16702   5.004   4.146   4.204 -0.8275  0.7173  0.6372
 1575SOL    HW116703   5.099   4.145   4.205 -0.5912 -1.3341 -3.0667
 1575SOL    HW216704   4.979   4.060   4.239 -1.1847  0.7069  0.3700
 1576SOL     OW16705   3.036   5.490   2.960 -0.0860  0.0924  0.0430
 1576SOL    HW116706   3.035   5.579   2.924 -1.9632  0.2974  0.4786
 1576SOL    HW216707   2.946   5.458   2.947  0.2498 -1.3049  0.9273
 1577SOL     OW16708   0.746   2.915   6.659  0.6545 -0.7786 -0.0106
 1577SOL    HW116709   0.811   2.867   6.710 -0.8054 -1.5685  1.1947
 1577SOL    HW216710   0.734   2.998   6.706  1.3011 -0.3117 -0.6474
 1578SOL     OW16711   6.602   5.830   0.172 -0.6315 -0.4233  0.0483
 1578SOL    HW116712   6.514   5.839   0.135 -0.0924  0.3946 -1.1184
 1578SOL    HW216713   6.591   5.845   0.265 -1.6242  0.4636 -0.1919
 1579SOL     OW16714   7.381   9.440   2.457 -0.1544  0.3962 -0.2437
 1579SOL    HW116715   7.293   9.453   2.423  0.3632 -0.6811 -2.1167
 1579SOL    HW216716   7.398   9.347   2.448  0.9461  0.4671  0.7379
 1580SOL     OW16717   2.339   3.751   7.253 -0.4155  0.0700  0.4647
 1580SOL    HW116718   2.290   3.827   7.283  1.7746  1.8221 -0.0855
 1580SOL    HW216719   2.423   3.757   7.298  1.3894  0.4080 -2.6085
 1581SOL     OW16720   1.192   4.236   4.132 -0.6166  0.4613 -0.2157
 1581SOL    HW116721   1.131   4.238   4.205  0.7745  0.2677  1.0039
 1581SOL    HW216722   1.279   4.237   4.173  0.2199 -0.9916 -1.8050
 1582SOL     OW16723   8.580   1.107   2.249  0.2642  0.0802  0.7426
 1582SOL    HW116724   8.626   1.163   2.312  0.7635  0.5123  0.0114
 1582SOL    HW216725   8.619   1.020   2.262 -0.2629 -0.0383  1.6350
 1583SOL     OW16726   9.980   8.437   4.282 -0.2069  0.0970  0.1365
 1583SOL    HW116727   9.992   8.531   4.289  0.4460  0.0971 -0.8430
 1583SOL    HW216728  10.065   8.400   4.307  0.2312 -0.1223 -1.5302
 1584SOL     OW16729   9.844   2.605   8.095 -0.2409  0.2493  0.6683
 1584SOL    HW116730   9.904   2.549   8.047  0.1536 -0.0786  1.5247
 1584SOL    HW216731   9.770   2.548   8.118 -0.7043  0.5497 -0.0297
 1585SOL     OW16732   2.695   2.707   0.817  0.0182 -0.2755 -0.5406
 1585SOL    HW116733   2.752   2.656   0.875  1.9891  2.0566 -0.2794
 1585SOL    HW216734   2.619   2.650   0.802  1.5042 -2.7576  0.6670
 1586SOL     OW16735   3.470   0.742   4.782  0.0448 -0.4762 -0.5443
 1586SOL    HW116736   3.419   0.775   4.707 -1.9650  1.2911  1.4454
 1586SOL    HW216737   3.499   0.821   4.827  1.4772 -1.4984  0.3862
 1587SOL     OW16738   2.700   1.398   7.375  0.6199 -0.0737  0.3487
 1587SOL    HW116739   2.626   1.413   7.316  0.4966 -0.9206  0.2829
 1587SOL    HW216740   2.685   1.459   7.447  1.1113  1.4490 -0.7734
 1588SOL     OW16741   2.292   7.972   1.476  0.2560  0.7795  0.2389
 1588SOL    HW116742   2.267   8.059   1.508 -1.9846 -0.2319  1.4746
 1588SOL    HW216743   2.246   7.962   1.393 -0.4936  0.3387  0.6949
 1589SOL     OW16744   6.001   8.275   6.904  0.3860  0.5309 -0.1923
 1589SOL    HW116745   5.908   8.271   6.928  0.2266 -0.0368 -0.8666
 1589SOL    HW216746   6.003   8.329   6.825  0.3317 -1.1865 -1.4392
 1590SOL     OW16747   4.589   7.934   3.190  0.3604 -0.3139  0.5792
 1590SOL    HW116748   4.560   7.855   3.143 -1.0743  1.6855 -2.2235
 1590SOL    HW216749   4.510   7.966   3.233  0.5971  0.2887  0.5661
 1591SOL     OW16750   3.054   6.640   0.835  0.4204 -0.8401  0.4115
 1591SOL    HW116751   3.125   6.698   0.811  0.2831 -0.6364  0.4931
 1591SOL    HW216752   2.975   6.692   0.822  0.0793 -1.8657 -2.1394
 1592SOL     OW16753   4.243   2.909   6.117  0.2233  0.2253  0.0021
 1592SOL    HW116754   4.163   2.945   6.156 -0.2446 -0.0361 -0.6921
 1592SOL    HW216755   4.311   2.926   6.182 -0.4215  0.3376  0.6630
 1593SOL     OW16756   3.873   9.234   8.895 -0.1182 -0.2882  0.0409
 1593SOL    HW116757   3.921   9.239   8.813 -1.7595 -0.7867 -1.0012
 1593SOL    HW216758   3.897   9.149   8.932  0.0454 -0.3989 -0.3157
 1594SOL     OW16759   5.682   3.944   8.950 -0.6809  0.1128 -0.5913
 1594SOL    HW116760   5.646   3.874   8.895  0.1472  0.5944 -1.7985
 1594SOL    HW216761   5.746   3.988   8.894  0.6440  0.2649  0.9565
 1595SOL     OW16762   2.705   1.836   3.381 -0.6022 -0.6720 -1.5020
 1595SOL    HW116763   2.715   1.789   3.299 -1.2789  0.4475 -2.2449
 1595SOL    HW216764   2.617   1.814   3.412  0.1828 -2.2974 -0.2608
 1596SOL     OW16765   1.423   1.376   6.634 -0.1146  0.1794  0.1708
 1596SOL    HW116766   1.395   1.424   6.712  1.2078  1.0421  0.1513
 1596SOL    HW216767   1.374   1.417   6.562 -0.8954 -0.2236  0.4633
 1597SOL     OW16768   8.610   3.102   5.574  0.3365  0.0642 -0.4745
 1597SOL    HW116769   8.594   3.057   5.657 -0.6573  0.4053 -0.4641
 1597SOL    HW216770   8.670   3.044   5.527  1.7880  0.3882  0.9012
 1598SOL     OW16771   7.361   1.382   0.556  0.2279  0.7422  0.2776
 1598SOL    HW116772   7.374   1.305   0.613 -2.2065  0.6890  0.8584
 1598SOL    HW216773   7.442   1.387   0.506  1.0801 -1.3127  1.2802
 1599SOL     OW16774   3.729   5.283   8.276 -0.0179  0.3086 -0.4191
 1599SOL    HW116775   3.760   5.317   8.360 -2.6270 -1.0711  1.2479
 1599SOL    HW216776   3.682   5.357   8.237  0.0547  0.5688 -0.0179
 1600SOL     OW16777   3.621   9.497   3.108  0.0178  0.2538 -0.6726
 1600SOL    HW116778   3.673   9.422   3.135 -0.3254  0.1654 -0.2439
 1600SOL    HW216779   3.603   9.483   3.015  2.1418  1.1003 -1.2788
 1601SOL     OW16780   8.304   1.941   9.046 -0.4216 -0.0087 -0.6151
 1601SOL    HW116781   8.267   1.905   9.127 -1.0075  1.3785 -0.2356
 1601SOL    HW216782   8.335   1.864   8.998 -2.6785 -1.1387 -0.3893
 1602SOL     OW16783   1.237   3.822   8.041  0.2596  0.1331  0.1707
 1602SOL    HW116784   1.208   3.762   8.110  0.5079  1.8166  1.8358
 1602SOL    HW216785   1.156   3.862   8.010  0.3474  1.6706  1.7725
 1603SOL     OW16786   8.213   4.546  10.208 -0.1254 -0.2650  0.2284
 1603SOL    HW116787   8.119   4.539  10.219 -0.3244  0.1180 -1.1049
 1603SOL    HW216788   8.230   4.517  10.118  0.9943 -0.1258  0.3726
 1604SOL     OW16789   9.161   1.300   7.040  0.0897 -0.4754 -0.3356
 1604SOL    HW116790   9.135   1.388   7.069  0.8319  0.2030 -1.6653
 1604SOL    HW216791   9.234   1.277   7.097 -0.1654 -0.2727  0.0812
 1605SOL     OW16792   9.956   6.880   5.139  0.2384  0.2172  0.1524
 1605SOL    HW116793   9.924   6.967   5.159  1.8181  1.3619 -1.9202
 1605SOL    HW216794   9.920   6.860   5.052  0.5570 -0.8630  0.2464
 1606SOL     OW16795   7.736   6.951   9.777  0.0868 -0.7958  0.2104
 1606SOL    HW116796   7.703   7.033   9.741  1.0117 -1.0735 -1.3935
 1606SOL    HW216797   7.830   6.965   9.789  0.7965 -2.3464 -2.5748
 1607SOL     OW16798   6.630   2.654   2.258  0.2152 -0.0162 -0.6717
 1607SOL    HW116799   6.597   2.685   2.342 -1.0022  3.0576 -2.1460
 1607SOL    HW216800   6.703   2.713   2.237 -0.8847  0.7015 -2.7082
 1608SOL     OW16801   3.079   2.903   3.907 -0.1564 -0.2529 -0.6762
 1608SOL    HW116802   3.027   2.834   3.866  1.4959 -1.5138 -0.7619
 1608SOL    HW216803   3.098   2.869   3.995 -1.7841  1.4346  0.3861
 1609SOL     OW16804   9.172   6.791   5.255  0.0282 -0.5047  0.5016
 1609SOL    HW116805   9.096   6.815   5.203  1.4418 -0.7170 -1.8116
 1609SOL    HW216806   9.247   6.824   5.205  1.5769 -2.3396  1.4689
 1610SOL     OW16807   9.106   1.361   2.220 -0.1666 -0.2731 -0.3259
 1610SOL    HW116808   9.028   1.411   2.193 -1.5017 -1.7308  0.6659
 1610SOL    HW216809   9.102   1.281   2.167  0.3470 -0.6115  0.1436
 1611SOL     OW16810   9.648   7.687   4.481  0.4533  1.0660 -0.3572
 1611SOL    HW116811   9.709   7.702   4.553  0.4839 -2.5737  0.5764
 1611SOL    HW216812   9.561   7.696   4.521  0.4497  0.9098 -0.3290
 1612SOL     OW16813   2.720   3.423   5.760 -0.2078  0.6079  0.4474
 1612SOL    HW116814   2.785   3.489   5.734  0.7407 -0.7761 -0.8771
 1612SOL    HW216815   2.754   3.387   5.842 -1.2234  2.3452  1.7057
 1613SOL     OW16816   4.912   2.986   1.940  0.7389 -0.0082 -0.1181
 1613SOL    HW116817   4.911   2.948   1.852  1.2896 -0.5246  0.0897
 1613SOL    HW216818   4.969   3.062   1.934 -0.4462  0.8847 -0.5611
 1614SOL     OW16819   0.538   7.412   8.179  0.0883  0.0725 -0.1966
 1614SOL    HW116820   0.488   7.466   8.118 -0.4333 -0.4764 -0.2620
 1614SOL    HW216821   0.543   7.464   8.259  0.8146  0.8167 -0.7135
 1615SOL     OW16822   4.082   3.429   4.386 -0.1523  0.2603  0.8027
 1615SOL    HW116823   4.167   3.417   4.343 -0.4892  1.2646 -0.2128
 1615SOL    HW216824   4.085   3.372   4.462  1.2937  0.0013  0.5832
 1616SOL     OW16825   7.597   7.929   7.664  0.7786 -0.2626  0.3698
 1616SOL    HW116826   7.642   7.871   7.725 -0.5038  0.5790  2.2150
 1616SOL    HW216827   7.518   7.881   7.640  0.8663 -0.2431  0.0444
 1617SOL     OW16828   2.470   5.194   2.130  0.1045 -0.1295  0.1027
 1617SOL    HW116829   2.403   5.130   2.154 -1.6178  2.2151  2.1247
 1617SOL    HW216830   2.545   5.173   2.186  0.5680 -1.8193 -1.0600
 1618SOL     OW16831   4.829   9.043   0.991  0.6385 -0.0589 -0.1207
 1618SOL    HW116832   4.754   8.994   1.025  1.4856 -3.3580 -2.5243
 1618SOL    HW216833   4.790   9.119   0.948 -1.0456 -0.1542  1.1277
 1619SOL     OW16834  10.237   1.408   2.911 -0.2979  0.2111  0.0864
 1619SOL    HW116835  10.270   1.319   2.903 -3.0618 -0.8585 -0.6431
 1619SOL    HW216836  10.152   1.406   2.867 -1.0578  2.8728  1.2317
 1620SOL     OW16837   5.142   5.113   2.566  0.5930  0.2260  0.2792
 1620SOL    HW116838   5.078   5.049   2.595  1.0628 -0.0285  0.7847
 1620SOL    HW216839   5.117   5.195   2.609  0.6994  0.0875  0.6091
 1621SOL     OW16840   5.530   2.807   5.912  0.7907  0.1060 -0.7844
 1621SOL    HW116841   5.519   2.763   5.996 -0.1191  0.4683 -0.6981
 1621SOL    HW216842   5.512   2.740   5.847 -0.2301  0.2247 -0.6566
 1622SOL     OW16843   5.840   7.282   2.272  0.3104 -0.1076  0.1838
 1622SOL    HW116844   5.751   7.318   2.270  0.8743  1.3964  0.6664
 1622SOL    HW216845   5.847   7.229   2.192 -1.7354 -2.1307  1.2476
 1623SOL     OW16846   0.344   3.369   0.468  0.5108  0.2051 -0.0781
 1623SOL    HW116847   0.397   3.406   0.538  0.0683 -1.7994  1.3920
 1623SOL    HW216848   0.254   3.394   0.491  0.4336  0.2039 -0.3739
 1624SOL     OW16849   3.475   6.629   9.178 -0.5229  0.3287 -0.8304
 1624SOL    HW116850   3.443   6.700   9.234  1.7438 -0.3295  1.5096
 1624SOL    HW216851   3.488   6.669   9.092 -0.6558  2.3807  0.0561
 1625SOL     OW16852   9.268   0.663   5.865 -0.1160 -0.1568 -0.2879
 1625SOL    HW116853   9.350   0.711   5.858  1.0854 -1.7913  1.7081
 1625SOL    HW216854   9.208   0.725   5.908  0.2887  0.7564 -1.0028
 1626SOL     OW16855   4.576   0.952   5.919  0.1948  0.3418 -0.1654
 1626SOL    HW116856   4.540   0.864   5.922 -0.0735  0.3814 -1.6542
 1626SOL    HW216857   4.593   0.969   5.827 -0.0304  1.9563  0.0493
 1627SOL     OW16858   2.049   0.363   0.015  0.2164 -0.1749  0.3383
 1627SOL    HW116859   1.988   0.350  -0.058  0.3252  0.5023  0.1135
 1627SOL    HW216860   2.081   0.276   0.036  0.6685 -0.3275 -0.8623
 1628SOL     OW16861   8.948   1.690   8.956  0.1703  0.1765  0.1855
 1628SOL    HW116862   8.985   1.778   8.949  1.2422 -0.3588 -1.3217
 1628SOL    HW216863   9.022   1.632   8.942  0.0190 -1.0802  3.5759
 1629SOL     OW16864   4.429   9.969   4.576  0.1996 -0.3259  0.5387
 1629SOL    HW116865   4.512   9.934   4.543  0.4230  0.5432  0.1396
 1629SOL    HW216866   4.455  10.043   4.632 -0.2782 -0.4603  0.9491
 1630SOL     OW16867   3.000   6.026   9.962  0.1935 -0.2215 -0.4908
 1630SOL    HW116868   3.011   6.100   9.903  0.3577 -0.0113 -0.2018
 1630SOL    HW216869   3.055   5.957   9.926 -0.1198 -0.2741 -0.8769
 1631SOL     OW16870   9.300   5.253   7.457 -0.5694  0.3570 -0.0395
 1631SOL    HW116871   9.286   5.273   7.549  1.3470 -0.5312  0.4974
 1631SOL    HW216872   9.315   5.158   7.455 -0.7457  0.3349 -1.2936
 1632SOL     OW16873   0.874   7.913   6.612  0.0497 -0.3354 -0.5992
 1632SOL    HW116874   0.969   7.899   6.615  0.1699  0.2086 -1.3820
 1632SOL    HW216875   0.864   7.996   6.565 -0.6640  1.5320  2.5610
 1633SOL     OW16876  10.239   9.662   8.005 -0.4566 -0.0446 -0.4327
 1633SOL    HW116877  10.228   9.700   8.092  2.3170  1.7740 -0.7431
 1633SOL    HW216878  10.267   9.735   7.950  1.2954 -1.7917 -2.0397
 1634SOL     OW16879   7.063   9.087   2.919 -0.0005  0.1542  0.5910
 1634SOL    HW116880   6.984   9.036   2.935 -0.6732  0.8293 -0.4284
 1634SOL    HW216881   7.089   9.063   2.830 -0.4365  1.6907  0.0186
 1635SOL     OW16882   0.236   9.539   9.843  0.2917 -0.4476 -0.4718
 1635SOL    HW116883   0.298   9.493   9.786  1.1136 -0.3594  0.3293
 1635SOL    HW216884   0.273   9.530   9.931 -0.8004 -0.3236  0.0122
 1636SOL     OW16885   8.861   1.560   7.904 -0.2711 -0.3517 -0.4845
 1636SOL    HW116886   8.884   1.650   7.879  0.6017 -0.7913 -1.3334
 1636SOL    HW216887   8.770   1.566   7.934 -0.3296  0.7530 -0.8259
 1637SOL     OW16888   2.237   6.075   9.778 -0.0470  0.4655 -0.0253
 1637SOL    HW116889   2.247   6.008   9.845  0.8619 -1.5025 -1.9717
 1637SOL    HW216890   2.145   6.102   9.783 -0.2500 -0.4134  1.2668
 1638SOL     OW16891  10.081   9.309   2.388 -0.1356  0.0310  0.1940
 1638SOL    HW116892  10.119   9.258   2.460 -0.1148 -0.2550 -0.0162
 1638SOL    HW216893  10.071   9.397   2.423  1.1077  0.2110  0.1101
 1639SOL     OW16894  10.031   5.134   3.224 -0.0808 -0.6807 -0.4326
 1639SOL    HW116895  10.032   5.229   3.239  1.0498 -0.7965  0.3250
 1639SOL    HW216896  10.018   5.096   3.310  0.0907 -1.2288 -0.6447
 1640SOL     OW16897   1.320   9.683   5.948  0.2231  0.1688 -0.5561
 1640SOL    HW116898   1.369   9.659   5.869  1.3657  1.8904 -0.4138
 1640SOL    HW216899   1.378   9.658   6.020  0.1468  0.6608 -0.3237
 1641SOL     OW16900   2.469   5.339   7.773 -0.6191 -0.2841  0.0114
 1641SOL    HW116901   2.495   5.431   7.764 -0.8119 -0.3767 -1.8979
 1641SOL    HW216902   2.522   5.306   7.845 -0.2392  1.2087  0.4565
 1642SOL     OW16903   4.290  10.171   8.059 -0.3221 -0.2054 -0.0075
 1642SOL    HW116904   4.284  10.213   8.145 -1.6503  0.1040 -0.2326
 1642SOL    HW216905   4.359  10.219   8.013  0.0413 -0.0403  0.6954
 1643SOL     OW16906   3.186   0.027   4.990 -0.4106  0.4193  0.1638
 1643SOL    HW116907   3.272   0.064   5.010  0.0942 -0.1158 -0.9776
 1643SOL    HW216908   3.125   0.098   5.008  0.2424  0.7705  1.0995
 1644SOL     OW16909   8.879   0.744   2.615  0.3491 -0.4323 -0.2830
 1644SOL    HW116910   8.869   0.751   2.710 -0.2082  0.1878 -0.3749
 1644SOL    HW216911   8.909   0.831   2.588 -0.3462 -0.3262 -0.7589
 1645SOL     OW16912   8.860   1.797   9.326 -0.2196  0.1956 -0.0854
 1645SOL    HW116913   8.919   1.831   9.394 -0.5972  0.0688  0.3100
 1645SOL    HW216914   8.840   1.708   9.355 -0.4503  0.1719 -0.3218
 1646SOL     OW16915   4.729   4.320   4.803 -0.1984 -0.3633  0.3577
 1646SOL    HW116916   4.778   4.338   4.723  2.7285  0.7501  2.2533
 1646SOL    HW216917   4.790   4.274   4.860 -1.6589  0.1783  2.5066
 1647SOL     OW16918   3.569   8.873   8.630  0.1653 -0.2084 -0.0287
 1647SOL    HW116919   3.565   8.934   8.556  0.1789 -1.0790 -0.7661
 1647SOL    HW216920   3.550   8.788   8.591 -1.2149 -0.5041  1.2105
 1648SOL     OW16921   8.883   0.187   5.352 -0.3428  0.1705  0.1949
 1648SOL    HW116922   8.855   0.205   5.262 -0.4768 -1.4857 -0.1262
 1648SOL    HW216923   8.805   0.154   5.396 -0.0112 -0.1211  0.5780
 1649SOL     OW16924   9.113   9.831   5.248  0.0304  0.1915 -0.2257
 1649SOL    HW116925   9.190   9.874   5.210  0.0615  0.3412 -0.0025
 1649SOL    HW216926   9.088   9.765   5.185  0.6102 -0.1548 -0.1006
 1650SOL     OW16927   9.727   3.276   9.147 -0.1908  0.3513 -0.3707
 1650SOL    HW116928   9.785   3.251   9.219  0.8481  0.0836 -1.2697
 1650SOL    HW216929   9.689   3.359   9.175  0.8041  0.6525  0.1593
 1651SOL     OW16930   7.215   9.346   1.484  0.5364  0.1428  0.1214
 1651SOL    HW116931   7.286   9.331   1.547 -1.2772 -0.6766  2.1023
 1651SOL    HW216932   7.145   9.385   1.536 -0.8450 -0.0218 -1.5408
 1652SOL     OW16933   2.866   2.515  10.125 -0.1934 -0.2219  0.3811
 1652SOL    HW116934   2.934   2.580  10.104  1.3078 -1.4445  1.2517
 1652SOL    HW216935   2.808   2.516  10.049  1.3890  0.1475 -0.8776
 1653SOL     OW16936   9.916   9.901   8.635 -0.4470  0.3699  0.5336
 1653SOL    HW116937   9.999   9.913   8.590 -0.2207 -0.7211  0.6356
 1653SOL    HW216938   9.859   9.858   8.571  0.1709 -2.0620  1.5173
 1654SOL     OW16939   1.493   3.765   5.583  0.8479  0.1991  0.0599
 1654SOL    HW116940   1.456   3.731   5.502  0.6885  1.2530 -0.3226
 1654SOL    HW216941   1.465   3.703   5.650 -1.2560  0.7180 -0.2806
 1655SOL     OW16942   6.496   3.546   2.876  0.5461 -0.2436  0.4392
 1655SOL    HW116943   6.449   3.471   2.840 -0.4881 -1.0680  3.2752
 1655SOL    HW216944   6.489   3.613   2.808 -1.8174 -1.4666 -0.6419
 1656SOL     OW16945   7.057   6.887   3.604  0.2297 -0.0647 -0.0815
 1656SOL    HW116946   7.105   6.858   3.682 -1.3959  1.3674  1.5641
 1656SOL    HW216947   7.074   6.981   3.599  0.1229 -0.1031 -1.3226
 1657SOL     OW16948   5.763   6.081   9.515 -0.1674 -0.4275  0.4601
 1657SOL    HW116949   5.849   6.093   9.556 -0.4274 -0.7593  1.1181
 1657SOL    HW216950   5.713   6.029   9.578 -0.6649 -0.7349 -0.1707
 1658SOL     OW16951   9.721   9.568   3.738 -0.0702 -0.1956 -0.4674
 1658SOL    HW116952   9.741   9.621   3.661  2.2285 -1.7471 -1.0656
 1658SOL    HW216953   9.644   9.609   3.777 -1.3811  0.6046 -3.6088
 1659SOL     OW16954   2.530   1.055   1.324  0.4585  0.4476 -0.1022
 1659SOL    HW116955   2.443   1.086   1.350  0.8176  0.2962  1.4204
 1659SOL    HW216956   2.577   1.134   1.298  0.3061  0.7266  0.4582
 1660SOL     OW16957   2.379   8.814   4.849 -0.0185 -0.5166  0.2559
 1660SOL    HW116958   2.414   8.821   4.760 -0.9111 -1.2707 -0.1686
 1660SOL    HW216959   2.456   8.798   4.904  0.3912 -1.4597 -0.5695
 1661SOL     OW16960   8.552   4.546   8.732 -0.1291  0.5663 -0.2946
 1661SOL    HW116961   8.471   4.496   8.727 -0.9244  1.8112 -0.2555
 1661SOL    HW216962   8.613   4.498   8.677 -0.7101 -0.7116  0.1409
 1662SOL     OW16963   8.945   9.379   0.985  0.0337 -0.6602  0.3389
 1662SOL    HW116964   8.918   9.353   1.073  1.7394 -0.4318  0.9714
 1662SOL    HW216965   9.040   9.389   0.991  0.6679 -3.5401 -2.2781
 1663SOL     OW16966   0.226   0.873   0.911  0.3341  0.1320 -0.4482
 1663SOL    HW116967   0.212   0.811   0.839  0.3503 -0.0608 -0.2855
 1663SOL    HW216968   0.299   0.837   0.961 -0.6813 -0.5980  0.5860
 1664SOL     OW16969   9.179   5.991   4.253  0.1355  0.2768 -0.3931
 1664SOL    HW116970   9.117   5.998   4.326 -0.6430 -0.9951 -0.8977
 1664SOL    HW216971   9.153   5.911   4.207  1.4465  0.3390 -1.2945
 1665SOL     OW16972   4.111   3.736   9.057 -0.2338  0.2068 -0.3626
 1665SOL    HW116973   4.059   3.666   9.097  0.9339 -1.5661 -1.8092
 1665SOL    HW216974   4.106   3.720   8.963  1.3548  1.1352 -0.6481
 1666SOL     OW16975   1.481   1.748   8.957 -0.2388  0.1582  0.5222
 1666SOL    HW116976   1.390   1.753   8.985 -0.6098 -0.6801 -0.4876
 1666SOL    HW216977   1.480   1.690   8.882  1.0563  0.5876  0.1458
 1667SOL     OW16978   1.893  10.246   5.965 -0.0512 -0.9939  0.8909
 1667SOL    HW116979   1.938  10.325   5.997 -0.0988 -1.5088  2.3000
 1667SOL    HW216980   1.800  10.264   5.979  0.0277 -2.0375  3.0985
 1668SOL     OW16981   2.831   3.136   4.323 -0.5601 -0.2152  0.1529
 1668SOL    HW116982   2.854   3.146   4.415 -0.8445 -0.8050  0.2880
 1668SOL    HW216983   2.744   3.097   4.324 -1.2022  1.1357 -0.3626
 1669SOL     OW16984   7.432   1.102   2.438  0.6068  0.5088  0.0737
 1669SOL    HW116985   7.478   1.038   2.383  0.5925 -1.0289  1.7694
 1669SOL    HW216986   7.341   1.073   2.435  0.4174  1.1177 -0.0248
 1670SOL     OW16987   2.315   8.869   3.964 -0.1354  0.0486  0.0253
 1670SOL    HW116988   2.275   8.796   3.917  1.9630  0.0906 -2.0023
 1670SOL    HW216989   2.255   8.942   3.951 -1.3042 -0.8118  0.4245
 1671SOL     OW16990   5.294   7.902   8.436 -0.4404  0.4242 -0.1335
 1671SOL    HW116991   5.334   7.956   8.504 -0.2064  1.6069 -1.1760
 1671SOL    HW216992   5.287   7.960   8.360  0.5097 -1.2158 -1.5382
 1672SOL     OW16993   5.938   6.782   6.097  0.3677 -0.0988  0.4989
 1672SOL    HW116994   5.918   6.827   6.180  0.2978 -0.1966  0.5350
 1672SOL    HW216995   5.998   6.712   6.121  1.6229  0.8452  0.2440
 1673SOL     OW16996   6.640   4.910   6.364  0.6862 -0.0284 -0.2883
 1673SOL    HW116997   6.732   4.889   6.350  0.5487 -0.4756 -0.5571
 1673SOL    HW216998   6.595   4.874   6.287  0.4406  1.3519 -0.8274
 1674SOL     OW16999   1.530   3.814   3.664 -0.2922  0.0908 -0.1564
 1674SOL    HW117000   1.517   3.816   3.569  1.7315  1.1602 -0.4781
 1674SOL    HW217001   1.491   3.896   3.695  1.0305  0.8647 -0.4314
 1675SOL     OW17002   4.504   4.941   2.873 -0.2074 -0.2581  0.0441
 1675SOL    HW117003   4.573   4.875   2.879 -0.8563 -0.8240  1.8252
 1675SOL    HW217004   4.426   4.892   2.846 -0.2680  0.1147 -0.4732
 1676SOL     OW17005   7.313   2.988   3.477 -0.5208  0.0655  0.1156
 1676SOL    HW117006   7.252   3.052   3.514 -1.0084  0.8645 -1.9594
 1676SOL    HW217007   7.258   2.914   3.453  0.0781 -1.3531  2.7595
 1677SOL     OW17008   7.271   0.739   3.588 -0.1607 -0.2265  0.0661
 1677SOL    HW117009   7.225   0.761   3.508 -0.6650  0.3899  0.5142
 1677SOL    HW217010   7.312   0.822   3.616 -2.0258  0.1982  1.7478
 1678SOL     OW17011   7.177   1.174   4.695  0.5450 -0.8147 -0.3361
 1678SOL    HW117012   7.130   1.114   4.752 -0.5129  1.4456  1.3489
 1678SOL    HW217013   7.247   1.210   4.750 -0.7945  1.7785 -0.1768
 1679SOL     OW17014   3.541   1.508   7.956  0.1732  0.3932  0.2187
 1679SOL    HW117015   3.515   1.427   7.912  1.5507 -0.4641  0.9502
 1679SOL    HW217016   3.484   1.575   7.917 -1.7790 -1.0723  0.3850
 1680SOL     OW17017   9.756   1.703   6.054 -0.1606  0.6661  0.3094
 1680SOL    HW117018   9.759   1.693   6.149 -0.1917 -0.4241  0.2171
 1680SOL    HW217019   9.844   1.729   6.029  0.7647 -2.0123  0.3890
 1681SOL     OW17020   2.894   9.505   3.849 -0.2791 -0.5785  0.0207
 1681SOL    HW117021   2.830   9.530   3.916 -0.2184 -2.2704  0.7632
 1681SOL    HW217022   2.970   9.475   3.899  0.4367 -0.2594 -0.8426
 1682SOL     OW17023   1.162   5.518   9.673  0.0810  0.1420 -0.1291
 1682SOL    HW117024   1.080   5.567   9.665  0.0420  0.0299 -0.4398
 1682SOL    HW217025   1.223   5.566   9.617  0.4338  0.6529  0.6792
 1683SOL     OW17026   0.620   7.398   9.104 -0.5564 -0.0574 -0.3345
 1683SOL    HW117027   0.577   7.443   9.177 -0.4778 -0.0336 -0.3033
 1683SOL    HW217028   0.552   7.393   9.037 -1.2061 -1.7232  0.4083
 1684SOL     OW17029   6.717   8.228   5.755 -0.3453  0.5561  0.4099
 1684SOL    HW117030   6.756   8.283   5.823  1.3282  0.2740 -0.2532
 1684SOL    HW217031   6.660   8.167   5.803  1.4606 -0.2264  1.7120
 1685SOL     OW17032   3.740   8.226   5.404 -0.4439 -0.2753 -0.3952
 1685SOL    HW117033   3.790   8.292   5.356  0.3639 -0.6153 -0.0413
 1685SOL    HW217034   3.706   8.168   5.337  1.8017 -1.5385 -0.5434
 1686SOL     OW17035   0.622   1.395   3.536  0.2391 -0.5961 -0.2429
 1686SOL    HW117036   0.548   1.365   3.483  0.3169 -0.1427 -0.6227
 1686SOL    HW217037   0.592   1.477   3.575  0.2373 -0.8552  0.2959
 1687SOL     OW17038   3.692   0.030   4.368 -0.3011 -0.0130  0.2577
 1687SOL    HW117039   3.671   0.122   4.351 -0.5677  0.3395  2.2779
 1687SOL    HW217040   3.771   0.032   4.422  0.7701 -1.0805 -1.1806
 1688SOL     OW17041  10.232   6.465   4.243 -0.4924 -0.2884  0.0472
 1688SOL    HW117042  10.277   6.540   4.204 -0.6326 -0.7229 -0.9891
 1688SOL    HW217043  10.269   6.458   4.331 -0.8275  1.2723  0.3265
 1689SOL     OW17044   4.842   6.116   8.408 -0.0272 -0.4578 -0.3464
 1689SOL    HW117045   4.882   6.176   8.471 -0.0106 -1.4121  0.5739
 1689SOL    HW217046   4.878   6.030   8.429  1.1355 -0.6134 -2.6235
 1690SOL     OW17047   0.179   4.266   2.995 -0.1900 -0.2796 -0.1774
 1690SOL    HW117048   0.206   4.267   3.087 -0.1457  0.4223 -0.1946
 1690SOL    HW217049   0.260   4.278   2.946 -0.5816  3.2426 -0.2001
 1691SOL     OW17050   4.815   1.686   7.796  0.1901 -0.0446 -0.1193
 1691SOL    HW117051   4.734   1.667   7.747 -0.3406  0.7675  0.4232
 1691SOL    HW217052   4.795   1.659   7.886 -0.0603  1.6291  0.3582
 1692SOL     OW17053   9.623   2.886  10.228 -0.1234  0.2379  0.0789
 1692SOL    HW117054   9.623   2.834  10.148 -0.3558 -0.1134  0.3060
 1692SOL    HW217055   9.540   2.934  10.226  0.0140  0.4696 -0.0479
 1693SOL     OW17056   4.742   5.643   6.994 -0.0086  0.0196  0.1108
 1693SOL    HW117057   4.822   5.690   6.969 -1.8369  2.4928 -1.5971
 1693SOL    HW217058   4.714   5.599   6.914 -2.1176  2.0694 -0.3848
 1694SOL     OW17059   6.139   8.619   5.232 -0.7738  0.3025 -0.4231
 1694SOL    HW117060   6.213   8.671   5.262  0.5818 -1.4813 -0.4575
 1694SOL    HW217061   6.120   8.652   5.145 -0.4601  1.2143 -0.1593
 1695SOL     OW17062   6.608   8.236   3.690 -0.3193  0.1322 -0.5867
 1695SOL    HW117063   6.544   8.244   3.619 -2.0985  1.0110  1.0120
 1695SOL    HW217064   6.592   8.313   3.745 -0.7742 -1.7102  2.0962
 1696SOL     OW17065   8.404   3.956   2.439  0.2451 -0.1659  0.0459
 1696SOL    HW117066   8.498   3.949   2.422  0.2109 -0.1154 -0.1717
 1696SOL    HW217067   8.379   4.041   2.401  0.1238 -0.1496  0.1597
 1697SOL     OW17068   5.622  10.386   6.883  0.0957 -0.2868  0.3940
 1697SOL    HW117069   5.530  10.408   6.866  0.2555  0.9987  1.0280
 1697SOL    HW217070   5.643  10.319   6.819 -0.8873  0.4306 -0.7297
 1698SOL     OW17071   1.357   0.818   4.095  0.1568  0.6066  0.2060
 1698SOL    HW117072   1.418   0.861   4.035  2.5664 -2.1279  0.4694
 1698SOL    HW217073   1.413   0.782   4.164 -1.3457 -3.6589 -0.4724
 1699SOL     OW17074   0.201   9.194   9.589 -0.8936  0.5365 -0.7554
 1699SOL    HW117075   0.144   9.269   9.575 -0.8613  1.0110  1.3430
 1699SOL    HW217076   0.153   9.139   9.652  0.2278  0.1263 -0.2352
 1700SOL     OW17077   6.768   8.410   9.065 -0.2461  0.0921 -0.1804
 1700SOL    HW117078   6.687   8.426   9.114  0.5458  0.9122  0.9030
 1700SOL    HW217079   6.760   8.465   8.987 -0.5983  0.4229  0.0844
 1701SOL     OW17080   2.272   6.619   1.215  0.6432  0.2895  0.4404
 1701SOL    HW117081   2.205   6.680   1.246 -1.3340 -0.1011 -2.7518
 1701SOL    HW217082   2.307   6.580   1.296 -1.5695  1.9113  2.3238
 1702SOL     OW17083   5.286   3.936   5.228 -0.0445 -0.3217 -0.4205
 1702SOL    HW117084   5.219   3.889   5.277  1.3642 -0.8745  1.0421
 1702SOL    HW217085   5.273   4.028   5.251 -1.8405 -0.0844 -2.1107
 1703SOL     OW17086   2.183   6.529   0.473  0.3704  0.2610 -0.4060
 1703SOL    HW117087   2.190   6.592   0.545  1.7296  0.7209 -0.8976
 1703SOL    HW217088   2.091   6.533   0.446 -0.7763 -1.6525  2.7594
 1704SOL     OW17089   3.211   4.243   2.525 -0.5796  0.5604  0.0824
 1704SOL    HW117090   3.251   4.307   2.466 -0.9287  0.7924  0.0964
 1704SOL    HW217091   3.216   4.160   2.478  0.7051  0.4106  0.4279
 1705SOL     OW17092   8.400   2.297   4.509 -0.6153 -0.2079  0.3921
 1705SOL    HW117093   8.444   2.212   4.520  0.2746  0.3946  1.7153
 1705SOL    HW217094   8.328   2.295   4.571 -0.5861  0.0127  0.4339
 1706SOL     OW17095   1.955   8.486   1.759 -0.4050 -0.5166  0.4619
 1706SOL    HW117096   2.004   8.534   1.692 -1.5851  0.5922  0.3548
 1706SOL    HW217097   1.897   8.552   1.798 -1.3770 -1.6476  0.9816
 1707SOL     OW17098   1.537   6.824   2.024 -0.1988 -0.5415 -0.0550
 1707SOL    HW117099   1.446   6.795   2.016 -0.5558 -0.5400  2.9889
 1707SOL    HW217100   1.549   6.841   2.117  3.3014 -1.6776 -0.1639
 1708SOL     OW17101   2.228   6.106   4.253  0.6227 -0.5152  0.8567
 1708SOL    HW117102   2.203   6.196   4.275  0.4977 -0.0340 -1.0736
 1708SOL    HW217103   2.215   6.101   4.158  1.7928 -2.2078  0.7631
 1709SOL     OW17104   4.099   2.031   7.041 -0.8746 -0.6359 -0.1840
 1709SOL    HW117105   4.101   2.120   7.004  2.0781 -0.3341  0.4587
 1709SOL    HW217106   4.096   1.974   6.964  0.0781  0.0225 -0.7375
 1710SOL     OW17107   6.880   1.086   8.787  0.1940 -0.4236 -0.6775
 1710SOL    HW117108   6.946   1.060   8.851  1.6561  1.1474 -1.4835
 1710SOL    HW217109   6.821   1.010   8.782  0.4445 -0.8895  1.9159
 1711SOL     OW17110   0.281   2.622   5.004 -0.1032 -0.1657 -0.3999
 1711SOL    HW117111   0.228   2.687   5.049 -0.7489 -1.1070  0.2251
 1711SOL    HW217112   0.367   2.627   5.047 -0.6119 -0.8107  0.7306
 1712SOL     OW17113  10.362   7.630   6.302  0.5448 -0.0892 -0.3520
 1712SOL    HW117114  10.287   7.613   6.360 -0.9960  1.3071 -1.8289
 1712SOL    HW217115  10.353   7.566   6.232  1.5528 -0.8080  0.1587
 1713SOL     OW17116   2.768   1.052   9.647  0.3953  0.0047 -0.1442
 1713SOL    HW117117   2.761   1.067   9.741  1.3225  2.0327 -0.3549
 1713SOL    HW217118   2.854   1.011   9.636  0.3380 -0.1224 -0.1182
 1714SOL     OW17119   7.187   8.640   2.290 -0.0245  0.1213  0.0517
 1714SOL    HW117120   7.195   8.567   2.229  0.1396  1.6639 -1.8768
 1714SOL    HW217121   7.278   8.661   2.314 -0.0543 -0.1330  0.3872
 1715SOL     OW17122   5.007   8.183   7.357  0.2867 -0.1084  0.2377
 1715SOL    HW117123   5.085   8.138   7.325 -0.6546  0.6294 -3.5808
 1715SOL    HW217124   4.938   8.160   7.294 -1.6740  2.1065  1.4137
 1716SOL     OW17125   3.359   7.718   2.629 -0.3488  0.5453  0.7767
 1716SOL    HW117126   3.433   7.692   2.575 -1.0715  0.2694 -0.1125
 1716SOL    HW217127   3.395   7.783   2.689  0.3375  1.4129 -0.5245
 1717SOL     OW17128   1.382   7.600   8.110 -0.0982  0.3754 -0.1629
 1717SOL    HW117129   1.293   7.595   8.146 -0.0201  1.2060  0.1757
 1717SOL    HW217130   1.404   7.510   8.088 -0.1458 -0.1737  1.8511
 1718SOL     OW17131   6.467   1.147  10.228 -0.1365  0.2617 -0.0079
 1718SOL    HW117132   6.551   1.168  10.186 -0.4653  0.7506 -0.4313
 1718SOL    HW217133   6.480   1.169  10.320  0.2020  0.3272 -0.0707
 1719SOL     OW17134   1.979   2.447   8.208  0.1537  0.3542  0.3560
 1719SOL    HW117135   2.000   2.470   8.299 -1.6951  2.2032  0.3731
 1719SOL    HW217136   2.053   2.393   8.180  0.5270 -0.7274  3.1022
 1720SOL     OW17137   5.271   2.122   5.309  0.1919 -0.4554  0.1179
 1720SOL    HW117138   5.334   2.078   5.366  1.6637 -0.4595 -1.4387
 1720SOL    HW217139   5.203   2.057   5.292  1.9849 -1.9523 -1.6012
 1721SOL     OW17140   3.811   5.098   7.230  0.0320  0.2054 -0.0239
 1721SOL    HW117141   3.872   5.093   7.156  0.2363  0.1097  0.1500
 1721SOL    HW217142   3.867   5.101   7.307 -0.1510  1.3897  0.0754
 1722SOL     OW17143   5.896   7.480   6.807 -0.5791  0.0073  0.7748
 1722SOL    HW117144   5.905   7.489   6.902  1.3286  1.1113  0.5371
 1722SOL    HW217145   5.986   7.481   6.774 -1.0358 -2.8695 -0.8872
 1723SOL     OW17146   6.852   6.134   9.853 -0.1682  0.1055 -0.4979
 1723SOL    HW117147   6.920   6.200   9.861 -1.5909  1.7298 -1.2084
 1723SOL    HW217148   6.788   6.157   9.920 -1.5937  0.6540 -1.9671
 1724SOL     OW17149   1.027   5.422   1.208 -0.0520 -0.0503 -0.0565
 1724SOL    HW117150   1.080   5.472   1.146 -2.7985  0.1812 -2.4242
 1724SOL    HW217151   1.006   5.341   1.162 -2.4172  0.2463  0.3551
 1725SOL     OW17152   2.642   3.368   4.256  0.1467 -0.2026 -0.8159
 1725SOL    HW117153   2.621   3.280   4.289  0.3809 -0.0453 -0.2253
 1725SOL    HW217154   2.582   3.426   4.303 -0.6898 -0.1293 -1.9290
 1726SOL     OW17155   1.595   2.028   3.892 -0.0775 -0.2434 -0.4883
 1726SOL    HW117156   1.501   2.022   3.903 -0.0315 -1.6846 -0.6117
 1726SOL    HW217157   1.621   2.107   3.938 -1.2946 -0.0514 -0.1249
 1727SOL     OW17158   5.365   4.329  10.342 -0.0494 -0.4741  0.4895
 1727SOL    HW117159   5.414   4.402  10.305 -0.6382  0.5920  1.7138
 1727SOL    HW217160   5.425   4.290  10.406  0.7673 -1.9714 -1.1110
 1728SOL     OW17161   0.599   9.376   4.200  0.6379 -0.3881 -0.1457
 1728SOL    HW117162   0.600   9.296   4.253 -0.4053 -0.3469 -0.0529
 1728SOL    HW217163   0.649   9.353   4.122 -0.5329 -1.4860 -0.6124
 1729SOL     OW17164   9.553   0.079   6.499 -0.5798 -0.0336 -0.4439
 1729SOL    HW117165   9.517   0.077   6.411 -0.7269  2.0493 -0.4932
 1729SOL    HW217166   9.494   0.137   6.548 -0.2408 -0.7668  0.9027
 1730SOL     OW17167   1.345   0.526   6.046  0.0647  0.1782 -0.3350
 1730SOL    HW117168   1.305   0.498   5.964  1.6576 -2.1112 -0.4554
 1730SOL    HW217169   1.275   0.519   6.111 -0.9551  1.0292 -1.3114
 1731SOL     OW17170   9.374   3.369   4.082  0.1140 -0.3588 -0.2046
 1731SOL    HW117171   9.451   3.380   4.026 -0.5010 -1.7752 -1.3863
 1731SOL    HW217172   9.321   3.448   4.065  1.5209  0.9381  1.0917
 1732SOL     OW17173   5.260   0.466   5.301 -0.7478 -0.4452  0.3614
 1732SOL    HW117174   5.310   0.386   5.316  0.8543  0.7681  1.8317
 1732SOL    HW217175   5.253   0.507   5.388 -0.8678  1.3904 -0.4641
 1733SOL     OW17176   7.504   3.052   6.316  0.1945 -0.2928  0.3975
 1733SOL    HW117177   7.505   3.011   6.403  2.5683  1.3855  1.2756
 1733SOL    HW217178   7.431   3.010   6.270  0.2542 -2.8326  2.4126
 1734SOL     OW17179   0.738   6.772  10.233  0.5494 -0.1312 -0.2516
 1734SOL    HW117180   0.711   6.795  10.322  0.5393  2.3059 -0.8168
 1734SOL    HW217181   0.658   6.776  10.181  0.9631  1.0406 -0.8250
 1735SOL     OW17182   2.043   6.557   5.808  0.0859  0.3205  0.3356
 1735SOL    HW117183   2.116   6.614   5.783  0.8281 -0.3110  1.0443
 1735SOL    HW217184   2.048   6.552   5.903 -1.7580  1.4173  0.5339
 1736SOL     OW17185   1.354   4.278  10.329  0.7534  0.1841  0.3792
 1736SOL    HW117186   1.424   4.220  10.359 -0.1641  0.1161  2.5208
 1736SOL    HW217187   1.312   4.229  10.258  1.7167 -0.5668  0.3106
 1737SOL     OW17188   6.810   9.219   6.137  0.1150  0.0617 -0.3129
 1737SOL    HW117189   6.800   9.279   6.064  1.8188  1.2053  0.3456
 1737SOL    HW217190   6.886   9.251   6.186  0.1505 -1.7295  0.9383
 1738SOL     OW17191   7.596   7.648   0.529  0.3602  0.3462  0.4664
 1738SOL    HW117192   7.691   7.656   0.518  0.4273  1.2720  1.5046
 1738SOL    HW217193   7.583   7.643   0.624 -0.6755  1.2166  0.3946
 1739SOL     OW17194   1.135   5.498   5.610  0.0691  0.2794  0.2807
 1739SOL    HW117195   1.189   5.431   5.651 -0.2838  0.0174  0.3261
 1739SOL    HW217196   1.049   5.457   5.601  0.1499  0.3085 -0.7646
 1740SOL     OW17197   5.793   9.096   3.145 -0.2218 -0.0080  0.0147
 1740SOL    HW117198   5.854   9.168   3.164  0.1763  0.2602 -2.1252
 1740SOL    HW217199   5.721   9.110   3.207 -0.0865  2.1489 -0.2414
 1741SOL     OW17200   9.944   8.959   8.118  0.1515  0.0833  0.0611
 1741SOL    HW117201   9.959   8.869   8.148 -1.2098 -0.5245 -0.9728
 1741SOL    HW217202  10.017   9.009   8.155  1.4090 -1.5873 -0.0205
 1742SOL     OW17203   5.015   9.794   3.609 -0.3103 -0.1046  0.2443
 1742SOL    HW117204   4.985   9.876   3.570  3.0190  0.5949 -1.2229
 1742SOL    HW217205   5.056   9.820   3.692 -2.4417 -0.8823  1.6435
 1743SOL     OW17206   8.370   1.195   7.918 -0.3131  0.2143  0.0793
 1743SOL    HW117207   8.335   1.255   7.852 -0.4112  0.8099  0.6623
 1743SOL    HW217208   8.294   1.149   7.952 -0.0748 -1.4739 -1.5279
 1744SOL     OW17209  10.030   8.973   7.833  0.2154  0.6916 -0.0482
 1744SOL    HW117210  10.052   8.978   7.926 -0.1665 -0.8043  0.1359
 1744SOL    HW217211   9.935   8.960   7.832  0.3717 -0.4341 -0.6114
 1745SOL     OW17212   5.952   4.629   2.346 -0.4122  0.0625  0.4522
 1745SOL    HW117213   5.916   4.598   2.429  0.2932  0.4016  0.8986
 1745SOL    HW217214   5.971   4.722   2.362  0.3156 -0.0231  0.1158
 1746SOL     OW17215   4.249   7.540   7.042  0.7922 -0.3086  0.1940
 1746SOL    HW117216   4.288   7.612   6.992  0.0974  0.8848  1.3029
 1746SOL    HW217217   4.164   7.574   7.070  0.4047 -1.6122  0.6673
 1747SOL     OW17218   7.965   9.695   1.378 -0.4001 -0.1686 -0.1635
 1747SOL    HW117219   7.979   9.788   1.397  1.4349 -0.0629 -1.7178
 1747SOL    HW217220   7.932   9.658   1.460  0.8418  1.4609  1.1358
 1748SOL     OW17221   5.292   8.981   8.666  0.5160  0.5028 -0.3566
 1748SOL    HW117222   5.278   8.978   8.572 -0.0075 -0.0540 -0.2698
 1748SOL    HW217223   5.268   8.893   8.697 -4.2430  1.9250  0.9223
 1749SOL     OW17224   7.594   4.906   7.596  0.2612  0.2555  0.1653
 1749SOL    HW117225   7.604   4.849   7.519 -0.1229  0.3671  0.0283
 1749SOL    HW217226   7.631   4.856   7.668  0.6809  0.1743 -0.1041
 1750SOL     OW17227   9.789   3.549   8.008 -0.2111 -0.1124  0.2788
 1750SOL    HW117228   9.721   3.567   7.943  0.1699  1.1789  0.2258
 1750SOL    HW217229   9.770   3.459   8.037 -1.1488 -0.2461 -0.6729
 1751SOL     OW17230   7.564   8.029   9.155  0.2097  0.4058  0.4001
 1751SOL    HW117231   7.556   8.112   9.107 -0.4719 -0.4007 -0.9594
 1751SOL    HW217232   7.567   7.963   9.086 -0.2953 -0.7746  1.4895
 1752SOL     OW17233   6.167   5.664  10.092  0.5427 -0.1902 -0.2558
 1752SOL    HW117234   6.246   5.661  10.038 -0.3571  0.9672 -1.7027
 1752SOL    HW217235   6.150   5.757  10.105  0.1761 -0.4412  1.2445
 1753SOL     OW17236   6.414   3.500   1.870  0.4191 -0.2263  0.0852
 1753SOL    HW117237   6.391   3.581   1.913  0.4157 -0.4101  0.4305
 1753SOL    HW217238   6.342   3.440   1.891  0.4994 -0.3661 -0.0362
 1754SOL     OW17239   9.135   4.817   3.713  0.4401  0.4930 -0.3279
 1754SOL    HW117240   9.062   4.868   3.747  1.0426  2.0193 -1.2017
 1754SOL    HW217241   9.119   4.728   3.744 -2.8312  0.3147 -2.0520
 1755SOL     OW17242   9.579   1.278   3.717  0.1354  0.3429  0.0803
 1755SOL    HW117243   9.568   1.343   3.787 -0.9949  0.6938 -0.3954
 1755SOL    HW217244   9.666   1.242   3.731 -0.0498  0.4511  1.6267
 1756SOL     OW17245   5.159   8.828   7.924 -0.2350  0.4548  0.1405
 1756SOL    HW117246   5.101   8.848   7.850  0.2193  0.4248 -0.2289
 1756SOL    HW217247   5.243   8.867   7.900  0.2551 -0.5964  0.0798
 1757SOL     OW17248   5.926   2.820   2.168  0.0780 -0.0486  0.3818
 1757SOL    HW117249   5.994   2.878   2.136  0.7046 -0.7771  0.3733
 1757SOL    HW217250   5.934   2.821   2.263 -1.2936  1.5198  0.5254
 1758SOL     OW17251   8.050   9.945   8.562  0.3049 -0.4795 -0.2518
 1758SOL    HW117252   8.035   9.863   8.609 -1.1674  0.3414  0.8043
 1758SOL    HW217253   7.963   9.972   8.533  1.0244 -0.2710 -2.3390
 1759SOL     OW17254   2.313   9.187   5.771 -0.4150  0.0198 -0.1707
 1759SOL    HW117255   2.240   9.194   5.709 -1.3035 -0.3117  0.7963
 1759SOL    HW217256   2.307   9.267   5.823  0.6800  0.5690 -0.8610
 1760SOL     OW17257  10.107   1.877   2.141  0.1097 -0.0605  0.0807
 1760SOL    HW117258  10.025   1.862   2.188  0.8358 -3.4729  0.4918
 1760SOL    HW217259  10.159   1.931   2.199 -0.9596  0.1442  0.8779
 1761SOL     OW17260   1.898   7.529   6.033 -0.2842 -0.1962  0.2867
 1761SOL    HW117261   1.948   7.503   5.956 -0.1630  0.3836  0.1616
 1761SOL    HW217262   1.902   7.453   6.091 -2.2267 -1.4958 -1.1725
 1762SOL     OW17263   5.984   1.050   7.842 -0.1627 -0.6792 -0.2376
 1762SOL    HW117264   6.048   1.085   7.904 -0.1018 -1.1834 -0.0071
 1762SOL    HW217265   5.919   1.120   7.831  1.5749  0.7504 -2.2000
 1763SOL     OW17266   2.139   0.567   7.737  0.4470 -0.4174  0.1695
 1763SOL    HW117267   2.225   0.546   7.702  0.6459 -1.3738  1.1694
 1763SOL    HW217268   2.107   0.485   7.773  1.1147  0.7781  3.9531
 1764SOL     OW17269   5.689   6.125   7.842  0.3824 -0.0089  0.5140
 1764SOL    HW117270   5.716   6.045   7.798  0.8905  1.3363 -1.8352
 1764SOL    HW217271   5.764   6.185   7.831  0.1369  0.7389  2.4409
 1765SOL     OW17272   3.651   4.157   6.360 -0.4128 -0.3152  0.0385
 1765SOL    HW117273   3.623   4.172   6.450 -0.7770 -1.0270  0.0557
 1765SOL    HW217274   3.579   4.108   6.321 -0.4991  0.4719 -0.8028
 1766SOL     OW17275   5.722  10.060   1.841 -0.0042 -0.4239  0.0217
 1766SOL    HW117276   5.642  10.079   1.891 -0.5188  1.6610 -1.4549
 1766SOL    HW217277   5.690  10.044   1.752  1.2267  0.3573 -0.5702
 1767SOL     OW17278   6.724   2.169   0.494 -0.0626  0.0697  0.4683
 1767SOL    HW117279   6.698   2.219   0.572 -0.0680  0.4853  0.2044
 1767SOL    HW217280   6.676   2.087   0.501 -3.6112  1.7675 -1.3011
 1768SOL     OW17281   6.110   4.041   3.430 -0.8264  0.4577  0.2072
 1768SOL    HW117282   6.043   3.987   3.473 -2.1116  1.6868 -0.1453
 1768SOL    HW217283   6.187   3.984   3.424 -1.7016 -0.8764  1.0161
 1769SOL     OW17284   4.180   5.301   2.627  0.1866 -0.0235 -0.3846
 1769SOL    HW117285   4.125   5.375   2.602 -0.5300 -0.2570  0.4657
 1769SOL    HW217286   4.267   5.325   2.596 -0.2048  0.7768 -0.9058
 1770SOL     OW17287   7.123   6.408   8.915 -0.6855  0.1162  0.0124
 1770SOL    HW117288   7.144   6.321   8.948 -2.4728 -0.0253  0.9410
 1770SOL    HW217289   7.028   6.414   8.924 -0.5171  2.5560  1.0291
 1771SOL     OW17290   0.368   1.557   1.612  0.1379 -0.4181  0.5037
 1771SOL    HW117291   0.348   1.466   1.592 -0.2744  0.0001 -1.1267
 1771SOL    HW217292   0.404   1.593   1.531  0.7969  0.7417  1.2703
 1772SOL     OW17293  10.307   8.021   2.548 -0.4566  0.4522 -0.0347
 1772SOL    HW117294  10.283   8.044   2.459  2.6578  3.7777 -0.2523
 1772SOL    HW217295  10.391   7.976   2.539  0.1517  1.2854  1.1841
 1773SOL     OW17296   8.240   0.252   1.714  0.3534  0.4099  0.5609
 1773SOL    HW117297   8.291   0.319   1.760  0.2582  0.7040  0.2421
 1773SOL    HW217298   8.305   0.201   1.666  0.4193  0.3050  0.7576
 1774SOL     OW17299   4.761   9.009   8.825  0.5052  0.3706 -0.5362
 1774SOL    HW117300   4.761   9.025   8.730 -0.4778 -1.1733 -0.8279
 1774SOL    HW217301   4.672   9.031   8.853  0.1189 -1.2732 -0.3879
 1775SOL     OW17302   4.926   1.058   3.764  0.2308  0.1348  0.1777
 1775SOL    HW117303   4.983   1.134   3.780 -0.8635  0.8413  0.7853
 1775SOL    HW217304   4.962   1.018   3.684  0.4780  1.6113 -0.4732
 1776SOL     OW17305   8.572   1.505   5.961 -0.5494 -0.4791  0.4609
 1776SOL    HW117306   8.618   1.588   5.970  1.2392 -1.4904  1.1990
 1776SOL    HW217307   8.548   1.501   5.869 -0.2384  0.6344  0.3137
 1777SOL     OW17308   2.110   1.238   7.267 -0.4360  0.7700 -0.5106
 1777SOL    HW117309   2.111   1.329   7.236  2.0567  1.7283  1.9031
 1777SOL    HW217310   2.189   1.199   7.230 -0.7163  0.0463 -0.3613
 1778SOL     OW17311   9.829  10.229   8.307  0.2723 -0.4090  0.5360
 1778SOL    HW117312   9.782  10.262   8.230  1.8686 -0.5171 -0.5257
 1778SOL    HW217313   9.764  10.176   8.354 -0.8034 -0.1298 -0.5839
 1779SOL     OW17314   2.772   8.451   3.121  1.0620 -0.2931 -0.1057
 1779SOL    HW117315   2.772   8.539   3.159  3.7377 -0.1988 -0.1409
 1779SOL    HW217316   2.781   8.392   3.195 -0.0343 -0.5238 -0.1404
 1780SOL     OW17317   0.972   3.170   6.186 -0.5115 -0.6300  0.3543
 1780SOL    HW117318   0.970   3.215   6.270  2.0714  0.6554 -0.1526
 1780SOL    HW217319   1.008   3.084   6.206  1.1002  0.0349  0.5081
 1781SOL     OW17320   0.035   3.417   4.866 -0.4312  0.1588 -0.0793
 1781SOL    HW117321   0.082   3.347   4.912 -1.3220 -1.2204 -1.2084
 1781SOL    HW217322  -0.005   3.468   4.936  1.8543  0.7782  0.8695
 1782SOL     OW17323   8.281   8.928   9.615  0.4671 -0.5858  0.1298
 1782SOL    HW117324   8.218   8.993   9.585 -1.1870 -0.7562  2.8352
 1782SOL    HW217325   8.243   8.844   9.590  0.9665 -0.6212 -0.5258
 1783SOL     OW17326   1.217   0.570   9.792 -0.3326 -0.4731 -0.1709
 1783SOL    HW117327   1.140   0.524   9.758 -0.3998 -0.1838 -0.4136
 1783SOL    HW217328   1.181   0.633   9.856 -0.5460  1.2232 -1.8810
 1784SOL     OW17329   5.828   2.062   6.905  0.7123  0.4056 -0.0945
 1784SOL    HW117330   5.912   2.035   6.941  0.1328 -0.2140  0.8358
 1784SOL    HW217331   5.847   2.142   6.856  1.6324  0.9686  1.1374
 1785SOL     OW17332   3.590   7.653   7.824  0.9022 -0.3583  0.0368
 1785SOL    HW117333   3.584   7.572   7.874  1.7657  1.7717  4.0506
 1785SOL    HW217334   3.502   7.689   7.826  0.8986 -0.3561 -0.1480
 1786SOL     OW17335   8.560   2.156   8.242  0.3441  0.0924 -0.1743
 1786SOL    HW117336   8.642   2.108   8.251  1.1348  1.3169 -0.5487
 1786SOL    HW217337   8.571   2.233   8.298 -1.0220 -0.2941  0.6842
 1787SOL     OW17338   0.053   1.331   1.981  0.0191  0.0389 -0.4210
 1787SOL    HW117339  -0.020   1.273   1.959  0.2428  0.0508 -1.2191
 1787SOL    HW217340   0.130   1.285   1.948  0.4048 -0.0620  0.5797
 1788SOL     OW17341   0.098   2.260   3.483  0.2679 -0.1650  0.2708
 1788SOL    HW117342   0.126   2.311   3.560 -0.2034 -1.8879  1.6530
 1788SOL    HW217343   0.003   2.257   3.490  0.3225 -1.8504  0.6738
 1789SOL     OW17344   3.059   9.350   1.888 -0.1310  0.5199  0.7044
 1789SOL    HW117345   2.963   9.355   1.887 -0.2128 -0.7241 -0.3942
 1789SOL    HW217346   3.078   9.258   1.869  1.2831  0.6665  1.3346
 1790SOL     OW17347   2.043   9.800   8.562 -0.2204  0.2082 -0.1629
 1790SOL    HW117348   2.124   9.828   8.519 -0.5724  0.7095 -0.5112
 1790SOL    HW217349   2.045   9.845   8.647 -0.0423  0.0673 -0.0917
 1791SOL     OW17350   2.282   4.900   8.047  0.2937 -0.0711 -0.3111
 1791SOL    HW117351   2.247   4.820   8.087  1.8921 -1.0200 -0.7562
 1791SOL    HW217352   2.206   4.958   8.041 -0.4741 -0.6956  2.0555
 1792SOL     OW17353  10.377   3.058   0.616 -0.0244  0.1264 -0.7592
 1792SOL    HW117354  10.388   2.974   0.572  1.1403 -0.0905 -0.1150
 1792SOL    HW217355  10.283   3.067   0.628 -0.1118 -2.2897  1.3757
 1793SOL     OW17356   9.066   2.862   5.191  0.3115  0.2199  0.3874
 1793SOL    HW117357   9.068   2.954   5.216  0.5662  0.0993  0.8196
 1793SOL    HW217358   8.973   2.840   5.185  0.1549 -0.3380  3.4749
 1794SOL     OW17359   8.291   8.867   7.556  0.2579  0.0739 -0.1799
 1794SOL    HW117360   8.314   8.881   7.464 -1.2464  0.1830 -0.5644
 1794SOL    HW217361   8.203   8.902   7.564 -0.2684 -1.4112  0.9200
 1795SOL     OW17362   7.389   0.439   4.408 -0.1237 -0.4251 -0.4388
 1795SOL    HW117363   7.352   0.379   4.343 -0.8804  0.1790 -0.5838
 1795SOL    HW217364   7.451   0.493   4.359 -2.3349  1.5742 -1.2396
 1796SOL     OW17365   8.674  10.126   6.571 -0.7261 -0.0796  0.6072
 1796SOL    HW117366   8.631  10.211   6.568  2.2240  1.5461 -2.5708
 1796SOL    HW217367   8.634  10.077   6.499  0.0299 -0.0240  0.1453
 1797SOL     OW17368   3.372   9.933   8.426  0.0048 -0.5180 -0.1247
 1797SOL    HW117369   3.440   9.990   8.390  2.0466 -0.7596  2.9437
 1797SOL    HW217370   3.368   9.859   8.366  1.3916  0.1974 -1.1632
 1798SOL     OW17371   0.232   5.136   4.408 -0.0002  0.2920 -0.1064
 1798SOL    HW117372   0.271   5.057   4.446 -1.1804 -0.7929 -1.0107
 1798SOL    HW217373   0.250   5.128   4.314  2.6598  2.7922  0.0801
 1799SOL     OW17374   4.709   9.350   6.707  0.4036  0.1856 -0.0498
 1799SOL    HW117375   4.717   9.396   6.624 -0.2164 -0.4306 -0.4592
 1799SOL    HW217376   4.683   9.261   6.684 -2.1878  0.6240  0.8806
 1800SOL     OW17377   2.707   2.261  10.215 -0.4444  0.3217 -0.3925
 1800SOL    HW117378   2.778   2.323  10.196  1.7640 -1.0580  2.5858
 1800SOL    HW217379   2.722   2.188  10.155  0.8711 -0.0773  0.3931
 1801SOL     OW17380   3.333   9.254   3.120 -0.2330  0.0842 -0.5606
 1801SOL    HW117381   3.391   9.253   3.196 -1.7135 -2.3085  0.6343
 1801SOL    HW217382   3.383   9.210   3.051  0.6907  1.2765 -0.6902
 1802SOL     OW17383   8.280   9.650   9.894  0.6711 -0.1288  0.5732
 1802SOL    HW117384   8.338   9.598   9.950 -0.4899 -0.1373  1.8072
 1802SOL    HW217385   8.252   9.723   9.949 -0.8983 -0.4177  0.2081
 1803SOL     OW17386   0.839   3.936   4.295 -0.7793  0.4789 -0.3536
 1803SOL    HW117387   0.797   3.977   4.219 -0.7663  1.9786  0.4045
 1803SOL    HW217388   0.849   3.844   4.271 -0.8469  0.9032 -2.1341
 1804SOL     OW17389   3.994   4.223   1.432 -0.0470  0.2357 -0.0596
 1804SOL    HW117390   3.909   4.246   1.394  0.4625  3.2214  0.3654
 1804SOL    HW217391   4.044   4.185   1.360 -1.5788 -1.2687 -0.3932
 1805SOL     OW17392   4.391   8.289   0.252 -0.0185 -0.4141 -0.2604
 1805SOL    HW117393   4.359   8.322   0.168  0.1713 -1.4815 -0.7706
 1805SOL    HW217394   4.470   8.341   0.270 -0.0542 -0.1897 -0.7473
 1806SOL     OW17395   0.919   1.619   0.779 -0.2561  0.2980 -0.5335
 1806SOL    HW117396   1.001   1.645   0.736  0.5710 -0.7705  0.3242
 1806SOL    HW217397   0.926   1.524   0.788 -1.4071  0.2420 -0.0576
 1807SOL     OW17398   3.282   6.862   3.858  0.8670  0.0457 -0.1747
 1807SOL    HW117399   3.191   6.832   3.865 -0.1978  2.5290 -1.8588
 1807SOL    HW217400   3.306   6.888   3.947  0.2402 -1.3529  0.4368
 1808SOL     OW17401   2.518   1.613   6.947  0.4754 -0.2190  0.7780
 1808SOL    HW117402   2.583   1.643   7.010  0.9249 -0.9696  0.6884
 1808SOL    HW217403   2.439   1.663   6.967  1.0084  0.5360  1.0432
 1809SOL     OW17404   0.137   7.567   9.149 -0.2011  0.2140 -0.1896
 1809SOL    HW117405   0.053   7.531   9.178 -0.1354 -0.5066 -0.8409
 1809SOL    HW217406   0.200   7.538   9.215 -0.5275  1.0881  0.5073
 1810SOL     OW17407   0.093   0.490   2.332  0.2411  0.4221 -0.6756
 1810SOL    HW117408   0.128   0.577   2.312 -1.9262  1.2380 -1.1934
 1810SOL    HW217409   0.161   0.430   2.302  0.1541  1.8167 -4.2105
 1811SOL     OW17410   3.956   8.139   8.548 -0.4223 -0.1736 -0.1933
 1811SOL    HW117411   3.867   8.170   8.561 -0.4912 -0.0762 -0.8676
 1811SOL    HW217412   3.973   8.081   8.622 -1.2249 -0.5792 -0.3211
 1812SOL     OW17413   7.903   7.455   1.383 -0.4953 -0.4176 -0.1151
 1812SOL    HW117414   7.934   7.480   1.296 -1.0806 -0.2106 -0.2679
 1812SOL    HW217415   7.808   7.452   1.375 -0.4897 -2.2303  0.0177
 1813SOL     OW17416   2.764   6.657   0.802  0.8645  0.3291  0.0969
 1813SOL    HW117417   2.679   6.650   0.845  0.2333  0.3986 -1.1067
 1813SOL    HW217418   2.774   6.574   0.756  2.3959 -0.5302  1.8647
 1814SOL     OW17419   6.167  10.042   5.042 -0.4108 -0.4754 -0.8129
 1814SOL    HW117420   6.204  10.091   4.969 -0.5481  0.9770  0.0577
 1814SOL    HW217421   6.204   9.954   5.032  1.6630  0.3546 -1.1585
 1815SOL     OW17422   0.582   1.614   0.234  0.3103  0.4155  0.3370
 1815SOL    HW117423   0.640   1.559   0.286 -0.9647 -1.4993 -0.1737
 1815SOL    HW217424   0.567   1.564   0.154 -1.7296  1.0271  0.2938
 1816SOL     OW17425   1.527   0.684   5.540 -0.5629  0.3435  0.2597
 1816SOL    HW117426   1.520   0.764   5.488 -0.6989 -1.4767 -2.7261
 1816SOL    HW217427   1.440   0.643   5.533  0.1914 -1.2391 -0.3755
 1817SOL     OW17428   7.861   0.077   0.685  0.1986 -0.0975 -0.2145
 1817SOL    HW117429   7.897   0.166   0.690 -0.1786  0.0219  0.7065
 1817SOL    HW217430   7.900   0.031   0.760 -1.1188 -0.1149  0.4961
 1818SOL     OW17431   3.063   5.695   2.449  0.5988 -0.4717 -0.0502
 1818SOL    HW117432   2.984   5.650   2.420  1.0765 -0.2508 -1.8080
 1818SOL    HW217433   3.134   5.636   2.427  1.1631  0.6974 -1.5672
 1819SOL     OW17434   1.749   2.637   5.428 -0.1675 -0.4303 -0.4407
 1819SOL    HW117435   1.733   2.659   5.520  1.3566  0.6414 -0.3853
 1819SOL    HW217436   1.697   2.700   5.379  0.1014 -0.0838 -0.2887
 1820SOL     OW17437   8.029   0.422   4.512 -0.5140  0.5201 -0.0553
 1820SOL    HW117438   8.056   0.343   4.558 -3.0038 -0.8077 -0.7209
 1820SOL    HW217439   7.965   0.463   4.570  0.0095  1.5192 -0.1670
 1821SOL     OW17440  10.302   1.785   3.651  0.1011  0.8816 -0.0510
 1821SOL    HW117441  10.381   1.768   3.599 -0.9009 -2.3109 -0.7249
 1821SOL    HW217442  10.230   1.776   3.589 -0.9578  0.1705  1.2374
 1822SOL     OW17443   6.151   6.211   8.914 -0.1838  0.0733 -0.4467
 1822SOL    HW117444   6.190   6.134   8.874  0.4111 -0.3838  0.9284
 1822SOL    HW217445   6.196   6.285   8.873  0.4648 -0.3762 -0.5649
 1823SOL     OW17446   8.754   3.359   6.928 -0.5307  0.1692  0.3099
 1823SOL    HW117447   8.769   3.422   6.857  0.7026  0.0672  0.4700
 1823SOL    HW217448   8.743   3.275   6.882  1.4040 -0.1002  0.2539
 1824SOL     OW17449   6.400   2.044   4.881 -0.2378 -0.6477  0.4574
 1824SOL    HW117450   6.344   2.111   4.921  1.7469  0.5578  1.3535
 1824SOL    HW217451   6.410   1.977   4.949  1.5496  0.4596  1.3508
 1825SOL     OW17452   1.376   2.359   8.561  0.3978  0.4010  0.1197
 1825SOL    HW117453   1.313   2.424   8.592  0.9064  0.9695 -0.0491
 1825SOL    HW217454   1.322   2.282   8.542 -0.4390  1.2909 -1.2679
 1826SOL     OW17455   1.529   8.571   0.606 -0.2436 -0.0507  0.4551
 1826SOL    HW117456   1.601   8.517   0.572 -0.3142 -0.3690  0.8084
 1826SOL    HW217457   1.572   8.650   0.640 -0.3833  1.8442 -3.2499
 1827SOL     OW17458   6.320   8.095   0.422 -0.1396 -0.0060 -0.7968
 1827SOL    HW117459   6.379   8.169   0.432  1.4321 -1.3777  0.7908
 1827SOL    HW217460   6.314   8.082   0.327  2.4709 -0.0452 -1.0269
 1828SOL     OW17461   3.084   9.111   9.235  0.4393  0.1317 -0.1721
 1828SOL    HW117462   3.105   9.196   9.198  1.1112 -0.4494 -1.1829
 1828SOL    HW217463   3.013   9.077   9.179  0.4531 -0.1449 -0.0278
 1829SOL     OW17464   4.073   9.579   4.709  0.3991  0.3743  0.0900
 1829SOL    HW117465   4.148   9.638   4.709 -0.1471  1.0814 -0.2885
 1829SOL    HW217466   4.092   9.517   4.638  0.6097  0.5644 -0.0220
 1830SOL     OW17467   7.868   9.055   3.499  0.0062 -0.0433  0.2629
 1830SOL    HW117468   7.799   9.034   3.437  0.0569  0.5209  0.0039
 1830SOL    HW217469   7.945   9.071   3.445  0.0138  0.6022  0.4506
 1831SOL     OW17470   4.903   0.755   9.458 -0.7562  0.4548 -0.0891
 1831SOL    HW117471   4.877   0.670   9.424  1.3339 -0.1656 -0.3178
 1831SOL    HW217472   4.951   0.796   9.386  1.9906 -0.0288  1.3222
 1832SOL     OW17473   0.938   8.459   8.710 -0.4880  0.1997 -0.4170
 1832SOL    HW117474   0.966   8.438   8.799 -0.3768  0.2481 -0.4396
 1832SOL    HW217475   0.926   8.554   8.711  1.8412  0.5765 -1.0747
 1833SOL     OW17476   6.777   8.190   4.052 -0.5475  0.8817 -0.4509
 1833SOL    HW117477   6.840   8.195   3.980 -0.5581 -4.0821 -1.0946
 1833SOL    HW217478   6.825   8.224   4.127  1.3421  1.2627 -1.7361
 1834SOL     OW17479   9.345   7.316   3.591  0.4393 -0.5343 -0.1255
 1834SOL    HW117480   9.297   7.254   3.536 -1.2020  1.0394 -0.5303
 1834SOL    HW217481   9.300   7.314   3.675  0.6315 -0.1825 -0.0137
 1835SOL     OW17482   1.981   5.617   3.564 -0.2068 -0.1395  0.1893
 1835SOL    HW117483   1.957   5.597   3.654  1.9795  0.2497  0.9287
 1835SOL    HW217484   2.057   5.674   3.571 -0.5746  0.7087 -1.9201
 1836SOL     OW17485   5.348   1.732   7.615  0.1982  0.1689  0.3123
 1836SOL    HW117486   5.408   1.683   7.559  1.5401  0.0277  1.8104
 1836SOL    HW217487   5.352   1.822   7.581  0.0936 -0.1352 -0.5273
 1837SOL     OW17488   5.983   9.280   3.212  0.3164  0.7285  0.4616
 1837SOL    HW117489   5.986   9.340   3.287  1.7560  0.3760  0.7156
 1837SOL    HW217490   6.070   9.286   3.173 -0.4232  0.9200 -1.2208
 1838SOL     OW17491   0.575   4.211   6.506 -0.1543 -0.2665  0.3379
 1838SOL    HW117492   0.666   4.180   6.499  0.0836  0.0695  1.6725
 1838SOL    HW217493   0.560   4.220   6.600 -1.0063  1.3694  0.0763
 1839SOL     OW17494   2.163   2.425   7.240  0.1301 -0.2600 -0.2890
 1839SOL    HW117495   2.247   2.471   7.243  0.5789 -0.9350 -1.4487
 1839SOL    HW217496   2.178   2.346   7.292  0.1836 -0.3208 -0.3955
 1840SOL     OW17497   8.892   9.748   4.703  0.4331  0.3797 -0.0210
 1840SOL    HW117498   8.985   9.768   4.712  0.0796  2.3060 -0.3938
 1840SOL    HW217499   8.871   9.771   4.613 -0.9009  2.2307  0.7230
 1841SOL     OW17500   1.370   9.640   3.603  0.5466 -0.2539 -0.5139
 1841SOL    HW117501   1.396   9.554   3.636  2.8761  0.7255  0.3478
 1841SOL    HW217502   1.452   9.685   3.583 -0.4988  2.2879  0.4094
 1842SOL     OW17503   1.346   1.317  10.146 -0.5971 -0.0722 -0.7712
 1842SOL    HW117504   1.309   1.375  10.080 -0.3490  0.6758 -0.2598
 1842SOL    HW217505   1.402   1.373  10.200 -0.5584 -0.7286 -0.1034
 1843SOL     OW17506   0.458   9.985   3.892  0.1542 -0.2755  0.0932
 1843SOL    HW117507   0.541   9.940   3.911 -0.0440 -0.4771  0.5193
 1843SOL    HW217508   0.476  10.077   3.912  0.2095 -0.3535  0.4189
 1844SOL     OW17509   1.980   1.934   8.112 -0.1539 -0.6134 -0.0197
 1844SOL    HW117510   1.942   2.015   8.145  1.4370  0.4959 -0.7884
 1844SOL    HW217511   1.941   1.924   8.025  0.7731  0.1565 -0.5341
 1845SOL     OW17512   2.004   2.516   9.413  0.0060  0.6017  0.3142
 1845SOL    HW117513   2.039   2.446   9.467  0.3121  0.5667  0.0765
 1845SOL    HW217514   1.910   2.515   9.429  0.2710  1.7329  2.1963
 1846SOL     OW17515  10.330   0.759   7.362 -0.2018 -0.8163  0.1916
 1846SOL    HW117516  10.276   0.754   7.441 -0.2561  0.5355  0.2762
 1846SOL    HW217517  10.277   0.721   7.293 -1.2306  0.3707  0.3005
 1847SOL     OW17518   2.378   1.718   3.826 -0.5870 -0.2297 -0.2795
 1847SOL    HW117519   2.408   1.717   3.735  1.7024  0.1617  0.4048
 1847SOL    HW217520   2.407   1.634   3.862 -1.2674 -0.2849  0.1702
 1848SOL     OW17521   9.455   2.259   8.534  0.0946  0.2067 -0.2940
 1848SOL    HW117522   9.429   2.305   8.615 -0.2000  2.0041 -1.3559
 1848SOL    HW217523   9.545   2.230   8.551  0.0216  0.5140  0.7058
 1849SOL     OW17524   6.785   6.940   6.923 -0.0824  0.1791 -0.3024
 1849SOL    HW117525   6.784   6.887   6.843 -2.4574 -2.2118  1.1214
 1849SOL    HW217526   6.762   7.028   6.895 -2.8095 -1.0057 -2.1129
 1850SOL     OW17527   5.014   3.046   5.484 -0.4277 -0.5407 -0.0812
 1850SOL    HW117528   5.054   3.008   5.405  1.6640  1.8424 -0.2888
 1850SOL    HW217529   5.019   2.975   5.549 -1.5811 -2.3312 -1.8223
 1851SOL     OW17530   0.424   2.042   0.148 -0.4307  0.9223 -0.4409
 1851SOL    HW117531   0.394   1.992   0.224  0.0983  0.9048 -0.2357
 1851SOL    HW217532   0.415   1.982   0.074  0.8695  0.2461 -0.0872
 1852SOL     OW17533   4.345  10.286   6.138  0.0256  0.3605  0.2976
 1852SOL    HW117534   4.396  10.341   6.198  0.6554 -0.6886  0.7660
 1852SOL    HW217535   4.266  10.263   6.187 -0.8883  1.8905 -0.3855
 1853SOL     OW17536   5.062   3.125   6.286 -0.1067  0.0031 -0.7557
 1853SOL    HW117537   5.076   3.138   6.380 -1.4047  1.4426 -0.7165
 1853SOL    HW217538   5.024   3.037   6.279 -1.8233  0.6058  0.3146
 1854SOL     OW17539   3.014   3.116  10.388  0.2047 -0.1482 -0.0570
 1854SOL    HW117540   2.957   3.128  10.312  0.3515  1.1857  0.0163
 1854SOL    HW217541   3.089   3.067  10.355 -0.2434 -0.5243 -0.5199
 1855SOL     OW17542   8.199   1.707   2.254 -0.3637 -0.4345 -0.0104
 1855SOL    HW117543   8.233   1.622   2.285 -1.3902 -1.6915 -2.0902
 1855SOL    HW217544   8.275   1.766   2.258  0.5058 -1.5678  1.0328
 1856SOL     OW17545   5.774   7.688   2.864  0.4637  0.0057  0.5545
 1856SOL    HW117546   5.704   7.640   2.910  1.3221 -0.8262  1.0377
 1856SOL    HW217547   5.742   7.697   2.774  0.3802 -1.7735  0.3607
 1857SOL     OW17548   6.697   1.182   0.992 -0.6173 -0.1530  0.1159
 1857SOL    HW117549   6.777   1.138   1.022 -0.8060 -0.2478  0.4880
 1857SOL    HW217550   6.653   1.119   0.936 -0.5101 -0.1588  0.0387
 1858SOL     OW17551   9.363   7.984   1.503  0.5021  0.2387  0.1831
 1858SOL    HW117552   9.398   7.973   1.592  1.0582  1.2757  0.0986
 1858SOL    HW217553   9.352   7.894   1.471  0.8196 -0.1366  1.0888
 1859SOL     OW17554   4.240   7.535   8.960 -0.1630 -0.4210 -0.3791
 1859SOL    HW117555   4.321   7.583   8.944 -0.9851  1.5694  0.9696
 1859SOL    HW217556   4.178   7.602   8.989 -1.2680 -2.3309  2.0710
 1860SOL     OW17557  10.143   6.598  10.201  0.3140  0.1777 -0.2970
 1860SOL    HW117558  10.193   6.580  10.122  1.6472  1.0575  0.2858
 1860SOL    HW217559  10.068   6.649  10.172  1.1350  1.0498 -0.9492
 1861SOL     OW17560  10.009   0.633   4.947 -0.3709 -0.4729  0.2147
 1861SOL    HW117561   9.982   0.602   5.033  0.2457 -0.0497  0.5689
 1861SOL    HW217562   9.942   0.696   4.922 -0.3217 -0.2688  0.5860
 1862SOL     OW17563   6.563   8.918   2.908 -0.0041  0.1982  0.4457
 1862SOL    HW117564   6.581   8.984   2.841 -1.0585 -0.6408 -0.7194
 1862SOL    HW217565   6.531   8.842   2.859 -3.9119  0.5681  2.0315
 1863SOL     OW17566   9.213   7.281   9.428 -0.7387 -0.0699  0.8628
 1863SOL    HW117567   9.131   7.284   9.478 -2.5828 -1.5898 -1.7709
 1863SOL    HW217568   9.211   7.362   9.377  0.5653  0.9334  2.3245
 1864SOL     OW17569   2.953   5.455   1.437 -0.5149  0.2008  0.2327
 1864SOL    HW117570   2.988   5.521   1.377 -0.8569  0.2239  0.0554
 1864SOL    HW217571   2.905   5.394   1.379  1.3601 -1.2659  0.1252
 1865SOL     OW17572   3.232   4.425   1.012  0.1647 -0.1834  0.3003
 1865SOL    HW117573   3.210   4.518   1.005 -0.4607 -0.3954 -0.7636
 1865SOL    HW217574   3.155   4.380   0.979  1.2449 -1.0352 -1.1484
 1866SOL     OW17575   5.993   2.077   5.553 -0.3111  0.8284  0.0321
 1866SOL    HW117576   6.069   2.134   5.565 -0.1325  0.6579 -0.2865
 1866SOL    HW217577   5.955   2.103   5.469  0.5181 -0.3732 -0.7442
 1867SOL     OW17578   6.626   9.834   0.174 -0.2632  0.0443  0.0774
 1867SOL    HW117579   6.557   9.889   0.136  0.2226  0.3530 -0.3768
 1867SOL    HW217580   6.581   9.755   0.203 -0.7937  0.1943 -0.3229
 1868SOL     OW17581  10.313   7.824   7.507 -0.2753 -0.4152  0.0399
 1868SOL    HW117582  10.385   7.777   7.551  0.0791 -0.5783 -0.6918
 1868SOL    HW217583  10.352   7.907   7.481 -0.2179 -0.6867 -0.7579
 1869SOL     OW17584   8.090   4.551   8.605 -0.2698 -0.7273  0.3571
 1869SOL    HW117585   8.098   4.491   8.531  1.1033  0.8464 -0.8531
 1869SOL    HW217586   7.996   4.565   8.614 -0.4507  0.7191 -2.5756
 1870SOL     OW17587   9.548   0.856   8.328  0.7224  0.4837 -0.6617
 1870SOL    HW117588   9.593   0.839   8.245  1.6916 -2.7126  0.3623
 1870SOL    HW217589   9.463   0.812   8.318  0.0587  1.7227 -0.5978
 1871SOL     OW17590   9.363   7.230   7.980  0.3028 -0.2842 -0.4406
 1871SOL    HW117591   9.312   7.226   8.060 -1.5393  0.3444 -1.5261
 1871SOL    HW217592   9.444   7.275   8.004 -1.6143  2.9445  0.4109
 1872SOL     OW17593   8.067   3.508   9.554  0.7576  0.1412 -0.5128
 1872SOL    HW117594   8.079   3.426   9.506  1.4028 -0.2883  0.3553
 1872SOL    HW217595   8.155   3.541   9.568  0.4768  1.3876 -1.4992
 1873SOL     OW17596   7.819   7.977   3.906 -0.6328  0.3035  0.4364
 1873SOL    HW117597   7.914   7.975   3.915 -0.6657 -0.7628  0.5975
 1873SOL    HW217598   7.786   7.978   3.996 -0.7826 -0.2488  0.3935
 1874SOL     OW17599   9.070   1.557   7.085 -0.3230 -0.0116 -0.2438
 1874SOL    HW117600   9.061   1.619   7.157 -0.9063 -0.9279  0.4948
 1874SOL    HW217601   8.995   1.575   7.028 -0.0871  0.4382 -0.4171
 1875SOL     OW17602   2.306   6.668   5.440  0.1392  0.0488  0.1275
 1875SOL    HW117603   2.367   6.597   5.419  0.0953  0.1501 -0.3528
 1875SOL    HW217604   2.260   6.686   5.358  1.0168  1.4665 -0.0877
 1876SOL     OW17605   1.668   2.270   6.179  0.1696  0.1414 -0.4187
 1876SOL    HW117606   1.699   2.180   6.175  0.5642  0.3002 -1.3685
 1876SOL    HW217607   1.748   2.323   6.183  0.0341  0.4106  4.0443
 1877SOL     OW17608   4.415   2.499   9.419 -0.5757 -0.2985 -0.3515
 1877SOL    HW117609   4.500   2.539   9.432 -0.2726 -0.7820 -0.8135
 1877SOL    HW217610   4.417   2.419   9.473 -0.6146 -0.4783 -0.6130
 1878SOL     OW17611   3.478   8.639  10.209 -0.1928 -0.2755  0.2247
 1878SOL    HW117612   3.491   8.564  10.267  0.1232 -0.9882 -0.7543
 1878SOL    HW217613   3.454   8.601  10.125 -0.5793  0.7469 -0.1432
 1879SOL     OW17614   5.841   4.298   2.901 -0.2622  0.3425  0.0199
 1879SOL    HW117615   5.898   4.256   2.837  0.1491 -0.0816  0.6580
 1879SOL    HW217616   5.760   4.317   2.853  0.1913  0.4019 -0.7266
 1880SOL     OW17617   2.246   2.085   0.390  0.2369 -0.4747 -0.1029
 1880SOL    HW117618   2.301   2.010   0.412  2.5799  1.4716  1.2282
 1880SOL    HW217619   2.201   2.106   0.472 -0.4451 -0.4463 -0.4789
 1881SOL     OW17620  10.164   2.758   3.751  0.0977 -0.1574 -0.1629
 1881SOL    HW117621  10.173   2.853   3.761  0.6285 -0.3755  2.0777
 1881SOL    HW217622  10.237   2.733   3.694  0.5956  0.6683  0.0906
 1882SOL     OW17623   5.950   5.867   0.569  0.2038 -0.3089  0.2786
 1882SOL    HW117624   5.972   5.878   0.476  1.1965 -1.1410  0.3985
 1882SOL    HW217625   6.020   5.912   0.616  0.0167 -0.3890  0.6356
 1883SOL     OW17626   3.808   9.969   8.072  0.3161  0.1544 -0.0773
 1883SOL    HW117627   3.852  10.011   7.998  1.5681 -0.9890 -0.0227
 1883SOL    HW217628   3.879   9.939   8.128 -0.5794 -0.6144  0.6748
 1884SOL     OW17629   3.119   2.626   4.633 -0.2151  0.4010 -0.2716
 1884SOL    HW117630   3.135   2.719   4.623 -2.0217  0.8695  0.6868
 1884SOL    HW217631   3.181   2.584   4.574  1.1736  2.1572 -0.1304
 1885SOL     OW17632   3.389   4.529   9.286 -0.4654  0.2449  0.2283
 1885SOL    HW117633   3.328   4.459   9.308 -1.0871  0.2177 -1.3990
 1885SOL    HW217634   3.341   4.610   9.303 -1.1094  0.2230 -1.3049
 1886SOL     OW17635   1.528   0.633   1.098 -0.6052 -0.2482 -0.2576
 1886SOL    HW117636   1.522   0.618   1.192  1.1913 -1.1502 -0.2586
 1886SOL    HW217637   1.569   0.554   1.063 -0.3243  0.4862 -1.6658
 1887SOL     OW17638   0.390   0.145   1.883  0.5122 -0.1644  0.4724
 1887SOL    HW117639   0.401   0.091   1.805  1.3148  1.3711 -0.5448
 1887SOL    HW217640   0.416   0.088   1.956  1.9644 -0.9573 -0.6030
 1888SOL     OW17641   8.714   4.528   7.222  0.3010 -0.1988  0.0450
 1888SOL    HW117642   8.635   4.503   7.270 -1.0122 -0.0289 -1.9368
 1888SOL    HW217643   8.685   4.594   7.159  1.9170 -0.5566 -1.1508
 1889SOL     OW17644   9.703   9.913   6.906 -0.4254  0.2497 -0.2850
 1889SOL    HW117645   9.667   9.995   6.941  1.0458  0.3528  1.1066
 1889SOL    HW217646   9.660   9.844   6.957 -1.0663  0.1861 -0.9006
 1890SOL     OW17647   8.501   5.852   4.804 -0.7381  0.2033  0.5858
 1890SOL    HW117648   8.557   5.921   4.838  0.1318  0.0990 -0.5642
 1890SOL    HW217649   8.541   5.770   4.834 -1.9282  0.1705  2.1880
 1891SOL     OW17650   4.948   0.095   0.727 -0.2219 -0.2174 -0.4710
 1891SOL    HW117651   5.004   0.096   0.804  1.3066  0.3348 -1.5192
 1891SOL    HW217652   4.897   0.176   0.734 -1.5537 -1.1428  0.9244
 1892SOL     OW17653   3.596   0.353   3.986  0.1325  0.5378 -0.2879
 1892SOL    HW117654   3.519   0.305   4.015  0.3087  1.0874  1.1605
 1892SOL    HW217655   3.565   0.404   3.911 -0.5682 -0.2524 -0.5478
 1893SOL     OW17656   3.359   5.920   2.348  0.0297 -0.2632  0.2664
 1893SOL    HW117657   3.372   5.826   2.363  1.5244  0.1526  2.0003
 1893SOL    HW217658   3.441   5.949   2.308  0.7295  0.7448  2.3062
 1894SOL     OW17659   9.834  10.089   3.851  0.0603 -0.0490 -0.2661
 1894SOL    HW117660   9.772  10.060   3.918  0.5153  2.9180  1.6025
 1894SOL    HW217661   9.890  10.012   3.836 -0.3064 -0.9797  2.4979
 1895SOL     OW17662  10.180   5.679   2.891  0.3691 -0.8900  0.1654
 1895SOL    HW117663  10.219   5.756   2.932  3.2370 -1.2920 -1.5485
 1895SOL    HW217664  10.252   5.617   2.882 -1.4686 -3.1458 -0.0825
 1896SOL     OW17665   1.587   7.845   0.491  0.3424  0.0224  0.5124
 1896SOL    HW117666   1.614   7.792   0.416 -0.3475 -0.5483  0.6510
 1896SOL    HW217667   1.492   7.855   0.480  0.4595  1.2828  0.4628
 1897SOL     OW17668   3.295   2.660   8.738 -0.8989  0.3619 -0.2239
 1897SOL    HW117669   3.273   2.732   8.678 -0.3004  2.1520  1.6181
 1897SOL    HW217670   3.383   2.680   8.768 -1.4764 -0.0306  1.8702
 1898SOL     OW17671   2.992   9.223   4.183  0.2115 -0.3206 -0.0202
 1898SOL    HW117672   2.989   9.250   4.275  0.7075 -1.2609  0.2925
 1898SOL    HW217673   3.069   9.268   4.148  1.2053 -1.4946  0.5717
 1899SOL     OW17674   0.140   8.397   4.887 -0.3699  0.1216  0.7536
 1899SOL    HW117675   0.071   8.331   4.893 -1.7610  1.5722  1.3436
 1899SOL    HW217676   0.125   8.440   4.803  1.8477 -1.6190 -0.6557
 1900SOL     OW17677   6.628   6.887   0.163  0.6175  0.0873 -0.1466
 1900SOL    HW117678   6.581   6.851   0.239  1.5363 -0.2161  0.2954
 1900SOL    HW217679   6.601   6.979   0.160 -0.4197 -0.2037 -0.2409
 1901SOL     OW17680   8.608  10.274   2.540 -0.0138  0.5443  0.6603
 1901SOL    HW117681   8.660  10.340   2.494  0.5192 -0.0130  0.4625
 1901SOL    HW217682   8.672  10.214   2.577 -0.4907 -2.2088 -2.5111
 1902SOL     OW17683   1.565   3.021   7.566 -0.3342 -0.1538 -0.6330
 1902SOL    HW117684   1.472   3.038   7.575 -0.0642  1.3709 -0.4379
 1902SOL    HW217685   1.572   2.965   7.489 -1.5091 -1.5315  0.2219
 1903SOL     OW17686   0.610   1.815  10.229  0.3111 -0.5039 -0.3278
 1903SOL    HW117687   0.568   1.806  10.314  0.0206 -0.1770 -0.4345
 1903SOL    HW217688   0.553   1.768  10.169 -0.3371  0.5955 -0.6073
 1904SOL     OW17689   5.663   0.065   8.235  0.5502  0.2080  0.1989
 1904SOL    HW117690   5.692  -0.024   8.214 -0.6267  0.2529 -1.9092
 1904SOL    HW217691   5.649   0.106   8.150  0.5277  2.2532  1.1346
 1905SOL     OW17692   9.886   2.037   4.880  0.1013 -0.8239 -0.2551
 1905SOL    HW117693   9.924   1.957   4.842  1.9270  0.0493 -0.3887
 1905SOL    HW217694   9.911   2.034   4.972 -0.8046 -0.9476 -0.0082
 1906SOL     OW17695   4.237   1.665   2.347 -0.1834  0.2554 -0.0685
 1906SOL    HW117696   4.244   1.707   2.262  0.7004  0.5279  0.1308
 1906SOL    HW217697   4.143   1.649   2.358 -0.1937 -1.1568 -1.7474
 1907SOL     OW17698   4.041   4.658   8.646 -0.5934  0.0670  0.1902
 1907SOL    HW117699   3.982   4.594   8.687 -0.3832  0.8226  1.7602
 1907SOL    HW217700   4.011   4.663   8.555 -0.6821 -2.1565  0.0224
 1908SOL     OW17701   1.278   6.546   4.625 -0.3563 -0.5488 -0.4741
 1908SOL    HW117702   1.331   6.609   4.673  0.3955 -0.0589 -1.8818
 1908SOL    HW217703   1.211   6.517   4.688  0.8284 -0.2734  0.9660
 1909SOL     OW17704   8.932   9.787   2.474  0.0787  0.5971 -0.4692
 1909SOL    HW117705   9.018   9.755   2.447  0.0162 -1.6947  1.7000
 1909SOL    HW217706   8.947   9.879   2.496  1.5422  0.7085 -1.7227
 1910SOL     OW17707   5.379   4.694  10.256  0.5969  0.4956 -0.5229
 1910SOL    HW117708   5.456   4.638  10.243  0.8969  1.1535 -1.6387
 1910SOL    HW217709   5.368   4.696  10.351  2.8124  1.5070 -0.2308
 1911SOL     OW17710   1.451   4.008   4.076  0.0143  0.0252  0.3328
 1911SOL    HW117711   1.433   3.923   4.116  1.0528 -1.0244 -1.3092
 1911SOL    HW217712   1.526   4.042   4.125 -1.0616  0.5530  1.7013
 1912SOL     OW17713   8.618   6.828   5.660  0.3013  0.7547  0.4102
 1912SOL    HW117714   8.564   6.896   5.620 -0.8301  0.6084  1.6173
 1912SOL    HW217715   8.558   6.780   5.717  1.4652 -0.1416  0.9268
 1913SOL     OW17716   8.671   4.844   4.983  0.4163  0.2452  0.2025
 1913SOL    HW117717   8.724   4.831   4.904 -0.9851 -0.2186 -0.6894
 1913SOL    HW217718   8.632   4.930   4.972  0.0407  0.0856  0.2841
 1914SOL     OW17719   8.058   1.171   5.650  0.1786 -0.2325 -0.5323
 1914SOL    HW117720   8.008   1.214   5.719 -1.1881 -0.4328 -1.3810
 1914SOL    HW217721   8.085   1.087   5.688 -1.4747 -0.8061 -0.5791
 1915SOL     OW17722   2.182   7.886   9.516  0.5505 -0.0445 -0.0886
 1915SOL    HW117723   2.220   7.884   9.603  3.1617 -1.6715 -1.1625
 1915SOL    HW217724   2.180   7.795   9.488  1.6901  0.5654 -2.4565
 1916SOL     OW17725  10.141   6.261   7.957  0.0263  0.4257 -0.2158
 1916SOL    HW117726  10.049   6.271   7.933 -0.2856 -2.3551 -0.5086
 1916SOL    HW217727  10.188   6.317   7.896 -1.4083  1.0576 -0.7750
 1917SOL     OW17728   7.634   2.443   7.014  0.1655  0.0538 -0.1255
 1917SOL    HW117729   7.678   2.381   6.957  0.5540  0.5443 -0.3639
 1917SOL    HW217730   7.692   2.519   7.017 -1.6281  1.6332 -2.2404
 1918SOL     OW17731   1.657   7.006  10.283 -0.2367  0.9009  0.4821
 1918SOL    HW117732   1.575   7.037  10.244 -0.8988  0.3960  1.4443
 1918SOL    HW217733   1.650   6.911  10.280  0.7629  0.8279 -0.3161
 1919SOL     OW17734   3.872   9.699   1.737 -0.1325  0.0666 -0.7719
 1919SOL    HW117735   3.965   9.677   1.727 -0.1146 -0.2197 -0.0549
 1919SOL    HW217736   3.872   9.773   1.798 -0.4724 -1.3266  0.9998
 1920SOL     OW17737   6.456   7.439   9.754  0.1192  0.6207  0.0771
 1920SOL    HW117738   6.452   7.386   9.833  0.2750  0.4137 -0.0521
 1920SOL    HW217739   6.383   7.407   9.701 -0.7914  1.6521  0.6834
 1921SOL     OW17740   2.070   6.392  10.379 -0.2745  0.0640 -0.0133
 1921SOL    HW117741   2.160   6.361  10.388 -0.2079  0.0371 -0.7350
 1921SOL    HW217742   2.040   6.355  10.296 -0.3259  1.6169 -0.7185
 1922SOL     OW17743   2.211   9.265   7.021  0.6792  0.1191 -0.1164
 1922SOL    HW117744   2.137   9.325   7.023  1.4213  1.0841 -0.6796
 1922SOL    HW217745   2.273   9.302   7.084 -0.2059 -1.9343  2.1232
 1923SOL     OW17746   1.010   3.420   0.329  0.6773  0.4689  0.2966
 1923SOL    HW117747   1.104   3.410   0.341  0.5450 -0.9908  0.3320
 1923SOL    HW217748   0.973   3.405   0.417  0.3472 -0.1279  0.0632
 1924SOL     OW17749   8.372   7.516   5.228  0.1015  0.1214 -0.0517
 1924SOL    HW117750   8.390   7.464   5.150  0.4372  0.8513 -0.4733
 1924SOL    HW217751   8.458   7.529   5.268 -0.2800 -2.1512  1.7211
 1925SOL     OW17752   6.905  10.257   8.405 -0.8421  0.1331  0.2531
 1925SOL    HW117753   6.870  10.180   8.361 -1.1596 -0.1085  0.9112
 1925SOL    HW217754   6.890  10.240   8.498 -1.8580  1.4437  0.3584
 1926SOL     OW17755   0.131   4.049   7.077  0.2951 -0.2093 -0.3687
 1926SOL    HW117756   0.190   4.012   7.012 -0.2465 -0.8235 -0.5159
 1926SOL    HW217757   0.049   4.062   7.030  0.3652  0.8398 -0.2229
 1927SOL     OW17758   1.296   5.845   5.270  0.7380  0.5071  0.4267
 1927SOL    HW117759   1.294   5.937   5.242 -0.2063 -0.0161 -1.3607
 1927SOL    HW217760   1.233   5.841   5.342 -0.4075  0.9947 -0.5030
 1928SOL     OW17761   4.652   2.847   7.445 -0.3697 -0.0134 -0.2158
 1928SOL    HW117762   4.678   2.854   7.537 -0.3493 -1.1786 -0.1296
 1928SOL    HW217763   4.721   2.895   7.398 -0.2221  0.3343  0.3380
 1929SOL     OW17764   4.172   0.673  10.322  0.7056  0.2468 -0.3109
 1929SOL    HW117765   4.257   0.662  10.366 -0.0022  1.0264  1.3438
 1929SOL    HW217766   4.118   0.601  10.355  0.6947 -0.2448 -1.3572
 1930SOL     OW17767   5.291   3.633   2.347  0.0666  0.5536 -0.3088
 1930SOL    HW117768   5.373   3.641   2.396  0.8088  0.6916 -1.5431
 1930SOL    HW217769   5.241   3.711   2.371 -0.6651 -0.5335  2.0974
 1931SOL     OW17770   6.819   0.463   8.876 -0.9550 -0.0268 -0.2422
 1931SOL    HW117771   6.902   0.434   8.836 -0.9707 -1.6811  0.8239
 1931SOL    HW217772   6.753   0.410   8.832 -1.2316 -0.0585  0.2082
 1932SOL     OW17773   9.942   8.594   5.723 -0.3057  0.1839  0.2116
 1932SOL    HW117774   9.875   8.590   5.656  0.0253 -0.5629 -0.0751
 1932SOL    HW217775   9.905   8.546   5.797 -0.4930  0.6382  0.4203
 1933SOL     OW17776   8.298   9.038   8.768  0.5682 -0.2317  0.4423
 1933SOL    HW117777   8.223   9.022   8.825 -0.7471  1.0764 -0.8488
 1933SOL    HW217778   8.295   8.967   8.704  0.6288 -0.3325  0.5485
 1934SOL     OW17779   5.205   9.446   9.521 -0.1717 -0.0464 -0.5923
 1934SOL    HW117780   5.246   9.363   9.495  1.4220  0.1048  1.1685
 1934SOL    HW217781   5.265   9.513   9.490 -0.8644  0.3989 -0.9869
 1935SOL     OW17782  10.342   4.739   9.378  0.0024 -0.0437 -0.4530
 1935SOL    HW117783  10.321   4.661   9.328 -0.5499 -0.2735  0.1108
 1935SOL    HW217784  10.387   4.796   9.317  0.1284 -0.6759 -0.9574
 1936SOL     OW17785   7.326   5.269   3.702  0.1864  0.1555 -0.1753
 1936SOL    HW117786   7.248   5.264   3.647  0.0946  1.0158 -0.1304
 1936SOL    HW217787   7.366   5.353   3.680 -0.0691  0.7073  1.3535
 1937SOL     OW17788   5.750   6.881   5.923  0.4864  0.1587  0.3580
 1937SOL    HW117789   5.670   6.867   5.973  1.2567  1.6479  2.1323
 1937SOL    HW217790   5.820   6.845   5.977  1.1486 -0.1686 -0.6755
 1938SOL     OW17791   4.724   3.500   6.365 -0.3685 -0.1223  0.0573
 1938SOL    HW117792   4.736   3.410   6.334  1.4926 -0.1916  0.8291
 1938SOL    HW217793   4.806   3.545   6.340 -1.1501  1.2887 -0.0602
 1939SOL     OW17794   9.933   6.561   7.667  0.0853  0.2594 -0.0025
 1939SOL    HW117795   9.990   6.620   7.619  1.3037 -0.8094  0.0944
 1939SOL    HW217796   9.915   6.607   7.749  2.2022 -0.0676  0.6977
 1940SOL     OW17797   0.683   6.470   3.290  0.7312  0.1119  0.1985
 1940SOL    HW117798   0.670   6.385   3.248  0.3401 -0.0143  0.5664
 1940SOL    HW217799   0.614   6.525   3.255  1.2797  0.4278 -0.4108
 1941SOL     OW17800   7.951   5.565   9.161  0.6089  0.2264 -0.2600
 1941SOL    HW117801   7.949   5.580   9.066 -0.1843  0.8077 -0.1557
 1941SOL    HW217802   7.891   5.631   9.197  0.2084 -0.5825  0.5711
 1942SOL     OW17803   2.812   2.861   4.152 -0.7288  0.5539 -0.3417
 1942SOL    HW117804   2.866   2.909   4.214  0.0673 -0.7665  0.0169
 1942SOL    HW217805   2.874   2.811   4.100 -1.5834 -0.9496  0.0362
 1943SOL     OW17806   3.434   2.756   9.672  0.2530 -0.4402  0.3446
 1943SOL    HW117807   3.513   2.760   9.618  0.3264 -2.9513  0.1424
 1943SOL    HW217808   3.458   2.699   9.745 -0.5180  1.1502  1.8974
 1944SOL     OW17809   4.911   8.066   2.642  0.7599  0.0464 -0.2185
 1944SOL    HW117810   4.995   8.045   2.682  0.4953  0.4320  0.5439
 1944SOL    HW217811   4.913   8.020   2.558  1.6216 -0.1593 -0.0951
 1945SOL     OW17812   8.884   9.818   4.447  0.6939  0.2687  0.1870
 1945SOL    HW117813   8.910   9.897   4.400  0.9193 -0.4272 -0.9083
 1945SOL    HW217814   8.955   9.756   4.431 -0.1886 -0.6593 -0.2772
 1946SOL     OW17815   1.999   1.287   5.796 -0.9470 -0.5772 -0.1296
 1946SOL    HW117816   2.013   1.255   5.707 -1.5574  1.7866 -1.1752
 1946SOL    HW217817   2.060   1.360   5.805 -3.2766  1.4916  0.0094
 1947SOL     OW17818   9.765   0.418   4.998 -0.6880 -0.0657  0.9661
 1947SOL    HW117819   9.678   0.410   5.037 -1.3354  0.7154 -0.2442
 1947SOL    HW217820   9.750   0.463   4.915  0.5998 -1.6806 -0.2346
 1948SOL     OW17821  10.330   5.239   1.570  0.1299  0.1522  0.3957
 1948SOL    HW117822  10.235   5.247   1.563  0.1359 -0.7697 -1.5103
 1948SOL    HW217823  10.361   5.330   1.577 -0.7860  0.6817 -1.6086
 1949SOL     OW17824  10.067   0.342   9.959 -0.6829  0.0628 -0.0843
 1949SOL    HW117825  10.088   0.401   9.887 -0.0344 -0.3329 -0.2215
 1949SOL    HW217826  10.051   0.400  10.034 -0.8435  0.4465 -0.4117
 1950SOL     OW17827   2.409   0.871   4.832  0.4029  0.5243  0.5091
 1950SOL    HW117828   2.417   0.907   4.744  0.0169  1.0134  0.6752
 1950SOL    HW217829   2.433   0.778   4.822  0.9636  0.7197  0.0072
 1951SOL     OW17830   9.487   0.359   9.686  0.5403 -0.2620 -1.2162
 1951SOL    HW117831   9.531   0.427   9.635 -0.0198  0.9519 -0.1351
 1951SOL    HW217832   9.480   0.395   9.774 -0.1907 -1.5373 -0.7236
 1952SOL     OW17833   9.005   2.793   3.552  0.0669  0.2799  0.0364
 1952SOL    HW117834   9.023   2.855   3.623  0.3621  1.8995 -1.3725
 1952SOL    HW217835   9.092   2.765   3.522 -0.0639 -0.8253  0.6389
 1953SOL     OW17836   3.181   2.366   0.772  0.1129  0.1311  0.0689
 1953SOL    HW117837   3.111   2.326   0.720  1.2036 -0.7221 -0.7978
 1953SOL    HW217838   3.225   2.292   0.814  1.1900  0.5209 -0.3199
 1954SOL     OW17839   9.639   6.805   7.725 -0.3313 -0.4553 -0.5716
 1954SOL    HW117840   9.593   6.764   7.652 -0.0524 -1.5313 -0.1706
 1954SOL    HW217841   9.571   6.849   7.776 -0.6548 -0.4803 -0.9818
 1955SOL     OW17842  10.135   6.956   0.526  0.2876 -0.3699  0.5297
 1955SOL    HW117843  10.222   6.956   0.566  0.3437 -3.4125  0.6362
 1955SOL    HW217844  10.152   6.956   0.432  0.2534  1.9908  0.4592
 1956SOL     OW17845   1.454   8.787   7.220  0.0542  0.1383 -0.5355
 1956SOL    HW117846   1.416   8.795   7.308  2.2199 -1.5756  0.6766
 1956SOL    HW217847   1.447   8.875   7.183 -0.1748  1.1481  1.7010
 1957SOL     OW17848   8.843   0.203   3.077  0.2954  0.0117  0.5282
 1957SOL    HW117849   8.852   0.117   3.120  0.0227  0.8169  2.3059
 1957SOL    HW217850   8.927   0.216   3.033 -0.0180 -1.5894 -0.6384
 1958SOL     OW17851   6.084   8.401   1.727 -0.4330 -0.9763 -0.3042
 1958SOL    HW117852   6.077   8.365   1.639 -0.2720 -2.1662  0.1498
 1958SOL    HW217853   6.012   8.360   1.776 -0.2066 -0.7264  0.2489
 1959SOL     OW17854   9.790   1.552   8.120 -0.2100 -0.2422 -0.1797
 1959SOL    HW117855   9.754   1.527   8.035  0.9963 -2.4776 -0.1011
 1959SOL    HW217856   9.885   1.549   8.107 -0.0172  0.4852  0.9597
 1960SOL     OW17857   7.189   6.158   9.347 -0.3147 -0.0641 -0.1216
 1960SOL    HW117858   7.155   6.239   9.386  0.0339  0.8406 -1.6269
 1960SOL    HW217859   7.116   6.125   9.294  0.1605  0.3044 -1.0217
 1961SOL     OW17860   3.003   2.215   8.609  0.4765 -0.1474  0.3735
 1961SOL    HW117861   3.071   2.162   8.567  1.3474  0.7383  0.6179
 1961SOL    HW217862   3.040   2.303   8.612 -1.1531  0.6011 -0.4982
 1962SOL     OW17863   7.844   2.502   0.053  0.3553  0.0801  0.2369
 1962SOL    HW117864   7.817   2.584   0.094  1.5029  0.4028  0.3945
 1962SOL    HW217865   7.940   2.504   0.056  0.4798 -2.3860  2.6008
 1963SOL     OW17866   5.186   9.141   9.447  0.1891  0.0237  0.4990
 1963SOL    HW117867   5.218   9.058   9.483  0.6270 -0.1575 -0.2736
 1963SOL    HW217868   5.093   9.126   9.429  0.2445 -0.2660  0.4528
 1964SOL     OW17869   9.916   3.083   4.454 -0.8117 -0.9050  0.5122
 1964SOL    HW117870   9.869   3.035   4.523 -0.0074 -0.9419  1.0542
 1964SOL    HW217871   9.854   3.149   4.425 -1.3310 -1.1816  0.9622
 1965SOL     OW17872   6.360   9.713   4.725  0.5826  0.3222 -0.9443
 1965SOL    HW117873   6.269   9.710   4.754  0.6182 -0.6994 -0.9327
 1965SOL    HW217874   6.407   9.752   4.798  0.2056  0.6203 -0.8528
 1966SOL     OW17875   2.270   6.294   0.160 -0.4734  0.4919  0.1131
 1966SOL    HW117876   2.357   6.332   0.148 -0.8727  1.8772  1.3324
 1966SOL    HW217877   2.267   6.270   0.253 -1.2479  0.0357 -0.0239
 1967SOL     OW17878   7.384   2.300   3.994  0.0736 -0.0902  0.0925
 1967SOL    HW117879   7.449   2.231   3.989 -0.4154 -0.6578  1.1527
 1967SOL    HW217880   7.353   2.297   4.085 -0.4049  1.1071 -0.0091
 1968SOL     OW17881   1.457   3.719   4.359  0.5888 -0.4767 -0.2348
 1968SOL    HW117882   1.500   3.798   4.389 -0.2517  0.5997 -1.7265
 1968SOL    HW217883   1.524   3.671   4.310  0.9292 -0.3918  0.1497
 1969SOL     OW17884   9.961   7.574   9.329 -0.0128  0.2267  0.1963
 1969SOL    HW117885  10.017   7.632   9.381  2.2155 -1.2661 -0.4091
 1969SOL    HW217886   9.976   7.603   9.239 -0.5925  0.1036  0.0605
 1970SOL     OW17887   0.706   6.504   6.458 -0.2259 -0.1861 -0.1957
 1970SOL    HW117888   0.768   6.483   6.388  1.3400  0.1780  1.0154
 1970SOL    HW217889   0.751   6.477   6.538 -0.3278  2.8070  1.0015
 1971SOL     OW17890   7.163   3.373   2.304 -0.4115  0.2838 -0.4913
 1971SOL    HW117891   7.120   3.372   2.389 -2.2581  0.3655 -1.3853
 1971SOL    HW217892   7.234   3.437   2.314  0.3745 -0.7957  1.3870
 1972SOL     OW17893   9.047   9.546   8.381  0.2702  0.1830 -0.0530
 1972SOL    HW117894   9.003   9.464   8.404 -0.8781  0.7653 -0.1245
 1972SOL    HW217895   9.031   9.557   8.287  0.8320  0.2554 -0.1460
 1973SOL     OW17896   2.722   9.581   4.036  0.0967 -0.0176  0.6918
 1973SOL    HW117897   2.713   9.508   4.098 -0.2400  0.0963  0.7778
 1973SOL    HW217898   2.686   9.656   4.083  0.1543  0.1405  0.4827
 1974SOL     OW17899   9.840   1.301   2.171  0.0515 -0.7951  0.3943
 1974SOL    HW117900   9.840   1.248   2.092  0.7676 -1.3402  0.7444
 1974SOL    HW217901   9.792   1.380   2.148  0.1813 -0.9885 -0.5485
 1975SOL     OW17902   1.674  10.372   5.810  0.2756  0.1383  0.4167
 1975SOL    HW117903   1.613  10.360   5.737 -1.4396 -0.2672  1.8447
 1975SOL    HW217904   1.713  10.458   5.795  2.2526 -1.1160 -2.5223
 1976SOL     OW17905   1.497   9.475   6.644  0.3275  0.0024  0.1545
 1976SOL    HW117906   1.487   9.406   6.579 -0.5390 -0.0057  0.2790
 1976SOL    HW217907   1.571   9.448   6.697  0.3123 -0.5743 -0.1136
 1977SOL     OW17908   5.493   7.890   0.070 -0.8679 -0.1325 -0.2576
 1977SOL    HW117909   5.482   7.879  -0.025 -1.1834 -0.9743 -0.1290
 1977SOL    HW217910   5.533   7.809   0.099 -0.7823  0.1185  0.3367
 1978SOL     OW17911   8.688   1.631  10.093 -0.2481  0.2915 -0.0127
 1978SOL    HW117912   8.641   1.658  10.172 -0.0319 -0.2641  0.3131
 1978SOL    HW217913   8.755   1.698  10.081  0.6510 -0.3417  1.1110
 1979SOL     OW17914   4.874   8.066   4.230  0.2937  1.5538  0.8944
 1979SOL    HW117915   4.786   8.051   4.196  0.8480 -0.3460  0.1654
 1979SOL    HW217916   4.860   8.096   4.320 -1.1027  2.9890  0.2475
 1980SOL     OW17917   6.087   0.566   9.984 -0.2742  0.2091  0.0697
 1980SOL    HW117918   6.120   0.553  10.073  1.4978 -0.8854 -0.7095
 1980SOL    HW217919   6.027   0.493   9.970  3.2169 -2.7007 -1.2797
 1981SOL     OW17920   2.847   7.862   7.161 -0.0513 -0.3064 -0.1427
 1981SOL    HW117921   2.876   7.798   7.096  0.9069  1.5777 -1.6546
 1981SOL    HW217922   2.770   7.903   7.121 -0.3808 -0.1866  0.6026
 1982SOL     OW17923   3.151   6.765   3.039 -0.0605  0.1690  0.3741
 1982SOL    HW117924   3.204   6.721   2.972 -0.9036 -0.7172  0.2695
 1982SOL    HW217925   3.197   6.848   3.055  0.1881  0.3866 -1.2654
 1983SOL     OW17926   6.572   8.674   7.924 -0.2662 -0.2465 -0.8562
 1983SOL    HW117927   6.623   8.676   8.005  0.7371 -0.4960 -1.4565
 1983SOL    HW217928   6.483   8.696   7.951  0.2397  0.6530  0.1727
 1984SOL     OW17929  10.185  10.263   4.246 -0.2870  0.3458  0.1224
 1984SOL    HW117930  10.195  10.234   4.155  1.7468 -0.4339  0.5286
 1984SOL    HW217931  10.203  10.357   4.243 -1.1565  0.5128 -0.3858
 1985SOL     OW17932   6.324   7.057  10.158 -0.3051  0.8870 -0.0627
 1985SOL    HW117933   6.352   7.098  10.240  1.9336 -0.9660  0.2149
 1985SOL    HW217934   6.340   7.124  10.092  0.0666  1.6287  0.7426
 1986SOL     OW17935   8.775   3.190   8.840 -0.5060 -0.4147  0.4899
 1986SOL    HW117936   8.743   3.139   8.765  2.1484 -1.6526  0.0803
 1986SOL    HW217937   8.818   3.266   8.801 -0.1547 -0.4434  0.8136
 1987SOL     OW17938   8.009  10.289   0.852  0.0326  0.5082 -0.2758
 1987SOL    HW117939   7.976  10.200   0.844  0.6896  0.1228  0.9498
 1987SOL    HW217940   8.031  10.298   0.945  1.4468  1.4058 -0.6519
 1988SOL     OW17941   8.141   6.997   6.073  0.5666 -0.2454  0.3258
 1988SOL    HW117942   8.111   6.965   6.158 -2.8810  3.0230  0.6337
 1988SOL    HW217943   8.096   6.941   6.009 -1.6607  0.8875  0.8017
 1989SOL     OW17944  10.321   5.230   0.633 -0.0572  0.5408 -0.1388
 1989SOL    HW117945  10.318   5.153   0.577  0.7122 -1.8194  2.7636
 1989SOL    HW217946  10.272   5.204   0.712  0.3992  2.9544  1.0494
 1990SOL     OW17947   3.803   0.004   6.629  0.0782  0.5626  0.2351
 1990SOL    HW117948   3.732   0.065   6.607 -0.9457 -0.9247 -0.8104
 1990SOL    HW217949   3.786  -0.021   6.720 -1.1696 -0.2571 -0.1884
 1991SOL     OW17950   9.625   2.306   0.097 -0.1222 -0.0215 -0.1505
 1991SOL    HW117951   9.667   2.302   0.183 -1.5129  0.3553  0.5807
 1991SOL    HW217952   9.618   2.400   0.079 -0.9582 -0.0717 -0.0976
 1992SOL     OW17953  10.020   0.248   2.154 -0.0384 -0.1786  0.1297
 1992SOL    HW117954  10.102   0.274   2.196  1.6516  0.3432 -3.1440
 1992SOL    HW217955   9.967   0.327   2.153  1.5761  0.9932 -2.1299
 1993SOL     OW17956   0.152   8.795   8.923  0.2208  0.2258  0.0807
 1993SOL    HW117957   0.090   8.824   8.856  0.9218 -1.1448 -1.1981
 1993SOL    HW217958   0.235   8.834   8.897  1.1340 -2.5801 -1.5418
 1994SOL     OW17959   8.974   4.079   4.257 -0.0301 -0.3973  0.4643
 1994SOL    HW117960   8.966   4.007   4.194 -0.8649  0.1099 -0.0245
 1994SOL    HW217961   8.889   4.121   4.256  0.1398 -0.0050  1.4952
 1995SOL     OW17962   4.392   3.374   1.047  1.3980  0.0793  0.2219
 1995SOL    HW117963   4.420   3.330   0.966  2.8101  1.6475 -0.1882
 1995SOL    HW217964   4.327   3.438   1.018 -0.0320 -1.1053  0.7092
 1996SOL     OW17965   8.817   8.018   8.441  0.2873 -0.1882  0.2580
 1996SOL    HW117966   8.818   8.110   8.415  0.4190  0.0951  1.2031
 1996SOL    HW217967   8.886   8.011   8.508  1.0514 -1.2266 -0.5977
 1997SOL     OW17968   3.926   0.125   6.134  0.2178 -0.6014  0.6097
 1997SOL    HW117969   3.839   0.163   6.149  0.9074  1.1162  0.5674
 1997SOL    HW217970   3.952   0.089   6.219  0.6317  1.4975  1.4375
 1998SOL     OW17971   8.523   6.735   4.218 -0.2259 -0.2534  0.0407
 1998SOL    HW117972   8.543   6.683   4.296 -1.5285 -0.8669 -0.0136
 1998SOL    HW217973   8.590   6.803   4.217  2.1865 -2.4595 -0.4240
 1999SOL     OW17974   0.161   7.514  10.381 -0.4890  0.3811  0.8897
 1999SOL    HW117975   0.101   7.471  10.443 -0.8436  0.1269  0.3780
 1999SOL    HW217976   0.159   7.458  10.303 -0.9609  1.3268  0.2067
 2000SOL     OW17977   1.571   0.287   5.822  0.3414 -0.5642 -0.1571
 2000SOL    HW117978   1.612   0.273   5.737  1.2416  0.4162  0.0857
 2000SOL    HW217979   1.478   0.274   5.807  0.5922 -1.3901 -1.0652
 2001SOL     OW17980   7.764   7.017   3.835 -0.0526 -0.3234  0.3868
 2001SOL    HW117981   7.824   7.091   3.828  0.6989 -0.7807  1.6222
 2001SOL    HW217982   7.682   7.048   3.798  0.9850  0.2628 -1.5309
 2002SOL     OW17983   1.140   3.734   3.320  0.3409 -0.7976  0.2218
 2002SOL    HW117984   1.108   3.797   3.255  0.7365 -0.7045  0.1170
 2002SOL    HW217985   1.140   3.650   3.273 -1.6560 -1.1851  0.8036
 2003SOL     OW17986   8.278   1.592   6.697 -0.6412  0.3797 -0.4153
 2003SOL    HW117987   8.239   1.627   6.777  0.4978  0.6339  0.0436
 2003SOL    HW217988   8.359   1.641   6.686 -0.0054 -0.7300 -0.8517
 2004SOL     OW17989   5.097   5.084   7.824  0.3448 -0.2617  0.2309
 2004SOL    HW117990   5.011   5.066   7.862  0.4144 -1.2423 -0.0577
 2004SOL    HW217991   5.149   5.006   7.845  0.4948 -0.6681 -1.5527
 2005SOL     OW17992   1.390   9.692   6.708  0.0451  0.2714  0.0773
 2005SOL    HW117993   1.308   9.693   6.658 -0.3965 -0.4346  0.7675
 2005SOL    HW217994   1.435   9.612   6.680  0.0145  0.1176  0.4610
 2006SOL     OW17995   9.395   9.417   8.601 -0.5087  0.1001  0.0833
 2006SOL    HW117996   9.342   9.361   8.657 -0.8788  0.5507  0.1882
 2006SOL    HW217997   9.444   9.356   8.546 -1.2744 -0.3237 -0.1470
 2007SOL     OW17998   5.165  10.254  10.255 -0.0801 -0.2343 -0.1717
 2007SOL    HW117999   5.218  10.218  10.326  0.6511 -0.2196 -0.6937
 2007SOL    HW218000   5.085  10.201  10.255 -1.4125  1.6104  2.5101
 2008SOL     OW18001   6.217   8.134   7.341  0.1361  0.3055 -0.3436
 2008SOL    HW118002   6.209   8.154   7.248 -0.1729  0.6872 -0.2369
 2008SOL    HW218003   6.251   8.215   7.380  1.8674 -0.3631 -0.3631
 2009SOL     OW18004   9.936   3.141   3.862 -0.3152 -0.3379 -0.3852
 2009SOL    HW118005   9.855   3.192   3.856 -0.0683  0.0928 -0.1401
 2009SOL    HW218006   9.912   3.062   3.911 -0.5978 -0.2292 -0.3501
 2010SOL     OW18007   0.545   4.817   5.959  0.5907  0.0370 -0.5731
 2010SOL    HW118008   0.549   4.835   5.865 -0.4667 -0.8386 -0.8147
 2010SOL    HW218009   0.610   4.748   5.973  0.4610 -0.1207 -0.7444
 2011SOL     OW18010   6.341   6.280   8.448 -0.3211  0.6772  0.0764
 2011SOL    HW118011   6.358   6.279   8.354  0.0580 -0.8418  0.1371
 2011SOL    HW218012   6.252   6.245   8.456 -0.2187  0.4619  0.2941
 2012SOL     OW18013   9.778   8.947   7.202  0.8582  0.6012  0.7197
 2012SOL    HW118014   9.871   8.934   7.185  0.6692 -0.7636  0.6296
 2012SOL    HW218015   9.751   8.869   7.250  0.2702  2.0609  2.9257
 2013SOL     OW18016   2.045  10.018   6.009  0.1445  0.3221  0.0508
 2013SOL    HW118017   2.092  10.018   5.926 -0.5196  1.1955 -0.3404
 2013SOL    HW218018   1.990  10.096   6.006 -0.3996 -0.0021  1.0210
 2014SOL     OW18019   8.128   1.727   1.487  0.0056 -0.5161  0.0620
 2014SOL    HW118020   8.123   1.701   1.395  1.6253  0.6386 -0.3992
 2014SOL    HW218021   8.144   1.646   1.535 -0.4309 -1.0698 -0.7181
 2015SOL     OW18022   3.060   3.187   2.736 -0.1852 -1.0003 -0.1367
 2015SOL    HW118023   2.988   3.125   2.723  0.7873 -2.2095  0.0544
 2015SOL    HW218024   3.109   3.183   2.655  0.0542 -0.7007 -0.0056
 2016SOL     OW18025   3.749   4.187   1.033 -0.7374 -0.3119  0.5268
 2016SOL    HW118026   3.778   4.263   0.983  1.1182 -1.4211 -0.2037
 2016SOL    HW218027   3.737   4.219   1.122  0.2671  0.7935  0.2888
 2017SOL     OW18028   2.257   3.348   4.416  0.0750 -0.2689 -0.1672
 2017SOL    HW118029   2.325   3.414   4.403 -1.0278  1.0919  0.6636
 2017SOL    HW218030   2.202   3.356   4.338  1.2424 -1.9184 -1.2246
 2018SOL     OW18031   1.460   1.498   9.592 -0.2891  0.4710  0.1848
 2018SOL    HW118032   1.542   1.467   9.630 -0.5279  0.2564  0.5367
 2018SOL    HW218033   1.486   1.551   9.517  0.1652  0.2986  0.2186
 2019SOL     OW18034   1.226   7.661   0.004  0.4485  0.4565 -0.6407
 2019SOL    HW118035   1.252   7.621   0.088  1.8534  1.0686 -0.7433
 2019SOL    HW218036   1.132   7.645  -0.003  0.1533  1.0056  1.4051
 2020SOL     OW18037   2.440   1.393   7.258 -0.0869  0.4044 -0.4625
 2020SOL    HW118038   2.347   1.374   7.246 -0.0250  0.0043 -0.3223
 2020SOL    HW218039   2.484   1.347   7.186 -0.0611  1.1988 -0.9603
 2021SOL     OW18040   2.000   4.198   4.772 -0.2704  0.0422 -0.1526
 2021SOL    HW118041   1.988   4.104   4.779  1.3071 -0.2731 -1.2147
 2021SOL    HW218042   2.070   4.218   4.834 -0.7370  0.5596  0.2176
 2022SOL     OW18043   2.431   0.898   0.071  0.0238  0.1407  0.2135
 2022SOL    HW118044   2.525   0.896   0.054  0.0028 -1.0488  0.1808
 2022SOL    HW218045   2.391   0.898  -0.015 -0.0373 -3.4344  0.0982
 2023SOL     OW18046   4.685   9.741   7.567  0.3382  0.7119 -0.3866
 2023SOL    HW118047   4.663   9.800   7.639 -2.1856 -0.3667 -0.1543
 2023SOL    HW218048   4.621   9.670   7.574  1.2893 -0.4559 -2.5087
 2024SOL     OW18049   0.509   6.949   6.400 -0.1563  0.0064  0.3888
 2024SOL    HW118050   0.592   6.901   6.401  0.1103  0.4451 -0.2282
 2024SOL    HW218051   0.529   7.030   6.447  0.2120  0.8120 -1.0886
 2025SOL     OW18052   8.792   6.903   2.574 -0.2995  0.4475 -0.2076
 2025SOL    HW118053   8.856   6.844   2.533  0.4226  0.9588  0.1657
 2025SOL    HW218054   8.797   6.882   2.667 -0.2329  0.9150 -0.1043
 2026SOL     OW18055   8.737   8.874   5.603 -0.7421 -0.5527 -0.0875
 2026SOL    HW118056   8.829   8.865   5.627 -0.9120 -0.5749  0.5908
 2026SOL    HW218057   8.722   8.806   5.537  0.2740  0.9338 -1.9271
 2027SOL     OW18058   9.329   7.428   7.189 -0.5112 -0.2091  0.1768
 2027SOL    HW118059   9.403   7.459   7.137  0.8449 -0.7521  1.6933
 2027SOL    HW218060   9.356   7.443   7.280 -1.6558 -1.7618  0.8137
 2028SOL     OW18061   4.478   3.262   9.606  0.3137 -0.1543 -0.7681
 2028SOL    HW118062   4.484   3.324   9.679 -1.6606  0.7335 -1.2815
 2028SOL    HW218063   4.395   3.216   9.621  0.9459 -1.5073 -1.2964
 2029SOL     OW18064   4.906   1.067   0.656  0.6451  0.1763 -0.0290
 2029SOL    HW118065   4.840   1.059   0.725 -0.6993  0.3351 -1.2419
 2029SOL    HW218066   4.936   1.158   0.662  1.6266 -0.2020  1.2545
 2030SOL     OW18067   2.936   0.904   0.548 -0.2481 -0.2071 -0.1112
 2030SOL    HW118068   2.950   0.962   0.622 -0.0723  0.5227 -0.7043
 2030SOL    HW218069   2.869   0.947   0.495  1.2069  0.4228 -1.5237
 2031SOL     OW18070  10.189   2.769   4.880 -0.1349  0.2495 -0.3427
 2031SOL    HW118071  10.102   2.809   4.870 -0.1336  0.6488  1.0353
 2031SOL    HW218072  10.243   2.839   4.918  0.4156 -0.4339  0.1543
 2032SOL     OW18073   8.231   4.435   7.097  0.0158  0.3467  0.5688
 2032SOL    HW118074   8.295   4.392   7.153  1.1044  1.0678 -0.0912
 2032SOL    HW218075   8.258   4.412   7.008 -1.5878 -0.6477  0.3016
 2033SOL     OW18076   1.338   7.349   5.451 -0.2131 -0.1453  0.0846
 2033SOL    HW118077   1.399   7.339   5.524  2.0572  0.3700 -1.6455
 2033SOL    HW218078   1.346   7.441   5.425  0.2438 -0.6762 -1.7924
 2034SOL     OW18079   1.020   5.312   3.636 -0.6474  0.6755  0.4409
 2034SOL    HW118080   1.059   5.328   3.721  0.6841  1.8097 -0.3434
 2034SOL    HW218081   0.936   5.270   3.655  0.9469 -1.9732  2.1975
 2035SOL     OW18082   9.027   2.841   7.798  0.0018  0.0832 -0.5584
 2035SOL    HW118083   9.093   2.871   7.736  1.6512 -1.1083  0.5207
 2035SOL    HW218084   8.948   2.828   7.746  1.6182 -2.0053 -2.6942
 2036SOL     OW18085   9.381   1.442   8.353 -0.6940  0.2119 -0.1797
 2036SOL    HW118086   9.299   1.399   8.329 -1.3422  0.9961  0.5492
 2036SOL    HW218087   9.371   1.532   8.322 -0.6266  0.6382  0.9781
 2037SOL     OW18088   6.113   0.056   0.791 -0.1195 -0.1977 -0.0732
 2037SOL    HW118089   6.025   0.074   0.824 -0.0132 -0.2508  0.2456
 2037SOL    HW218090   6.170   0.117   0.839  0.0622 -0.4164 -0.0062
 2038SOL     OW18091   0.641   0.949   4.831 -0.7774 -0.2380 -0.3654
 2038SOL    HW118092   0.728   0.977   4.857 -0.8446  3.3987 -3.2912
 2038SOL    HW218093   0.655   0.898   4.751 -1.2763  0.5146 -0.9535
 2039SOL     OW18094   7.017   3.496   7.420 -0.1263 -0.5454 -0.0112
 2039SOL    HW118095   7.071   3.550   7.476  1.6083 -0.6873 -1.4541
 2039SOL    HW218096   7.047   3.516   7.331 -2.4877 -0.6149 -0.9008
 2040SOL     OW18097   5.540   2.731   8.560 -0.3168 -0.0375 -0.0096
 2040SOL    HW118098   5.590   2.652   8.541  0.1364  0.4721 -1.0147
 2040SOL    HW218099   5.451   2.711   8.533 -0.0913 -0.0248 -0.7867
 2041SOL     OW18100   3.873   8.288   8.791  0.1304 -0.3035  0.0270
 2041SOL    HW118101   3.814   8.337   8.734  0.3606  0.2711  0.2697
 2041SOL    HW218102   3.953   8.340   8.793  0.7682 -1.2243 -0.5376
 2042SOL     OW18103   2.090   5.350   1.068 -0.5343  0.3539  0.8270
 2042SOL    HW118104   2.093   5.346   1.164  1.0400  0.9932  0.8329
 2042SOL    HW218105   2.039   5.428   1.048 -1.3959 -0.1184  1.1168
 2043SOL     OW18106   6.411   8.021   1.914  0.5276  0.6242 -0.0457
 2043SOL    HW118107   6.350   8.091   1.937 -0.2993 -0.0693 -0.0572
 2043SOL    HW218108   6.396   8.006   1.820  1.2657  0.9581 -0.2234
 2044SOL     OW18109   6.459   0.061   0.914  0.5274 -0.2479  0.0759
 2044SOL    HW118110   6.543   0.030   0.947 -0.2822 -0.8198  1.7099
 2044SOL    HW218111   6.420  -0.016   0.872  0.8793  0.0659 -0.8495
 2045SOL     OW18112   9.890   2.963   9.286 -0.1730  0.0649 -0.0135
 2045SOL    HW118113   9.897   3.056   9.308 -4.7055  0.9290 -1.0576
 2045SOL    HW218114   9.950   2.951   9.213  1.1690  1.9106  0.7053
 2046SOL     OW18115   2.877   2.936   9.529 -0.0458 -0.2786 -0.0422
 2046SOL    HW118116   2.929   3.008   9.565 -0.1316 -1.0156  1.6054
 2046SOL    HW218117   2.931   2.902   9.457  0.6703  0.4582  0.1226
 2047SOL     OW18118   1.802   6.426   0.543  0.2376 -0.0343  0.2529
 2047SOL    HW118119   1.827   6.488   0.474  1.8870 -1.3899 -0.4235
 2047SOL    HW218120   1.745   6.477   0.601  0.7072  1.8161 -0.8267
 2048SOL     OW18121   9.028   6.138   0.584  0.4432  0.1905 -0.1893
 2048SOL    HW118122   8.937   6.166   0.581  0.4939  0.2760 -2.6144
 2048SOL    HW218123   9.074   6.200   0.528  1.4510 -1.6669 -1.5224
 2049SOL     OW18124   0.291   5.651   6.151  0.3179 -0.1689 -0.0456
 2049SOL    HW118125   0.349   5.580   6.177 -0.9303 -0.8418  1.0132
 2049SOL    HW218126   0.218   5.608   6.107 -0.4693  0.4328  0.6322
 2050SOL     OW18127   4.717   6.657   7.938 -0.5821 -0.5237 -0.2365
 2050SOL    HW118128   4.666   6.737   7.951  0.8887  0.2767  0.9844
 2050SOL    HW218129   4.715   6.643   7.843 -0.2400  1.4314 -0.5774
 2051SOL     OW18130   8.466   9.745   1.504  0.1741  0.0665  0.1309
 2051SOL    HW118131   8.400   9.681   1.478 -0.5998  1.5774 -1.9299
 2051SOL    HW218132   8.497   9.782   1.421  0.0661  2.8597  1.2367
 2052SOL     OW18133   5.792   0.136   2.395  0.4742 -0.4073  0.0068
 2052SOL    HW118134   5.752   0.084   2.466  2.2490 -0.7591  0.8148
 2052SOL    HW218135   5.850   0.074   2.350 -0.5089 -0.1431 -1.6976
 2053SOL     OW18136  10.317   5.750   3.929 -0.3257  0.1271  0.3880
 2053SOL    HW118137  10.344   5.716   3.844  3.6344  0.3988  1.3216
 2053SOL    HW218138  10.296   5.842   3.913 -3.0475 -0.5977 -0.7552
 2054SOL     OW18139   0.974   7.245   5.813 -0.3328  0.8984 -0.4675
 2054SOL    HW118140   0.957   7.286   5.728  0.3936 -0.6449 -1.3807
 2054SOL    HW218141   1.029   7.169   5.793  0.5557  0.9709  1.4749
 2055SOL     OW18142   2.613   7.198   4.684  0.1297  0.0853 -0.2589
 2055SOL    HW118143   2.697   7.166   4.652 -0.2942  0.6286 -2.0148
 2055SOL    HW218144   2.548   7.143   4.640 -0.4836  1.0018 -0.5274
 2056SOL     OW18145   8.112   9.267   7.550  0.3516 -0.1315 -0.0753
 2056SOL    HW118146   8.192   9.319   7.555  0.7473 -0.6773 -0.5936
 2056SOL    HW218147   8.053   9.319   7.494  1.5670 -1.2316 -2.5598
 2057SOL     OW18148   9.545   6.054   7.591 -0.2262 -0.1558 -0.6837
 2057SOL    HW118149   9.450   6.043   7.587 -0.3025  0.1220  0.0618
 2057SOL    HW218150   9.558   6.149   7.587 -0.0823 -0.1014  0.5651
 2058SOL     OW18151   2.255   2.494   0.097 -0.7065  0.4048 -0.4710
 2058SOL    HW118152   2.188   2.519   0.161  1.2824 -0.0661  1.9226
 2058SOL    HW218153   2.304   2.423   0.139  2.5836  2.0546 -1.1979
 2059SOL     OW18154   1.220   8.566   6.825  0.0480 -0.4093  0.3886
 2059SOL    HW118155   1.197   8.475   6.845 -0.5171 -0.0575  1.4443
 2059SOL    HW218156   1.313   8.571   6.845 -0.2154 -0.4190  1.7664
 2060SOL     OW18157   6.502   6.756  10.298 -0.4158 -0.3351 -0.5660
 2060SOL    HW118158   6.517   6.848  10.273 -1.6125  0.2258  0.6717
 2060SOL    HW218159   6.588   6.725  10.328  0.2297  0.0485 -1.9050
 2061SOL     OW18160   2.275   9.313   3.961  0.2911 -0.0382  0.5430
 2061SOL    HW118161   2.287   9.262   3.881  1.1432  0.8069  0.1089
 2061SOL    HW218162   2.197   9.276   4.002 -1.5412  0.9547 -1.8060
 2062SOL     OW18163   6.736   7.860   9.690 -0.6568  0.4471 -0.0153
 2062SOL    HW118164   6.675   7.797   9.730  0.6963  0.1846  1.7192
 2062SOL    HW218165   6.686   7.942   9.687 -1.7983 -0.2279 -0.5894
 2063SOL     OW18166  10.244   3.577   6.077 -0.1213 -0.2952  0.4934
 2063SOL    HW118167  10.228   3.536   5.992  0.3206 -1.4377  0.9447
 2063SOL    HW218168  10.172   3.547   6.133  0.8693 -1.4966  1.1700
 2064SOL     OW18169   6.285   5.206   8.280 -0.7519 -0.5498  0.1445
 2064SOL    HW118170   6.193   5.221   8.259 -0.8798 -0.3224  0.8402
 2064SOL    HW218171   6.285   5.122   8.326 -0.5059 -0.9283 -0.5288
 2065SOL     OW18172   2.171   3.001   9.013  0.0703 -0.6316 -0.1803
 2065SOL    HW118173   2.104   2.936   8.992 -2.1280  1.1532  0.8509
 2065SOL    HW218174   2.137   3.083   8.977  1.6781  0.3646  0.4475
 2066SOL     OW18175   2.758   6.042   7.038  0.2366  0.4321  0.5842
 2066SOL    HW118176   2.794   6.104   7.102  0.4349  0.1173  0.7812
 2066SOL    HW218177   2.697   6.094   6.986  1.7794  1.2835 -0.4933
 2067SOL     OW18178   9.626   7.289   1.532 -0.2684 -0.4876 -0.1127
 2067SOL    HW118179   9.561   7.221   1.512  0.4807 -1.9147  1.9344
 2067SOL    HW218180   9.696   7.274   1.470 -0.0727 -1.6905  0.3721
 2068SOL     OW18181   8.360   8.612   1.728  0.1185 -0.5840 -0.3391
 2068SOL    HW118182   8.452   8.607   1.756  0.4180  0.7943 -0.9815
 2068SOL    HW218183   8.325   8.687   1.776 -0.0357  0.2851 -1.7625
 2069SOL     OW18184   3.336   4.156   2.032 -0.0750 -0.4445  0.3370
 2069SOL    HW118185   3.412   4.173   1.977 -0.2794 -1.1551 -0.1713
 2069SOL    HW218186   3.290   4.085   1.989 -0.6755 -0.4718  0.9995
 2070SOL     OW18187   4.901   2.117   8.464 -0.3886 -0.4780  0.1442
 2070SOL    HW118188   4.911   2.200   8.418 -0.4904 -0.6008 -0.1033
 2070SOL    HW218189   4.808   2.094   8.453 -0.5968 -0.1382  1.0504
 2071SOL     OW18190   7.218   0.215   7.442  0.2797 -0.1617 -0.1573
 2071SOL    HW118191   7.160   0.177   7.508  0.2009  1.8782  1.0406
 2071SOL    HW218192   7.198   0.167   7.362 -0.7044 -1.7053  0.9527
 2072SOL     OW18193   4.649   2.784   0.412  1.3735 -0.1180  0.0176
 2072SOL    HW118194   4.599   2.711   0.450  1.5446  0.9142  2.3496
 2072SOL    HW218195   4.686   2.747   0.332 -1.7069 -1.4330 -0.9876
 2073SOL     OW18196   2.590   1.958   7.185  0.1924  0.2180  0.0993
 2073SOL    HW118197   2.640   1.942   7.264  0.9217 -0.1230 -0.4213
 2073SOL    HW218198   2.572   1.871   7.149  2.5174  0.3855 -1.7198
 2074SOL     OW18199   9.014   3.583   2.938  0.2785  0.3220 -0.4875
 2074SOL    HW118200   9.099   3.543   2.955  0.4741 -0.6515 -3.2058
 2074SOL    HW218201   8.963   3.514   2.896 -1.2649  1.3814 -0.4441
 2075SOL     OW18202   6.985   2.072   7.770 -0.2763 -1.0687 -0.3538
 2075SOL    HW118203   7.034   1.990   7.764  1.8849  0.1176 -0.1960
 2075SOL    HW218204   6.976   2.089   7.864  2.8541  0.7282 -0.2294
 2076SOL     OW18205   1.188   4.312   8.366 -0.4773 -0.1664  0.0187
 2076SOL    HW118206   1.247   4.245   8.401  0.1266 -0.0378 -0.7317
 2076SOL    HW218207   1.101   4.280   8.387 -0.1728 -0.8371  0.2934
 2077SOL     OW18208   1.157   0.536   5.807  0.0887 -0.6671  0.3070
 2077SOL    HW118209   1.213   0.469   5.766  0.1095  0.0577 -0.8845
 2077SOL    HW218210   1.068   0.506   5.790  0.0389 -2.1550  2.7514
 2078SOL     OW18211   0.285   4.589   1.623  0.5247  0.0193  0.2386
 2078SOL    HW118212   0.216   4.630   1.571 -1.0337 -1.4010  1.1122
 2078SOL    HW218213   0.279   4.632   1.708  1.0677  0.2331  0.1741
 2079SOL     OW18214   9.801   7.417   4.532  0.4575  0.0482  0.1253
 2079SOL    HW118215   9.816   7.427   4.626 -1.1859 -0.1429  0.4468
 2079SOL    HW218216   9.758   7.499   4.506  2.5858  0.9006 -0.8776
 2080SOL     OW18217   7.470   4.704   5.656 -0.1374 -0.0473  0.0459
 2080SOL    HW118218   7.541   4.713   5.592  0.3241 -0.2020  0.5265
 2080SOL    HW218219   7.437   4.793   5.669 -0.4910 -0.0680 -0.6911
 2081SOL     OW18220   2.148   9.494   0.415 -0.0104  0.1299  0.8568
 2081SOL    HW118221   2.070   9.525   0.461  0.2120 -0.7205  1.8764
 2081SOL    HW218222   2.207   9.569   0.414 -0.0466  0.1927  1.9523
 2082SOL     OW18223   1.517   3.870   6.623 -0.2938  0.6938 -0.5474
 2082SOL    HW118224   1.529   3.813   6.547 -2.3509 -0.5963  0.0166
 2082SOL    HW218225   1.461   3.941   6.591 -0.7452  0.4172 -0.3884
 2083SOL     OW18226   2.541   6.153   9.494 -0.0232 -0.2974 -0.1429
 2083SOL    HW118227   2.548   6.247   9.514  1.0046 -0.4741  0.4443
 2083SOL    HW218228   2.482   6.148   9.419  1.8422  1.0500 -1.8198
 2084SOL     OW18229   6.397   6.819   5.859 -0.0886 -0.8486 -0.5476
 2084SOL    HW118230   6.371   6.902   5.900  3.8388  1.4735 -2.2196
 2084SOL    HW218231   6.346   6.816   5.778 -0.7482 -0.4408 -0.1622
 2085SOL     OW18232   9.443   3.527   2.930  0.1644  0.0777 -0.2014
 2085SOL    HW118233   9.377   3.472   2.973  0.4936 -0.3137 -0.1951
 2085SOL    HW218234   9.520   3.519   2.986  0.0806  0.9029  0.0470
 2086SOL     OW18235   4.959   4.439   6.963  0.0320  0.4488  0.6629
 2086SOL    HW118236   5.008   4.441   7.045  1.0349  0.5787  0.0738
 2086SOL    HW218237   5.019   4.400   6.900 -0.7207  0.3683 -0.0277
 2087SOL     OW18238   5.784   2.844   5.072  0.0214  0.4114  0.0605
 2087SOL    HW118239   5.751   2.757   5.096  0.1331 -0.0755 -1.4729
 2087SOL    HW218240   5.736   2.904   5.129 -0.5833 -0.5956  0.6409
 2088SOL     OW18241   4.433   0.791   6.873  0.2203  0.0510 -0.2179
 2088SOL    HW118242   4.355   0.845   6.865  1.2554  1.6132 -0.0701
 2088SOL    HW218243   4.427   0.728   6.801  0.5059  2.3697 -2.3936
 2089SOL     OW18244   3.099   6.188   4.857 -0.4115 -0.9327 -0.0037
 2089SOL    HW118245   3.060   6.267   4.893  0.9917  0.6263 -1.6670
 2089SOL    HW218246   3.180   6.176   4.907 -0.2022 -0.7966 -0.3018
 2090SOL     OW18247   1.900   1.528   6.558  0.4189 -0.2460 -0.5844
 2090SOL    HW118248   1.930   1.536   6.648  0.4969 -1.1763 -0.5227
 2090SOL    HW218249   1.858   1.442   6.554 -1.6561  0.7037 -0.8372
 2091SOL     OW18250   8.375   1.279   7.642  0.2856 -0.0176  0.3567
 2091SOL    HW118251   8.450   1.226   7.670 -0.1799 -1.6639 -1.3178
 2091SOL    HW218252   8.414   1.359   7.607  1.2970 -0.8594 -0.5215
 2092SOL     OW18253   8.866   6.180   7.423  0.2005  0.1950 -0.0541
 2092SOL    HW118254   8.888   6.273   7.418 -1.2055  0.5356 -0.1213
 2092SOL    HW218255   8.934   6.137   7.372  0.6488  1.2183 -0.3461
 2093SOL     OW18256   5.295   8.037   3.472 -0.0048  0.4869 -0.3340
 2093SOL    HW118257   5.216   8.088   3.453 -0.5799 -1.1718 -2.9303
 2093SOL    HW218258   5.367   8.100   3.467 -1.0414  1.9880  1.8461
 2094SOL     OW18259   5.045   1.273   9.119 -0.2345 -0.2400 -0.7427
 2094SOL    HW118260   4.997   1.217   9.180  2.1537 -0.6650  0.9260
 2094SOL    HW218261   4.998   1.356   9.121 -1.7827 -1.0816 -0.4726
 2095SOL     OW18262   4.476  10.249   2.333  0.3521  0.3097 -0.1910
 2095SOL    HW118263   4.522  10.287   2.258 -0.0148 -0.5310 -0.8530
 2095SOL    HW218264   4.511  10.296   2.408  2.0275 -0.0191 -0.7098
 2096SOL     OW18265   2.609   9.619   4.793  0.2402 -0.1812 -0.3845
 2096SOL    HW118266   2.666   9.583   4.861 -1.2415 -1.2190  0.3696
 2096SOL    HW218267   2.661   9.689   4.753  1.4186  0.0065  1.3484
 2097SOL     OW18268  10.126   6.533   8.242  0.3108  0.2463 -0.0647
 2097SOL    HW118269  10.121   6.544   8.337 -0.5736  0.7456 -0.1612
 2097SOL    HW218270  10.183   6.457   8.230 -0.4227 -0.4909  0.9118
 2098SOL     OW18271   7.942   9.635   2.984 -0.1349  0.8317 -0.4011
 2098SOL    HW118272   7.901   9.558   2.944  0.6617  0.4193 -0.4380
 2098SOL    HW218273   7.888   9.709   2.954 -1.0894  0.2719 -0.1241
 2099SOL     OW18274   8.797   6.194   0.042  0.9995  0.5130  0.4090
 2099SOL    HW118275   8.792   6.277  -0.005  1.8204 -0.5866 -1.7459
 2099SOL    HW218276   8.876   6.202   0.095  1.5696  0.7872 -0.4605
 2100SOL     OW18277   0.880   2.435   2.388 -0.1760  0.1541 -0.0263
 2100SOL    HW118278   0.820   2.440   2.314 -1.9034  0.7706  1.3535
 2100SOL    HW218279   0.938   2.510   2.378 -1.5689  1.2920  0.1975
 2101SOL     OW18280   2.482   3.996   8.845 -0.2073 -0.0292  0.0650
 2101SOL    HW118281   2.452   4.031   8.929  0.0960  0.1676  0.0936
 2101SOL    HW218282   2.421   4.032   8.781 -0.3897 -0.1127  0.1921
 2102SOL     OW18283   2.781   0.593   9.776 -0.3517  0.0532 -0.0865
 2102SOL    HW118284   2.842   0.666   9.766 -1.4210  0.7234 -2.3261
 2102SOL    HW218285   2.754   0.596   9.868  0.4675  1.7662  0.1261
 2103SOL     OW18286   1.136   8.960   3.076 -0.0898  0.5147 -0.2907
 2103SOL    HW118287   1.201   8.895   3.102  0.1873  0.3109 -1.4457
 2103SOL    HW218288   1.127   9.016   3.153  1.5262  0.6009 -0.1255
 2104SOL     OW18289   2.112   5.224   6.862 -0.1981 -0.2190 -0.3012
 2104SOL    HW118290   2.182   5.279   6.826 -0.8661 -0.9032 -2.7961
 2104SOL    HW218291   2.046   5.286   6.894  0.4340  0.4096 -0.1954
 2105SOL     OW18292   4.988   2.597   0.348 -0.3885  0.2033 -0.0308
 2105SOL    HW118293   4.978   2.508   0.315 -1.5932  0.4221 -0.3066
 2105SOL    HW218294   4.924   2.648   0.298  1.1486  1.4765 -0.7968
 2106SOL     OW18295   0.695   7.194   1.150  0.3028  0.1521  0.2605
 2106SOL    HW118296   0.609   7.153   1.139  0.0576  0.5342  0.7140
 2106SOL    HW218297   0.748   7.126   1.193 -0.4122  0.6372  2.0075
 2107SOL     OW18298   9.323   1.574  10.285  0.0937 -0.1781  0.1008
 2107SOL    HW118299   9.419   1.569  10.279  0.3006  1.4681  1.2209
 2107SOL    HW218300   9.306   1.594  10.377 -1.1610  1.9434 -0.5165
 2108SOL     OW18301   1.666   5.032   7.751 -0.3016 -0.2334 -0.1611
 2108SOL    HW118302   1.685   5.119   7.786  0.4965 -1.2358  2.1654
 2108SOL    HW218303   1.737   4.977   7.785 -2.3413 -2.3404  0.9755
 2109SOL     OW18304   2.700   8.452   2.195  0.1925  0.4383  0.1955
 2109SOL    HW118305   2.745   8.453   2.110  0.4330  2.7258  0.2923
 2109SOL    HW218306   2.635   8.382   2.187  2.1980 -1.4593 -0.7595
 2110SOL     OW18307   7.486   9.376   4.748 -0.4549  0.1312 -0.1372
 2110SOL    HW118308   7.493   9.281   4.737 -2.8385 -0.2144  0.7727
 2110SOL    HW218309   7.546   9.396   4.819 -0.8114 -0.9203  0.4923
 2111SOL     OW18310   0.427   2.492   8.309  0.2157 -0.6490  0.2249
 2111SOL    HW118311   0.451   2.460   8.396 -2.3345 -0.6880  0.9851
 2111SOL    HW218312   0.363   2.560   8.325 -0.8454 -1.1357 -1.6351
 2112SOL     OW18313   5.905   0.334  10.040  0.5618 -0.2065  0.5037
 2112SOL    HW118314   5.909   0.277   9.964  0.1901 -0.6541  0.8124
 2112SOL    HW218315   5.954   0.288  10.108  0.9569  0.2231  0.5192
 2113SOL     OW18316   5.418   0.437   0.619 -0.6163 -0.0975  0.1933
 2113SOL    HW118317   5.452   0.393   0.541 -2.3059 -0.7188 -0.2432
 2113SOL    HW218318   5.325   0.414   0.621 -0.6750  0.0785  2.2727
 2114SOL     OW18319   4.257   1.047   6.395  0.0646  0.7459  0.2279
 2114SOL    HW118320   4.224   0.961   6.419 -0.9350  1.3290  1.0394
 2114SOL    HW218321   4.231   1.059   6.304  0.7864 -0.0614 -0.0977
 2115SOL     OW18322   9.389   2.855   8.254 -0.2079 -0.1979  0.0015
 2115SOL    HW118323   9.453   2.902   8.308  0.6469 -0.3077 -0.8850
 2115SOL    HW218324   9.324   2.823   8.316  0.1085  0.7037  0.8158
 2116SOL     OW18325   9.163   1.985   1.626  0.0167  0.3251  0.2319
 2116SOL    HW118326   9.191   2.075   1.608  0.8042  0.4565  1.9277
 2116SOL    HW218327   9.110   1.993   1.705 -1.0007 -0.5601 -0.3340
 2117SOL     OW18328   4.754   7.391   9.042  0.2070  0.3669 -0.6949
 2117SOL    HW118329   4.669   7.355   9.064  0.8710 -0.8630 -0.0252
 2117SOL    HW218330   4.812   7.362   9.113  1.0962  1.5044 -0.9243
 2118SOL     OW18331   4.154   0.773   3.221 -0.6561  0.1341 -0.1403
 2118SOL    HW118332   4.242   0.748   3.191 -0.9690 -0.6304 -0.4276
 2118SOL    HW218333   4.100   0.771   3.142 -1.0127  0.2411  0.1000
 2119SOL     OW18334   5.675   7.207   8.443  0.1777 -0.3373 -0.0704
 2119SOL    HW118335   5.623   7.153   8.384 -0.3375 -1.3301  1.2234
 2119SOL    HW218336   5.666   7.296   8.409  2.8975 -1.1672 -3.6343
 2120SOL     OW18337   6.406   6.943   1.675  0.0733 -0.6875 -0.2645
 2120SOL    HW118338   6.422   6.853   1.703 -0.0748 -0.5086  0.4100
 2120SOL    HW218339   6.364   6.934   1.590 -0.3806 -1.2672  0.0131
 2121SOL     OW18340   5.141   3.922   8.239 -0.1947 -0.1768  0.6767
 2121SOL    HW118341   5.137   3.996   8.178 -5.5589  1.3105  2.3292
 2121SOL    HW218342   5.105   3.848   8.189  0.0162 -0.2686  0.6570
 2122SOL     OW18343   9.236   2.750   2.937  0.1614  0.2475  0.3425
 2122SOL    HW118344   9.203   2.746   3.027  0.6113  0.0751  0.5016
 2122SOL    HW218345   9.296   2.825   2.937 -0.0576  0.4259  0.1100
 2123SOL     OW18346   6.161  10.134   9.662  0.1687  0.1308 -0.3360
 2123SOL    HW118347   6.122  10.047   9.652  1.5334 -0.5648  0.1932
 2123SOL    HW218348   6.206  10.150   9.580  0.8172 -0.1348 -0.0363
 2124SOL     OW18349   4.614   2.661  10.050  0.2587 -0.1343 -0.1299
 2124SOL    HW118350   4.655   2.697   9.971  2.2814  0.2108  1.0013
 2124SOL    HW218351   4.553   2.595  10.017 -2.9953  3.5171 -2.2420
 2125SOL     OW18352   1.277   6.268   0.207 -0.0592  0.3675  0.3323
 2125SOL    HW118353   1.242   6.199   0.150 -0.1046  1.2814 -0.7925
 2125SOL    HW218354   1.326   6.325   0.148  1.4919  0.3296  1.5257
 2126SOL     OW18355   9.128   3.770   2.162  0.1041  0.3380  0.0002
 2126SOL    HW118356   9.081   3.728   2.234 -1.0439  0.1889 -0.8051
 2126SOL    HW218357   9.221   3.753   2.181 -0.2363 -0.8273  0.7581
 2127SOL     OW18358   8.729   8.908   9.870 -0.1366  0.5039 -0.1552
 2127SOL    HW118359   8.728   8.908   9.966  0.8910 -0.9333 -0.1197
 2127SOL    HW218360   8.637   8.898   9.845 -0.2933 -0.3251  0.7021
 2128SOL     OW18361   4.458   9.109   3.019  0.3107  0.2986  0.0702
 2128SOL    HW118362   4.485   9.052   2.947  1.4724 -1.4102  1.7772
 2128SOL    HW218363   4.415   9.050   3.081 -1.8151  1.9336  0.2737
 2129SOL     OW18364   5.414   4.054   4.453 -0.0462 -0.8136 -0.3861
 2129SOL    HW118365   5.380   4.094   4.372  2.0784 -0.2747 -1.0709
 2129SOL    HW218366   5.416   3.961   4.434  0.3997 -0.6941 -0.9649
 2130SOL     OW18367   1.555   8.628   3.270  0.0697  0.2909 -0.1696
 2130SOL    HW118368   1.500   8.639   3.193  0.7536 -0.5985 -0.8068
 2130SOL    HW218369   1.637   8.672   3.248 -0.1516  1.0777  0.5312
 2131SOL     OW18370   3.292   1.473   9.815 -0.3283  0.4297 -0.1073
 2131SOL    HW118371   3.281   1.476   9.720 -0.5589 -1.4207 -0.1748
 2131SOL    HW218372   3.211   1.512   9.849 -2.2308 -2.6858 -0.6994
 2132SOL     OW18373   9.160   8.839   6.114 -0.1417  0.4469  0.1542
 2132SOL    HW118374   9.231   8.842   6.050 -0.0410  2.8140  0.2896
 2132SOL    HW218375   9.080   8.841   6.061 -0.0625  2.9987  0.0238
 2133SOL     OW18376   8.072  10.309   7.249 -0.2750  0.3318  0.0814
 2133SOL    HW118377   8.094  10.401   7.238 -1.0534  0.5075 -0.0179
 2133SOL    HW218378   7.989  10.309   7.297 -0.9203 -0.2931 -0.9910
 2134SOL     OW18379   9.635   6.667   1.573  0.1012 -0.5933  0.0647
 2134SOL    HW118380   9.698   6.629   1.634  0.1412  0.8623  0.9876
 2134SOL    HW218381   9.577   6.720   1.629  0.4510  1.2089 -1.1870
 2135SOL     OW18382   3.337   2.132   8.306  0.2792  0.1135  0.4314
 2135SOL    HW118383   3.386   2.196   8.358 -0.0789  0.0172  0.8972
 2135SOL    HW218384   3.284   2.085   8.371 -1.4368  1.0995 -0.1954
 2136SOL     OW18385   0.705   6.725   8.840  0.3195  0.0006  0.4683
 2136SOL    HW118386   0.617   6.688   8.840  0.8132 -1.2354 -0.2869
 2136SOL    HW218387   0.703   6.792   8.909 -1.4594  0.6635 -0.1924
 2137SOL     OW18388   9.323   3.031   6.449 -0.0151  0.3109 -0.3286
 2137SOL    HW118389   9.285   3.083   6.378 -2.5909  0.1175  0.8036
 2137SOL    HW218390   9.343   2.947   6.409 -1.8209  0.0589 -0.8099
 2138SOL     OW18391   0.991   0.384   2.499 -0.6568 -0.2904 -0.1510
 2138SOL    HW118392   0.951   0.400   2.584 -2.5395 -0.0269 -1.0269
 2138SOL    HW218393   0.931   0.322   2.456  0.6068 -0.9314 -1.0383
 2139SOL     OW18394   6.989   7.634   8.049  0.4244 -0.0500  0.0504
 2139SOL    HW118395   6.987   7.695   7.975  1.3520  0.3721  0.3553
 2139SOL    HW218396   6.936   7.560   8.021  0.6421  0.1698 -0.9781
 2140SOL     OW18397  10.009   6.442   5.259  0.4411 -0.0715 -0.1455
 2140SOL    HW118398  10.065   6.455   5.183  0.6051 -0.0873 -0.0274
 2140SOL    HW218399   9.965   6.526   5.271  0.3971 -0.0769 -0.2716
 2141SOL     OW18400   6.270   2.836   2.419 -0.3545  0.1859 -0.1216
 2141SOL    HW118401   6.272   2.929   2.442 -0.8789  0.3681 -0.7959
 2141SOL    HW218402   6.214   2.797   2.486  0.2613  0.2661  0.4522
 2142SOL     OW18403   4.326   2.259   2.851 -0.6468  0.1621  0.0524
 2142SOL    HW118404   4.274   2.288   2.776 -0.3560  0.6783  0.0430
 2142SOL    HW218405   4.398   2.208   2.812  0.0227  1.1908 -0.1083
 2143SOL     OW18406   5.329   0.546   4.046  0.1343 -0.7618  0.0284
 2143SOL    HW118407   5.249   0.587   4.076  1.3866  0.0712  2.5806
 2143SOL    HW218408   5.362   0.604   3.977 -1.3778 -1.1050 -1.0307
 2144SOL     OW18409   7.531   4.281   6.938  0.0732 -0.4816 -0.1489
 2144SOL    HW118410   7.531   4.374   6.962  0.4690 -0.7096  0.7968
 2144SOL    HW218411   7.511   4.235   7.020  1.9272 -1.3223 -0.1185
 2145SOL     OW18412   5.916  10.052   5.393  0.4626 -0.0176 -0.4507
 2145SOL    HW118413   6.000  10.012   5.413 -0.1670 -0.8916  0.5669
 2145SOL    HW218414   5.855   9.979   5.390 -0.7503  0.8118  1.5760
 2146SOL     OW18415   8.349   8.183   7.450 -0.0950 -0.2430  0.2188
 2146SOL    HW118416   8.369   8.268   7.490  1.8020 -0.8623  0.6666
 2146SOL    HW218417   8.379   8.192   7.359  0.9943 -0.7343  0.5237
 2147SOL     OW18418   5.279   0.638   1.448  0.2561  0.1309  0.2826
 2147SOL    HW118419   5.329   0.589   1.514 -2.5779  0.5904  2.9901
 2147SOL    HW218420   5.287   0.730   1.475 -1.5454  0.2552  0.5373
 2148SOL     OW18421   7.651   3.088   9.658  0.2501 -0.3371 -0.0412
 2148SOL    HW118422   7.686   3.100   9.570 -0.0777  1.1962  0.0080
 2148SOL    HW218423   7.563   3.054   9.645  0.8208 -1.7997 -0.2326
 2149SOL     OW18424   1.377   5.104   1.009 -0.0242 -0.3201 -0.1431
 2149SOL    HW118425   1.362   5.186   1.056 -1.2240 -1.3427  1.3401
 2149SOL    HW218426   1.353   5.125   0.918 -0.8202  0.8183  0.3020
 2150SOL     OW18427   4.304   2.762   6.383  0.2890  0.1418  0.4221
 2150SOL    HW118428   4.241   2.805   6.440 -0.6729 -0.1359 -0.3918
 2150SOL    HW218429   4.303   2.671   6.412  0.4424  0.1720  0.5207
 2151SOL     OW18430   7.787   4.480   0.019  0.0888 -0.0787  0.2785
 2151SOL    HW118431   7.805   4.482   0.113  1.5369  1.4411 -0.0004
 2151SOL    HW218432   7.693   4.500   0.013  0.0472  0.1360  1.3905
 2152SOL     OW18433   7.371   7.014   6.456  0.2698  0.1453 -0.4436
 2152SOL    HW118434   7.351   6.920   6.461 -2.3566  0.6379 -0.4064
 2152SOL    HW218435   7.385   7.030   6.363 -0.0641 -0.1422 -0.5460
 2153SOL     OW18436   5.010   4.168   2.800  0.0461 -0.2052 -0.3231
 2153SOL    HW118437   4.946   4.116   2.848  0.2679 -0.7447 -0.6058
 2153SOL    HW218438   4.963   4.199   2.723  0.1520 -0.7077 -0.5967
 2154SOL     OW18439   4.297   6.614   2.729 -0.2792 -0.3219  0.3295
 2154SOL    HW118440   4.334   6.553   2.793  1.3972  2.5639  2.3139
 2154SOL    HW218441   4.344   6.593   2.648 -0.7075 -2.4671  0.5650
 2155SOL     OW18442   0.954   7.211   8.513 -0.1514  0.2451  0.3013
 2155SOL    HW118443   0.889   7.161   8.563 -0.9881  0.5632 -0.4558
 2155SOL    HW218444   0.908   7.238   8.434  1.2826 -0.6017 -0.8562
 2156SOL     OW18445   2.637   2.037   0.548 -0.1988 -0.3897  0.1516
 2156SOL    HW118446   2.688   1.970   0.594 -1.1002 -0.3719  1.2330
 2156SOL    HW218447   2.564   1.989   0.509 -0.1381 -0.2161 -0.1775
 2157SOL     OW18448   7.312   7.998   6.845 -0.0504  0.0953 -0.1772
 2157SOL    HW118449   7.408   7.991   6.850 -0.1488 -0.3794  2.5285
 2157SOL    HW218450   7.283   7.988   6.935 -2.5779  2.0414 -0.6877
 2158SOL     OW18451   6.509   5.206   5.143 -0.0037  0.3477 -0.5665
 2158SOL    HW118452   6.474   5.293   5.126 -2.5540 -0.5073 -0.1266
 2158SOL    HW218453   6.544   5.177   5.059 -0.7139  1.1228 -1.1398
 2159SOL     OW18454   7.467   6.526   3.424 -0.8306 -0.3347  0.0242
 2159SOL    HW118455   7.498   6.583   3.354 -0.5498  0.0636  0.4587
 2159SOL    HW218456   7.452   6.586   3.498 -0.9266 -0.7682  0.3594
 2160SOL     OW18457   6.584   4.489   6.932 -0.0304 -0.3281  0.5174
 2160SOL    HW118458   6.532   4.409   6.921  1.0091 -0.9471 -0.0855
 2160SOL    HW218459   6.526   4.549   6.979 -1.0419 -1.2261  0.4637
 2161SOL     OW18460   1.688   3.232   6.807 -0.3471  0.8526 -0.0386
 2161SOL    HW118461   1.640   3.156   6.841  0.9069 -0.0086 -0.1258
 2161SOL    HW218462   1.640   3.307   6.841 -0.8642  0.0192  1.1655
 2162SOL     OW18463   4.086   0.211   4.349  0.1828  0.6155 -0.1541
 2162SOL    HW118464   4.094   0.152   4.274 -1.3366 -1.6446  1.3371
 2162SOL    HW218465   4.167   0.261   4.348  2.1736 -2.3189 -0.8782
 2163SOL     OW18466   6.345   9.213   3.558 -0.2317  0.4209  0.0405
 2163SOL    HW118467   6.296   9.295   3.554 -0.1949  0.4084 -0.8349
 2163SOL    HW218468   6.300   9.154   3.497 -1.2140 -0.7551  1.8294
 2164SOL     OW18469   9.664   2.015   8.440  0.0511 -0.3252 -0.0658
 2164SOL    HW118470   9.647   2.068   8.363  0.1200  1.9794  1.3959
 2164SOL    HW218471   9.616   1.934   8.425 -0.9821  0.5643 -1.9382
 2165SOL     OW18472   1.670   3.765   5.994 -0.2637  0.1511  0.5361
 2165SOL    HW118473   1.710   3.819   6.063  1.7729 -1.4361  0.7255
 2165SOL    HW218474   1.727   3.778   5.918 -0.6286 -0.5520  0.1382
 2166SOL     OW18475   4.007   7.376   9.424 -0.2822 -1.0621 -0.2933
 2166SOL    HW118476   3.988   7.419   9.341  2.5076 -1.7768 -1.4240
 2166SOL    HW218477   3.994   7.283   9.406  0.5612 -1.2398 -0.0212
 2167SOL     OW18478   8.556   0.739   8.699 -0.2590 -0.7194 -0.2555
 2167SOL    HW118479   8.548   0.769   8.790 -0.2772  1.3858 -0.8946
 2167SOL    HW218480   8.576   0.646   8.706  0.1297 -0.5208  1.9097
 2168SOL     OW18481   9.628   7.679   2.502 -0.2447  0.3786  0.1952
 2168SOL    HW118482   9.614   7.751   2.564  2.2906  0.3444  0.8896
 2168SOL    HW218483   9.550   7.623   2.513 -0.5476  1.1167  2.3118
 2169SOL     OW18484   3.314   5.721   8.585 -0.5622  0.2541  0.6686
 2169SOL    HW118485   3.314   5.626   8.577 -0.0720  0.2878  0.2680
 2169SOL    HW218486   3.221   5.745   8.582 -0.6030 -0.0522 -1.1736
 2170SOL     OW18487   6.246   0.509   1.202  0.4418  0.8294  0.4930
 2170SOL    HW118488   6.312   0.567   1.239  1.0959  1.1447 -1.0815
 2170SOL    HW218489   6.229   0.444   1.271  1.9497  1.0967  1.1436
 2171SOL     OW18490   9.966   4.629   2.683 -0.3220  0.5387 -0.2227
 2171SOL    HW118491   9.987   4.721   2.667 -0.9190  0.9586  1.2965
 2171SOL    HW218492  10.048   4.591   2.714 -0.3541  0.8356  0.2388
 2172SOL     OW18493   1.440   7.278   1.290  0.1276  0.4035  0.1243
 2172SOL    HW118494   1.493   7.205   1.323 -1.2225 -0.4415  0.5153
 2172SOL    HW218495   1.491   7.356   1.310  0.9207 -0.3306  1.0728
 2173SOL     OW18496   1.819   3.169   8.432  0.1889  0.1086 -0.2297
 2173SOL    HW118497   1.860   3.198   8.350 -1.0508  0.2505 -0.8216
 2173SOL    HW218498   1.726   3.166   8.412 -0.0953 -0.2288  1.0785
 2174SOL     OW18499   4.160   6.162   5.898 -0.1361  0.5636 -0.3236
 2174SOL    HW118500   4.128   6.243   5.938  1.5524  0.4781  1.3575
 2174SOL    HW218501   4.108   6.093   5.939 -0.0145  0.6505 -0.0180
 2175SOL     OW18502  10.383   6.276   2.634 -0.7288  0.1237  0.2126
 2175SOL    HW118503  10.452   6.339   2.656 -0.4996 -0.7169  2.1359
 2175SOL    HW218504  10.341   6.257   2.718 -0.8814 -2.1508 -0.3224
 2176SOL     OW18505   9.183   8.870   9.274 -0.5964  0.6425  0.9737
 2176SOL    HW118506   9.203   8.945   9.217 -0.2026 -0.4480 -0.3801
 2176SOL    HW218507   9.241   8.881   9.349  0.2704  1.1073  0.2566
 2177SOL     OW18508   0.253   1.572   0.104  0.3190 -0.1831  0.0174
 2177SOL    HW118509   0.273   1.570   0.198 -2.1371 -0.8208  0.6102
 2177SOL    HW218510   0.160   1.547   0.099  0.2079  0.4782 -2.5459
 2178SOL     OW18511   8.335   0.485  10.313 -0.2575  0.5543 -0.0897
 2178SOL    HW118512   8.339   0.418  10.381  0.7423  0.2211 -0.4695
 2178SOL    HW218513   8.241   0.504  10.304 -0.4365  0.3416  1.1092
 2179SOL     OW18514   3.009   7.075   9.997 -0.0481  0.4035 -0.2394
 2179SOL    HW118515   3.076   7.014   9.966  0.4183  0.2398  1.0490
 2179SOL    HW218516   3.009   7.145   9.932  1.8605  0.7433  0.0773
 2180SOL     OW18517   1.439   3.881   7.861 -0.1853 -0.3454  0.4243
 2180SOL    HW118518   1.428   3.976   7.858 -0.0024 -0.3211  0.5148
 2180SOL    HW218519   1.384   3.852   7.933 -1.5127 -0.4930 -0.6048
 2181SOL     OW18520   1.878   8.042   0.758  0.4772 -0.2444  0.3840
 2181SOL    HW118521   1.955   7.992   0.785  1.7056  1.8007  0.8002
 2181SOL    HW218522   1.807   7.978   0.762  1.5437 -1.4326  3.1851
 2182SOL     OW18523   0.717   7.562   4.683 -0.1741 -0.1666  0.2256
 2182SOL    HW118524   0.732   7.656   4.683  0.6735 -0.2838 -1.1936
 2182SOL    HW218525   0.629   7.552   4.719 -1.0309  1.3110 -1.3202
 2183SOL     OW18526   6.695   4.522   2.063  0.0448 -0.4847  0.4041
 2183SOL    HW118527   6.709   4.464   2.138 -0.2773 -0.4859  0.4656
 2183SOL    HW218528   6.646   4.469   2.001  0.2046 -0.4444  0.2445
 2184SOL     OW18529   3.465   8.902   7.726  0.2380  0.3265  0.0812
 2184SOL    HW118530   3.489   8.994   7.716 -1.3191  0.7179 -0.3062
 2184SOL    HW218531   3.521   8.856   7.663  0.3880  1.1170 -0.3830
 2185SOL     OW18532   2.507   0.129   3.251  0.1324  0.0218 -0.3713
 2185SOL    HW118533   2.579   0.135   3.188 -0.8314 -0.9580 -1.6000
 2185SOL    HW218534   2.428   0.117   3.198 -0.9880  1.2068  0.9335
 2186SOL     OW18535   3.549   3.622   0.060  0.0424  0.0374  0.3611
 2186SOL    HW118536   3.480   3.651   0.120  1.2240 -0.0596  1.8448
 2186SOL    HW218537   3.512   3.636  -0.027 -1.8361 -0.0202  1.0885
 2187SOL     OW18538   8.969   7.440   1.678  0.3368  0.1547  0.2662
 2187SOL    HW118539   8.957   7.350   1.647 -0.5729  0.3408  0.0444
 2187SOL    HW218540   8.892   7.457   1.732 -0.7611  1.6107 -1.6442
 2188SOL     OW18541   1.107   7.252   9.010 -0.1681 -0.4485 -0.2595
 2188SOL    HW118542   1.171   7.263   9.080 -1.5785 -1.9098  1.3719
 2188SOL    HW218543   1.042   7.321   9.024 -0.0110 -0.2100 -0.6750
 2189SOL     OW18544   4.067   4.232   7.175  0.1969 -0.2160  0.3566
 2189SOL    HW118545   4.105   4.310   7.214 -2.9167  1.5986  0.0339
 2189SOL    HW218546   4.077   4.244   7.080  0.1886 -0.4841  0.3183
 2190SOL     OW18547   3.787   7.048   7.221  0.2553  0.2208 -0.1962
 2190SOL    HW118548   3.834   6.966   7.232  0.5037  0.4006  0.1061
 2190SOL    HW218549   3.822   7.085   7.141 -0.9369 -0.6812 -1.1682
 2191SOL     OW18550   1.179   4.167   3.143 -0.3633 -0.3045  0.4182
 2191SOL    HW118551   1.158   4.199   3.231  0.7346 -1.6663  1.2255
 2191SOL    HW218552   1.258   4.214   3.118 -0.3321 -0.3555  0.4209
 2192SOL     OW18553   8.674   9.429   5.544  0.3985 -0.0890  0.2241
 2192SOL    HW118554   8.680   9.473   5.629 -1.9675  0.8938 -0.0315
 2192SOL    HW218555   8.689   9.336   5.564  2.5208  0.4366  1.2476
 2193SOL     OW18556   7.907   1.676   9.696 -0.0724 -0.0979  0.2778
 2193SOL    HW118557   7.879   1.708   9.610  2.6303  0.9416 -0.3104
 2193SOL    HW218558   7.949   1.592   9.678  0.0345 -0.1265  0.6553
 2194SOL     OW18559   5.687   2.536   8.453  0.5476  0.3910 -0.2077
 2194SOL    HW118560   5.627   2.486   8.509 -0.4120  0.6534 -0.9637
 2194SOL    HW218561   5.690   2.487   8.371  1.5861  0.2474 -0.0970
 2195SOL     OW18562   9.555   5.957  10.342 -0.1537  0.2468  0.0860
 2195SOL    HW118563   9.483   5.979  10.283 -2.4146 -0.4158  2.4201
 2195SOL    HW218564   9.518   5.893  10.402  2.5329 -0.3886  1.2079
 2196SOL     OW18565   0.032  10.278   2.583 -0.3588 -0.0574 -0.0639
 2196SOL    HW118566   0.103  10.215   2.590 -0.6723 -0.2930  1.1776
 2196SOL    HW218567   0.006  10.275   2.490  2.0312  0.9520 -0.8295
 2197SOL     OW18568   8.817   6.241   0.987 -0.6330  0.1123 -0.2020
 2197SOL    HW118569   8.890   6.247   0.926  0.0029 -0.0082  0.5284
 2197SOL    HW218570   8.757   6.310   0.960 -0.8568 -0.6023 -1.5972
 2198SOL     OW18571   6.207   9.941   3.996 -0.2501 -0.8039  0.1364
 2198SOL    HW118572   6.274   9.984   3.944  0.3984 -0.3276  1.3191
 2198SOL    HW218573   6.159  10.013   4.037  0.4444 -1.1438  1.6357
 2199SOL     OW18574   5.105   5.977   6.482 -0.2859 -0.2789 -0.3592
 2199SOL    HW118575   5.174   6.032   6.518  0.7159 -0.6797 -1.5962
 2199SOL    HW218576   5.096   5.905   6.543  1.1537 -0.7807 -0.7072
 2200SOL     OW18577   3.847   6.647   9.214  0.5113  0.7517 -0.1572
 2200SOL    HW118578   3.827   6.638   9.307  2.3403  0.3890  0.2311
 2200SOL    HW218579   3.788   6.585   9.171 -1.3311  1.9019  0.5773
 2201SOL     OW18580   6.094   9.081   0.051  0.3636  0.3649  0.0372
 2201SOL    HW118581   6.100   9.176   0.049 -2.4508  0.6751  1.4640
 2201SOL    HW218582   6.018   9.060  -0.003  0.2672 -0.9784  0.6538
 2202SOL     OW18583   0.865   9.480   5.311 -0.7096 -0.0758  0.3566
 2202SOL    HW118584   0.931   9.515   5.371  0.7748 -0.3865 -1.0214
 2202SOL    HW218585   0.895   9.391   5.291 -0.2937  0.4877 -1.9307
 2203SOL     OW18586   1.371   3.157   4.144  0.2198  0.0170 -0.0600
 2203SOL    HW118587   1.449   3.187   4.191  0.0973  2.1732 -1.1241
 2203SOL    HW218588   1.402   3.088   4.086  1.0063 -0.2755  0.6861
 2204SOL     OW18589   4.410   3.370   8.567 -0.1527 -0.1862  0.0459
 2204SOL    HW118590   4.452   3.409   8.491  0.2312 -1.6034 -0.4931
 2204SOL    HW218591   4.417   3.437   8.635 -0.6545  1.1740 -1.1900
 2205SOL     OW18592   4.185   4.128   5.376  0.4019 -0.1932 -0.6727
 2205SOL    HW118593   4.112   4.075   5.408  0.2207  0.4988  0.0839
 2205SOL    HW218594   4.257   4.109   5.436  0.3877  0.2935 -0.5017
 2206SOL     OW18595   7.798   8.061   3.629 -0.6069  0.4773  0.2264
 2206SOL    HW118596   7.785   8.035   3.721 -1.9063 -1.1808 -0.3686
 2206SOL    HW218597   7.755   8.147   3.622  0.7543  1.2995  1.4663
 2207SOL     OW18598   0.071   1.488   3.440 -0.3883 -0.0624  0.2000
 2207SOL    HW118599   0.002   1.541   3.400 -1.2754 -1.4320 -0.1566
 2207SOL    HW218600   0.025   1.412   3.476  0.7579 -0.2257  1.3589
 2208SOL     OW18601   4.225   7.366   0.981 -0.4164 -0.2753 -0.0879
 2208SOL    HW118602   4.163   7.429   0.943 -1.7180 -0.8957  0.8971
 2208SOL    HW218603   4.199   7.282   0.944 -0.1696 -0.5490  0.3562
 2209SOL     OW18604   6.565   3.188   9.397  0.2903  0.5044 -0.3753
 2209SOL    HW118605   6.657   3.195   9.371  0.2564 -1.0301 -1.0416
 2209SOL    HW218606   6.518   3.172   9.315 -0.2236 -1.2559  0.2068
 2210SOL     OW18607   8.550   9.358   3.270  0.0102 -0.5783 -0.0902
 2210SOL    HW118608   8.604   9.335   3.195  0.7075 -1.8849  0.7744
 2210SOL    HW218609   8.588   9.309   3.343 -2.1785 -1.3332  0.6204
 2211SOL     OW18610   4.177   0.637   0.575  0.3008 -0.4152 -0.1786
 2211SOL    HW118611   4.211   0.552   0.600  1.6303 -0.1192 -0.8486
 2211SOL    HW218612   4.152   0.627   0.483 -1.2984 -0.5622  0.2362
 2212SOL     OW18613   7.412   2.696   8.191 -0.1579 -0.0808 -0.9927
 2212SOL    HW118614   7.502   2.723   8.208 -0.5082  0.3523  0.3002
 2212SOL    HW218615   7.370   2.774   8.156 -0.4992  0.3046  0.2305
 2213SOL     OW18616   5.726   4.827   8.882  0.3292  0.0427  0.6049
 2213SOL    HW118617   5.748   4.817   8.789 -3.1882  0.0532 -0.3806
 2213SOL    HW218618   5.648   4.882   8.882 -1.2105 -1.8989  3.3583
 2214SOL     OW18619  10.212   7.982   6.630 -0.2669  0.3530 -0.0264
 2214SOL    HW118620  10.179   7.957   6.543 -0.4316  2.7423 -0.7052
 2214SOL    HW218621  10.205   8.077   6.632 -1.7914  0.2981  3.2564
 2215SOL     OW18622   9.368   2.528   5.809  0.3151 -0.4331 -0.1214
 2215SOL    HW118623   9.290   2.514   5.754 -0.3099 -1.7183  1.0043
 2215SOL    HW218624   9.358   2.617   5.843 -0.4072 -0.3932 -0.4110
 2216SOL     OW18625   0.199   3.438   4.436  0.0665 -0.2955  0.3270
 2216SOL    HW118626   0.201   3.343   4.423 -4.0699 -0.5113 -0.4114
 2216SOL    HW218627   0.114   3.464   4.399  0.1012  3.3825  2.4279
 2217SOL     OW18628   6.519   3.248   7.443  0.2315  0.2392  0.2274
 2217SOL    HW118629   6.533   3.265   7.536  1.7130  1.1353 -0.1302
 2217SOL    HW218630   6.556   3.324   7.398  1.4256 -1.0918 -1.1828
 2218SOL     OW18631   8.704   5.797   9.628 -0.5230  0.2253 -0.4253
 2218SOL    HW118632   8.795   5.775   9.649 -1.1778 -1.4223  0.8880
 2218SOL    HW218633   8.701   5.892   9.630  1.1394  0.3032 -0.3652
 2219SOL     OW18634   8.354   8.732   5.159 -0.0109 -0.1250 -0.1843
 2219SOL    HW118635   8.391   8.644   5.171 -0.8500 -0.1740  2.8334
 2219SOL    HW218636   8.413   8.774   5.097  0.0568 -2.9709 -2.2646
 2220SOL     OW18637   5.876   7.967  10.285  0.6466 -0.0091 -0.6691
 2220SOL    HW118638   5.953   7.927  10.326 -0.8253 -1.3113  0.9981
 2220SOL    HW218639   5.853   7.906  10.215  0.2679 -0.4288 -0.1870
 2221SOL     OW18640   3.007  10.030   7.994  0.4930 -0.6149 -0.6940
 2221SOL    HW118641   2.985  10.118   8.024 -0.4548 -0.9524 -0.3298
 2221SOL    HW218642   2.927  10.000   7.950  0.6266 -1.4731 -0.3633
 2222SOL     OW18643   9.554   7.866   2.933  0.1835  0.3522 -0.4351
 2222SOL    HW118644   9.466   7.896   2.909  0.2051  1.1814  0.4431
 2222SOL    HW218645   9.602   7.865   2.851 -0.5906  0.0981 -0.8926
 2223SOL     OW18646   4.790   4.360   7.951 -0.1687 -0.5473  0.0400
 2223SOL    HW118647   4.871   4.308   7.952 -0.5657 -1.1823 -0.1910
 2223SOL    HW218648   4.740   4.327   8.026 -1.0241 -1.4869 -0.9113
 2224SOL     OW18649   3.663   3.843   1.439  0.1298  0.7519  0.3979
 2224SOL    HW118650   3.622   3.903   1.501 -1.4922 -0.5098  0.6126
 2224SOL    HW218651   3.694   3.770   1.493  0.7699  0.7015 -0.0245
 2225SOL     OW18652   0.409   4.976   6.135  0.0666  0.1351 -0.4227
 2225SOL    HW118653   0.332   5.010   6.089 -0.2903  1.9366  1.3533
 2225SOL    HW218654   0.462   4.936   6.066 -1.6640  0.3316 -1.9598
 2226SOL     OW18655   4.213   6.213   9.621  0.2126  0.3041 -0.5929
 2226SOL    HW118656   4.119   6.219   9.605 -0.1145 -1.5712  0.3317
 2226SOL    HW218657   4.231   6.119   9.619  1.6101  0.4682  1.6131
 2227SOL     OW18658   3.451   9.625   7.489  0.2361 -0.0782 -0.0134
 2227SOL    HW118659   3.408   9.587   7.566  0.6165 -0.3084  0.0896
 2227SOL    HW218660   3.451   9.554   7.425  2.1134 -0.7167  0.6232
 2228SOL     OW18661   2.906   6.917   9.304 -0.7632 -0.4203 -1.1018
 2228SOL    HW118662   2.979   6.969   9.269  1.3931 -0.7331  2.4463
 2228SOL    HW218663   2.932   6.826   9.288 -0.9237 -0.5179 -0.8002
 2229SOL     OW18664   1.709   7.350   3.112  0.6070  0.2479 -0.0536
 2229SOL    HW118665   1.741   7.365   3.023  0.5109  0.3344 -0.0729
 2229SOL    HW218666   1.759   7.274   3.142  1.1948  0.6852  0.0933
 2230SOL     OW18667   7.037   0.221   0.710 -0.1239 -0.5033 -0.1700
 2230SOL    HW118668   7.049   0.296   0.768 -2.9979  0.5965 -0.8119
 2230SOL    HW218669   7.107   0.230   0.644 -0.9666  2.2689 -0.8091
 2231SOL     OW18670   9.668   3.260   0.013 -0.5173 -0.8440  0.1627
 2231SOL    HW118671   9.722   3.182   0.004 -0.3168 -0.5611 -1.4328
 2231SOL    HW218672   9.725   3.332  -0.016 -1.7323 -0.5540 -1.6625
 2232SOL     OW18673   6.699   4.745   9.824  0.3601  0.4376  0.6345
 2232SOL    HW118674   6.784   4.723   9.862  0.6268 -0.6873 -0.5281
 2232SOL    HW218675   6.720   4.806   9.752  0.2033  0.0448  0.2531
 2233SOL     OW18676   9.898   1.747   4.536  0.1506 -0.5554  0.2298
 2233SOL    HW118677   9.974   1.752   4.479 -0.0836 -1.2755 -0.1678
 2233SOL    HW218678   9.934   1.728   4.623  0.7514  3.2857  1.0124
 2234SOL     OW18679   4.591   2.849   6.650 -0.2108  0.1735  0.1369
 2234SOL    HW118680   4.591   2.923   6.590 -1.9757  0.8268  0.8678
 2234SOL    HW218681   4.623   2.885   6.733  1.6351 -0.5826 -0.2019
 2235SOL     OW18682   3.191   7.400   4.817 -0.1668 -0.3495  0.5531
 2235SOL    HW118683   3.107   7.372   4.782 -0.2082 -0.2095  0.5422
 2235SOL    HW218684   3.252   7.390   4.744 -1.0466  4.2942 -1.0959
 2236SOL     OW18685   7.686   3.967   2.953  0.1677 -0.0948  0.1665
 2236SOL    HW118686   7.715   3.904   2.888 -0.6814 -0.8448  0.4985
 2236SOL    HW218687   7.755   3.968   3.019 -1.2008 -3.1306  1.8236
 2237SOL     OW18688   8.317   7.518   3.108 -0.5239  0.4306  0.3276
 2237SOL    HW118689   8.396   7.474   3.139 -0.0183  1.0508 -0.0442
 2237SOL    HW218690   8.350   7.594   3.059 -1.3177  0.1690 -0.6440
 2238SOL     OW18691   2.497  10.026   6.967  0.1555 -0.0443 -0.0053
 2238SOL    HW118692   2.537   9.950   6.925  1.0671  0.0577  0.6472
 2238SOL    HW218693   2.405  10.003   6.976  0.0922 -0.3862 -1.3274
 2239SOL     OW18694   1.067   9.783   6.081 -0.3511  0.1852 -0.6535
 2239SOL    HW118695   1.073   9.754   5.990 -0.2153 -0.3831 -0.4688
 2239SOL    HW218696   0.977   9.764   6.107 -0.2321 -0.1753 -0.4996
 2240SOL     OW18697   6.431   7.606   5.960 -0.0843  0.3939  0.2333
 2240SOL    HW118698   6.504   7.608   6.022  1.3107 -0.7761 -1.2813
 2240SOL    HW218699   6.454   7.537   5.898 -1.9995  0.7027 -0.9085
 2241SOL     OW18700   6.914   4.530  10.278 -0.2246  0.1701 -0.0696
 2241SOL    HW118701   6.917   4.624  10.294 -0.2606  0.0455  0.7449
 2241SOL    HW218702   6.984   4.494  10.333  0.2555 -0.2127 -0.9153
 2242SOL     OW18703   2.125   6.370   1.163 -0.7336  0.3107 -0.2478
 2242SOL    HW118704   2.196   6.306   1.156 -0.7291 -0.2189  3.0192
 2242SOL    HW218705   2.166   6.453   1.141  0.3223 -0.2790 -0.5996
 2243SOL     OW18706   7.024   7.507   7.577 -0.2712  0.0225  0.7741
 2243SOL    HW118707   7.068   7.435   7.622 -0.8485 -0.2319  0.9415
 2243SOL    HW218708   6.934   7.477   7.567 -0.1388  0.0548 -0.6037
 2244SOL     OW18709   3.844   2.407   2.018  0.6703 -0.7948 -0.1028
 2244SOL    HW118710   3.821   2.470   2.086 -0.8362  1.1601 -2.2593
 2244SOL    HW218711   3.776   2.340   2.024  1.4454 -1.4984  1.2631
 2245SOL     OW18712   3.672   2.915   1.337  0.3779  0.3594  0.2893
 2245SOL    HW118713   3.664   2.886   1.428 -1.1111  1.0404  0.4023
 2245SOL    HW218714   3.622   2.996   1.333 -1.1241 -0.5850 -1.5458
 2246SOL     OW18715   9.243   8.145   8.743 -0.6653 -0.5407 -0.2899
 2246SOL    HW118716   9.237   8.186   8.829 -1.5604  0.3503 -0.7688
 2246SOL    HW218717   9.283   8.212   8.687  0.7069 -1.4039 -0.4081
 2247SOL     OW18718   0.960   7.769   0.997  0.4171 -0.6692 -0.4429
 2247SOL    HW118719   1.012   7.847   0.983 -0.7941 -0.0565 -1.8745
 2247SOL    HW218720   0.874   7.802   1.025 -0.0710 -1.4663 -0.9467
 2248SOL     OW18721   8.168   6.735   7.874  0.3931  0.0887 -0.2804
 2248SOL    HW118722   8.205   6.677   7.940 -0.1219  0.7748  0.6322
 2248SOL    HW218723   8.096   6.684   7.835 -0.2605  0.2114  0.7380
 2249SOL     OW18724   9.637   3.820   2.511  0.0365 -0.4008  0.0482
 2249SOL    HW118725   9.716   3.770   2.532 -0.4007 -0.7364  0.9097
 2249SOL    HW218726   9.620   3.872   2.589 -0.9271 -0.7783  0.1050
 2250SOL     OW18727   9.597   1.014   4.602  0.1483 -0.2239  0.2636
 2250SOL    HW118728   9.526   0.964   4.563 -0.1173 -0.3014  0.8253
 2250SOL    HW218729   9.677   0.976   4.567 -0.0929  0.5860 -1.2575
 2251SOL     OW18730   6.840   3.109   1.130  0.2583 -0.1918  0.5062
 2251SOL    HW118731   6.930   3.124   1.160 -0.3655 -0.6990  2.8515
 2251SOL    HW218732   6.836   3.151   1.044  2.1859  1.6020  1.2011
 2252SOL     OW18733   0.270   6.886   0.304 -0.2851  0.6741 -0.0193
 2252SOL    HW118734   0.281   6.894   0.210  2.2633  0.2275  0.1947
 2252SOL    HW218735   0.205   6.954   0.326  0.4918  2.0816 -1.8332
 2253SOL     OW18736   3.676   3.847   0.754 -0.1087  0.2225  0.1040
 2253SOL    HW118737   3.675   3.854   0.659 -1.1848  0.8459  0.1482
 2253SOL    HW218738   3.762   3.809   0.774  0.2219  0.2949 -1.0898
 2254SOL     OW18739   1.192   1.791   3.810  0.1132 -0.5571 -0.5811
 2254SOL    HW118740   1.175   1.862   3.748  0.5561  0.3710  0.3357
 2254SOL    HW218741   1.155   1.822   3.893 -0.3116 -1.6991 -0.3211
 2255SOL     OW18742   8.374   9.713   7.622  0.1250  0.1638 -0.3836
 2255SOL    HW118743   8.460   9.701   7.662 -1.0615  0.7357  2.5857
 2255SOL    HW218744   8.389   9.774   7.549  1.9438  1.8507  1.2979
 2256SOL     OW18745   4.135   9.899   0.062 -0.0392  0.1029 -0.4507
 2256SOL    HW118746   4.189   9.855   0.127  1.2996  1.3669 -0.6646
 2256SOL    HW218747   4.170   9.870  -0.022  0.5376  1.1550 -0.5900
 2257SOL     OW18748   9.528   2.945   5.831  0.1055  0.5220 -0.6763
 2257SOL    HW118749   9.481   2.869   5.864  2.2584 -1.2857 -1.5205
 2257SOL    HW218750   9.516   3.012   5.898 -2.2111 -0.3672 -0.1125
 2258SOL     OW18751   3.443   5.795   8.228  0.9847 -0.2672 -0.2502
 2258SOL    HW118752   3.463   5.784   8.321  0.3754 -0.5856 -0.1553
 2258SOL    HW218753   3.488   5.876   8.204 -1.0214  1.3307  0.9904
 2259SOL     OW18754   5.009   4.617   0.468  0.1151 -0.4688 -0.2710
 2259SOL    HW118755   4.985   4.561   0.542 -1.5157 -0.0136 -0.4145
 2259SOL    HW218756   4.996   4.563   0.391 -3.6290  0.5935 -0.5953
 2260SOL     OW18757   2.874   8.002   5.965  0.0343 -0.3242 -0.1789
 2260SOL    HW118758   2.894   7.921   6.012  0.0940 -0.0659  0.2430
 2260SOL    HW218759   2.789   8.029   6.000 -0.3871 -0.6455 -0.9218
 2261SOL     OW18760   4.011   8.958   9.354  0.4920 -0.1789 -0.1376
 2261SOL    HW118761   4.101   8.929   9.365  0.2482 -0.3397  1.9338
 2261SOL    HW218762   3.998   8.963   9.260  1.8742 -2.5659 -0.5155
 2262SOL     OW18763   6.462   9.991   7.229  0.2479 -0.5469  0.4239
 2262SOL    HW118764   6.526  10.061   7.248 -1.7765  1.3775  0.5961
 2262SOL    HW218765   6.433   9.962   7.315 -0.2041 -0.3290  0.3472
 2263SOL     OW18766   7.893  10.184   5.469  0.4767 -0.3437 -0.5132
 2263SOL    HW118767   7.925  10.264   5.427 -2.3743  0.0356 -2.1531
 2263SOL    HW218768   7.954  10.116   5.439  0.6698  0.5592 -2.3090
 2264SOL     OW18769  10.006   3.605   8.146 -0.1841 -0.0279 -0.2091
 2264SOL    HW118770   9.999   3.699   8.158 -0.3201 -0.1626  0.9563
 2264SOL    HW218771   9.918   3.577   8.118  0.2453  0.3601 -2.0243
 2265SOL     OW18772   6.854   7.814   7.512 -0.8250  0.0109 -0.2200
 2265SOL    HW118773   6.920   7.873   7.475 -0.2796 -0.1542  0.4607
 2265SOL    HW218774   6.876   7.809   7.605 -2.3428  0.6426  0.1970
 2266SOL     OW18775   3.691   0.632   3.653  0.3296  0.0914  0.0552
 2266SOL    HW118776   3.659   0.647   3.564 -2.9734  1.6585  1.3527
 2266SOL    HW218777   3.661   0.544   3.675  1.8829 -0.6328 -0.6074
 2267SOL     OW18778   8.868   7.271   3.240 -0.4964 -0.5592  0.4870
 2267SOL    HW118779   8.847   7.218   3.316 -0.2432 -1.0352  0.2352
 2267SOL    HW218780   8.904   7.353   3.276 -0.0905 -0.9028  0.8756
 2268SOL     OW18781   9.878   2.302   6.663 -0.3159 -0.3214  0.1922
 2268SOL    HW118782   9.904   2.394   6.666  1.1767 -0.6263 -1.5548
 2268SOL    HW218783   9.782   2.303   6.670 -0.3055  1.3326  0.4121
 2269SOL     OW18784   5.118   6.125   5.050 -0.2739  0.0663 -0.2007
 2269SOL    HW118785   5.121   6.102   5.143  1.1141  0.8661 -0.0173
 2269SOL    HW218786   5.025   6.121   5.028 -0.4767 -1.9980  0.7165
 2270SOL     OW18787   7.349   7.969   7.125  0.3589  0.2411  0.1644
 2270SOL    HW118788   7.400   8.047   7.107  0.6465  0.1341  0.4930
 2270SOL    HW218789   7.368   7.949   7.217  0.7459 -0.5411 -0.0756
 2271SOL     OW18790  10.079   5.160   6.897  0.1577 -0.3163 -0.3797
 2271SOL    HW118791   9.993   5.160   6.939 -1.3784 -0.3901 -3.2425
 2271SOL    HW218792  10.118   5.243   6.924 -1.1013  0.0538  0.4287
 2272SOL     OW18793   3.927   6.920   2.648  0.2164  0.0672 -0.2405
 2272SOL    HW118794   3.961   6.971   2.575  2.2213  0.8231  1.1469
 2272SOL    HW218795   3.959   6.831   2.632 -0.3794 -0.0408 -0.8801
 2273SOL     OW18796   1.250   8.571   9.442 -0.1345  0.6135 -0.0881
 2273SOL    HW118797   1.187   8.589   9.373 -0.0598  0.9249 -0.0733
 2273SOL    HW218798   1.304   8.650   9.447 -1.0266  1.1663  1.3036
 2274SOL     OW18799   4.312   4.602   6.524  0.1633  0.2445  0.7326
 2274SOL    HW118800   4.364   4.635   6.451 -2.0822  1.8019 -0.3096
 2274SOL    HW218801   4.356   4.635   6.602  1.4200  0.4176 -0.0314
 2275SOL     OW18802   1.604   5.620   8.529 -0.0215  0.3055  0.3153
 2275SOL    HW118803   1.551   5.640   8.606  0.2385  2.0209  0.0678
 2275SOL    HW218804   1.687   5.665   8.544  0.9372 -1.2808  0.0965
 2276SOL     OW18805   9.549   5.334   4.021 -0.3073  0.9856  0.4671
 2276SOL    HW118806   9.621   5.329   4.084 -0.4068  0.8932  0.5764
 2276SOL    HW218807   9.589   5.360   3.939 -0.3435  2.4275  0.8762
 2277SOL     OW18808   1.454   6.432   7.357 -0.2542  0.1967 -0.3790
 2277SOL    HW118809   1.520   6.501   7.364 -1.9024  1.7271  1.3928
 2277SOL    HW218810   1.383   6.461   7.414 -1.7208 -2.2328 -0.8105
 2278SOL     OW18811   6.217   5.414   7.968  0.4781  0.1206  0.9851
 2278SOL    HW118812   6.137   5.385   7.924  1.4477 -1.0340 -0.0460
 2278SOL    HW218813   6.193   5.417   8.061 -0.1339 -2.4999  0.9777
 2279SOL     OW18814   1.066  10.176   9.586  0.2595 -0.2821 -0.0371
 2279SOL    HW118815   1.118  10.101   9.558  0.6620  0.0708 -0.2264
 2279SOL    HW218816   1.122  10.222   9.648  0.0153 -0.1271  0.0686
 2280SOL     OW18817   0.840   9.441   7.246  0.2953  0.4104  0.2029
 2280SOL    HW118818   0.757   9.477   7.278 -0.1027 -1.0408  0.9076
 2280SOL    HW218819   0.837   9.349   7.272  1.7926  0.1505 -0.4624
 2281SOL     OW18820   5.801   9.943   3.941  0.5306 -0.0233 -0.0830
 2281SOL    HW118821   5.757  10.009   3.887 -0.9054 -1.2720 -0.5010
 2281SOL    HW218822   5.792   9.976   4.031 -0.7615  0.0309 -0.2199
 2282SOL     OW18823   5.337   8.232   2.573  0.1054  0.8147 -0.0857
 2282SOL    HW118824   5.348   8.159   2.634 -0.8858  1.8253  1.3632
 2282SOL    HW218825   5.347   8.192   2.486  0.4088 -0.8751  0.6829
 2283SOL     OW18826   6.159   6.714   9.311  0.2758  0.4186  0.0825
 2283SOL    HW118827   6.110   6.748   9.236 -0.6259  0.8630  0.8395
 2283SOL    HW218828   6.251   6.724   9.287  0.0053  1.5568 -0.5409
 2284SOL     OW18829   1.574   2.851   6.421 -0.7538  0.0011  0.5168
 2284SOL    HW118830   1.596   2.929   6.371 -1.4173  0.0970  0.3632
 2284SOL    HW218831   1.597   2.872   6.511 -1.4516  0.5824  0.5630
 2285SOL     OW18832   9.970   3.665   3.214  0.3934  0.1297  0.0177
 2285SOL    HW118833  10.038   3.632   3.273  0.0480  0.2135  0.4678
 2285SOL    HW218834   9.958   3.596   3.149 -0.1375 -0.5322  0.8039
 2286SOL     OW18835   0.936   9.774   8.714  0.6754 -0.0630 -0.3816
 2286SOL    HW118836   0.936   9.696   8.658  0.0428  0.1601 -0.7093
 2286SOL    HW218837   0.955   9.846   8.654  1.5904  0.0038 -0.0188
 2287SOL     OW18838   5.112   7.697   4.540  0.2802  0.0561  0.1600
 2287SOL    HW118839   5.088   7.766   4.478 -1.1567 -0.4009  0.1805
 2287SOL    HW218840   5.130   7.743   4.622  0.0587  0.4808 -0.0265
 2288SOL     OW18841   6.783   1.240   1.292 -0.1567 -0.0782 -0.4404
 2288SOL    HW118842   6.841   1.293   1.347 -0.0915 -0.6032  0.0073
 2288SOL    HW218843   6.829   1.232   1.209 -0.6949  1.5533 -0.9355
 2289SOL     OW18844   1.497   0.477   7.086  0.2119 -0.7158 -0.2143
 2289SOL    HW118845   1.572   0.466   7.028 -0.1978  1.3986 -1.2821
 2289SOL    HW218846   1.477   0.571   7.081 -1.0462 -0.8033  1.8830
 2290SOL     OW18847   8.506   6.468   5.954  0.7445 -0.0400 -0.4714
 2290SOL    HW118848   8.560   6.534   5.998 -0.9138  1.0859 -0.0360
 2290SOL    HW218849   8.479   6.509   5.872 -0.5720 -0.0172 -0.0518
 2291SOL     OW18850   9.733   6.529   2.067  0.1998 -0.2975  0.2909
 2291SOL    HW118851   9.645   6.518   2.102 -0.2532  1.5010 -0.1517
 2291SOL    HW218852   9.759   6.442   2.037 -0.6939 -1.2146  2.0454
 2292SOL     OW18853   1.510   2.322   9.809  0.6077  0.5919 -0.6017
 2292SOL    HW118854   1.487   2.411   9.785  0.4179  0.3108 -1.5090
 2292SOL    HW218855   1.598   2.309   9.774  2.4059  1.7318  3.0406
 2293SOL     OW18856   0.008   1.970   9.338 -0.3402  0.6247 -0.0262
 2293SOL    HW118857  -0.008   2.007   9.251 -0.5352  0.6250  0.0084
 2293SOL    HW218858  -0.063   1.907   9.351  0.6208 -0.6172 -0.5509
 2294SOL     OW18859   8.030   9.177   9.247 -0.6681 -0.4033 -0.5868
 2294SOL    HW118860   7.940   9.167   9.215 -0.6306 -0.0811 -0.8008
 2294SOL    HW218861   8.031   9.262   9.290 -0.4153 -0.3196 -0.7548
 2295SOL     OW18862   0.935   6.419   4.415  0.2184 -0.3794 -0.1060
 2295SOL    HW118863   1.012   6.473   4.402 -1.4380  2.6822  1.5242
 2295SOL    HW218864   0.940   6.391   4.506  0.1729 -1.5427 -0.4449
 2296SOL     OW18865   8.244   1.320   9.867 -0.2491 -0.4586  0.2914
 2296SOL    HW118866   8.286   1.332   9.782  1.6779  0.2968  1.2960
 2296SOL    HW218867   8.223   1.227   9.870  0.7868 -0.7455 -0.5379
 2297SOL     OW18868   0.999   3.361   6.371  0.1957 -0.4268  0.5789
 2297SOL    HW118869   0.915   3.379   6.413 -1.3284 -1.7109 -1.7258
 2297SOL    HW218870   1.003   3.421   6.297  2.0771  0.6634  1.4662
 2298SOL     OW18871   7.146   4.081   3.511 -0.4025 -0.4250 -0.6265
 2298SOL    HW118872   7.238   4.054   3.510 -0.2323  0.0436  0.7151
 2298SOL    HW218873   7.109   4.040   3.433  0.1983 -3.2482  0.4534
 2299SOL     OW18874   2.390   4.558   2.295 -0.3102  0.2121 -0.4031
 2299SOL    HW118875   2.382   4.626   2.228  0.3112  1.5921  0.8587
 2299SOL    HW218876   2.336   4.589   2.367 -0.8088 -1.1544 -0.1625
 2300SOL     OW18877   4.904   2.889   6.650 -0.6081  0.0582 -0.1813
 2300SOL    HW118878   4.982   2.906   6.597 -0.7002  1.5748  0.1399
 2300SOL    HW218879   4.900   2.793   6.656  0.7233 -0.0690 -0.9361
 2301SOL     OW18880   2.352   1.310   2.558 -0.3481 -0.4287  0.5721
 2301SOL    HW118881   2.380   1.297   2.467 -0.4221 -0.0429  0.4922
 2301SOL    HW218882   2.258   1.291   2.558 -0.4871  0.2519  0.4238
 2302SOL     OW18883   2.363   1.957   5.473  0.1109  0.2033 -0.2697
 2302SOL    HW118884   2.457   1.974   5.466 -0.1279  1.6722 -0.3087
 2302SOL    HW218885   2.343   1.976   5.565 -0.3917  1.4467 -0.6074
 2303SOL     OW18886  10.302   1.664   7.482 -0.3679 -0.0488 -0.0785
 2303SOL    HW118887  10.348   1.728   7.536  0.5312 -0.0821 -0.7749
 2303SOL    HW218888  10.218   1.651   7.526  0.2731  0.0316  1.2184
 2304SOL     OW18889   0.406   0.554   9.955 -0.2479 -0.1983  0.2616
 2304SOL    HW118890   0.319   0.592   9.943  0.0554  0.0099 -1.3887
 2304SOL    HW218891   0.409   0.480   9.895  0.3531 -0.8508  1.0684
 2305SOL     OW18892   4.800   3.006   5.188 -0.4393 -0.2179  0.0075
 2305SOL    HW118893   4.714   2.997   5.147 -1.4642 -0.5695  2.1025
 2305SOL    HW218894   4.791   2.962   5.272  1.5313  0.5430  0.6698
 2306SOL     OW18895   8.392   1.233   0.764  0.1358 -0.1934 -0.0052
 2306SOL    HW118896   8.385   1.162   0.701  2.9166  0.0806 -0.7492
 2306SOL    HW218897   8.457   1.203   0.827  2.0665  1.9180 -0.8422
 2307SOL     OW18898   4.332   4.641   1.528 -0.3215  0.3850  0.4607
 2307SOL    HW118899   4.297   4.629   1.616  1.4941  0.4371  1.2432
 2307SOL    HW218900   4.399   4.709   1.539  1.6284 -1.3189 -0.4471
 2308SOL     OW18901   2.880   4.070   2.048 -0.4928  0.3330 -0.1027
 2308SOL    HW118902   2.836   4.090   1.965 -0.1078  3.4966  0.3312
 2308SOL    HW218903   2.963   4.029   2.023 -0.2622  1.4985 -1.3339
 2309SOL     OW18904   5.210   3.429   9.299 -0.3092  0.0380 -0.0145
 2309SOL    HW118905   5.176   3.346   9.266 -0.1200  0.6483 -1.8372
 2309SOL    HW218906   5.154   3.495   9.259 -0.2115  0.8178  1.1050
 2310SOL     OW18907  10.298   1.664   0.552 -0.0529  0.0206  0.5510
 2310SOL    HW118908  10.244   1.740   0.572  0.6172  0.7699 -0.4128
 2310SOL    HW218909  10.340   1.642   0.635  0.4309  1.2577  0.6594
 2311SOL     OW18910   9.753   1.112   5.269 -0.0695 -0.3529  0.3746
 2311SOL    HW118911   9.841   1.146   5.284  0.0005 -0.8476  1.1434
 2311SOL    HW218912   9.761   1.017   5.278 -0.5622 -0.4624 -0.1942
 2312SOL     OW18913   0.176   8.247   4.616 -0.6546 -0.0133  0.1043
 2312SOL    HW118914   0.203   8.260   4.707 -1.4986  0.3253  0.3155
 2312SOL    HW218915   0.258   8.242   4.567 -0.2034  1.7899  0.6105
 2313SOL     OW18916   9.579   5.763   4.747  0.0100  0.9688  0.5020
 2313SOL    HW118917   9.583   5.731   4.837  2.0008  1.5098  0.6469
 2313SOL    HW218918   9.491   5.799   4.738 -0.0333  1.4460  2.4174
 2314SOL     OW18919   0.959   1.936   6.422 -0.4626 -0.2835 -0.6706
 2314SOL    HW118920   1.034   1.886   6.389 -0.3779  0.4908 -1.6996
 2314SOL    HW218921   0.945   2.004   6.356 -1.3294  0.3087  0.1052
 2315SOL     OW18922   7.659   8.911   7.942 -0.1356  0.0146  0.4471
 2315SOL    HW118923   7.609   8.975   7.995 -0.7220 -0.9209  1.0512
 2315SOL    HW218924   7.623   8.826   7.967  1.6282 -0.6926  0.7574
 2316SOL     OW18925   9.511   2.031   2.630  0.0954 -0.4862  0.4020
 2316SOL    HW118926   9.563   2.097   2.584 -1.9508  3.1907  2.9241
 2316SOL    HW218927   9.557   2.018   2.713 -0.5626 -0.7553  0.7320
 2317SOL     OW18928  10.158   2.306   6.065 -0.1864  0.2737  0.6856
 2317SOL    HW118929  10.090   2.240   6.081  0.4700 -0.5703  0.0639
 2317SOL    HW218930  10.114   2.373   6.012 -0.6765  0.0021  0.7453
 2318SOL     OW18931  10.346   8.121   9.851 -0.0695  0.2539 -0.5580
 2318SOL    HW118932  10.441   8.136   9.852  0.5267 -2.7499 -1.2538
 2318SOL    HW218933  10.323   8.111   9.944  0.0420  2.0274 -0.3071
 2319SOL     OW18934  10.198   7.092   3.529 -0.1909  0.3065 -0.6819
 2319SOL    HW118935  10.158   7.096   3.443  0.1984  2.0877 -0.8179
 2319SOL    HW218936  10.216   6.998   3.544 -1.3267 -0.1423 -2.0083
 2320SOL     OW18937   5.971   2.173   0.018 -0.5330  0.0232 -0.1568
 2320SOL    HW118938   5.952   2.262  -0.009 -3.2033 -1.0043 -2.1416
 2320SOL    HW218939   6.004   2.130  -0.061 -0.6597 -1.1156  0.3811
 2321SOL     OW18940   8.494   7.583   4.828  0.0593 -0.2704  0.4066
 2321SOL    HW118941   8.443   7.572   4.747 -0.3122  0.3254  0.5551
 2321SOL    HW218942   8.455   7.520   4.889 -1.8620  1.5414  1.1590
 2322SOL     OW18943   0.353   6.239   9.447 -0.3201 -0.3133  0.4406
 2322SOL    HW118944   0.368   6.294   9.525 -1.5559  1.1821 -0.3315
 2322SOL    HW218945   0.273   6.190   9.467  0.0099 -0.8117  0.5629
 2323SOL     OW18946   8.282   2.493   9.776 -0.1961  1.0030  0.2201
 2323SOL    HW118947   8.303   2.535   9.859  2.3251 -0.5730  0.4860
 2323SOL    HW218948   8.199   2.449   9.791  0.9693 -0.5736  2.4946
 2324SOL     OW18949   0.609  10.195   0.215 -0.5819 -0.3650  0.0631
 2324SOL    HW118950   0.548  10.187   0.288 -0.1768 -1.6680  0.2775
 2324SOL    HW218951   0.674  10.127   0.230  0.9690  1.0150 -0.1378
 2325SOL     OW18952   6.512   3.016   2.263  0.4075  0.1268  0.4048
 2325SOL    HW118953   6.432   3.051   2.224  0.6066 -0.5936 -0.6867
 2325SOL    HW218954   6.577   3.021   2.193  1.0952 -0.0795  1.0194
 2326SOL     OW18955   5.677   3.891   4.478 -0.1848  0.1484  0.2466
 2326SOL    HW118956   5.607   3.902   4.414 -0.6533 -0.8624  0.5654
 2326SOL    HW218957   5.640   3.925   4.560  0.0088  0.3903  0.2358
 2327SOL     OW18958  10.257   7.336   3.646  0.1597 -0.3810 -0.3730
 2327SOL    HW118959  10.211   7.409   3.604  1.0335 -0.6147 -1.7958
 2327SOL    HW218960  10.236   7.260   3.591  0.7798 -0.8307  0.0035
 2328SOL     OW18961   3.237   7.811   1.568 -0.5792  0.4142 -0.6040
 2328SOL    HW118962   3.196   7.897   1.556  0.6909  1.0956 -0.2827
 2328SOL    HW218963   3.212   7.785   1.657 -0.3437  0.8060 -0.4214
 2329SOL     OW18964   0.932   4.878   8.845 -0.2839  0.1167  0.4825
 2329SOL    HW118965   0.887   4.803   8.805  0.7051 -0.0092 -0.4274
 2329SOL    HW218966   0.872   4.951   8.831 -0.6618 -0.2422  0.1888
 2330SOL     OW18967   8.707  10.146   2.206 -0.0037  0.0592  0.1549
 2330SOL    HW118968   8.761  10.072   2.179  1.9975  2.3574 -2.6655
 2330SOL    HW218969   8.767  10.206   2.249 -0.4507  2.0509 -1.7979
 2331SOL     OW18970   1.303   6.255   7.623  0.3847  0.2551  0.2949
 2331SOL    HW118971   1.251   6.266   7.544  1.6873  0.9417 -0.4930
 2331SOL    HW218972   1.369   6.190   7.600  1.5133  1.3249  0.3962
 2332SOL     OW18973   6.347   2.846   8.729  0.2252 -0.3102  0.9012
 2332SOL    HW118974   6.275   2.812   8.676  0.7761  1.6759 -1.2594
 2332SOL    HW218975   6.409   2.773   8.736 -0.1370 -0.7984 -0.6953
 2333SOL     OW18976   5.201   7.973   7.296 -0.0589  0.0629 -0.2889
 2333SOL    HW118977   5.258   7.944   7.367 -0.8822  0.3939  0.5128
 2333SOL    HW218978   5.256   7.965   7.217  0.8359 -0.3687  0.3630
 2334SOL     OW18979   1.301   2.427   9.384  0.0723 -0.1027  0.2510
 2334SOL    HW118980   1.212   2.462   9.377 -1.0151 -2.8095 -0.6784
 2334SOL    HW218981   1.289   2.334   9.403  2.5965 -1.0629 -2.1471
 2335SOL     OW18982   5.132   5.233   0.749 -0.3377  0.1313  0.5065
 2335SOL    HW118983   5.059   5.244   0.688  0.3820 -0.9616 -0.6036
 2335SOL    HW218984   5.093   5.246   0.836 -2.4038 -2.7015  0.1379
 2336SOL     OW18985   4.940   2.610   6.647 -0.7238  0.3928 -0.5790
 2336SOL    HW118986   5.034   2.596   6.632 -0.4612  1.3334  0.1278
 2336SOL    HW218987   4.922   2.564   6.729 -0.7110  0.8605 -0.3124
 2337SOL     OW18988   2.023   8.985   0.743 -0.0865 -0.0176  0.1840
 2337SOL    HW118989   2.073   8.904   0.729  0.4821 -0.0274  2.0266
 2337SOL    HW218990   2.085   9.043   0.787 -0.5953  1.3321 -0.8111
 2338SOL     OW18991   6.067   5.414   5.366  0.2417 -0.1785 -0.1686
 2338SOL    HW118992   6.116   5.334   5.383 -0.7566 -1.3943 -2.4536
 2338SOL    HW218993   6.058   5.456   5.451  3.7119 -0.7223  0.6189
 2339SOL     OW18994   0.850   1.843   8.777 -0.3774  0.2987  0.2562
 2339SOL    HW118995   0.770   1.801   8.806  0.0832 -1.7782 -1.2438
 2339SOL    HW218996   0.834   1.865   8.685  1.2012 -1.6157 -0.5768
 2340SOL     OW18997   0.905   7.379   4.098 -0.1566 -0.5569  0.2774
 2340SOL    HW118998   0.960   7.448   4.133 -1.3805  0.3367  0.4739
 2340SOL    HW218999   0.859   7.343   4.174 -0.8460 -0.3796 -0.0441
 2341SOL     OW19000   7.725   1.775   3.347 -0.2765 -0.7558 -0.2445
 2341SOL    HW119001   7.733   1.769   3.442  1.8986  1.1975 -0.2464
 2341SOL    HW219002   7.799   1.725   3.313 -0.1075 -0.0740 -0.8896
 2342SOL     OW19003   8.158   0.706   3.125 -0.1888 -0.3773 -0.3035
 2342SOL    HW119004   8.169   0.623   3.079  1.0104  0.6505 -1.9975
 2342SOL    HW219005   8.188   0.688   3.214 -1.4370 -2.1255 -0.1860
 2343SOL     OW19006   0.377   4.176   9.764 -0.5423 -0.5507  0.3741
 2343SOL    HW119007   0.405   4.085   9.763  2.4947  0.2730  0.7975
 2343SOL    HW219008   0.393   4.207   9.674  1.1426  0.2522  0.9238
 2344SOL     OW19009   9.503   6.413   5.318 -0.0680 -0.3023  0.2205
 2344SOL    HW119010   9.575   6.354   5.341 -0.2788 -0.2764  0.9882
 2344SOL    HW219011   9.457   6.428   5.401 -0.1370  0.7861 -0.0038
 2345SOL     OW19012   3.031   5.452   7.609  0.6238  0.2554 -0.3721
 2345SOL    HW119013   2.974   5.387   7.648 -0.5817  1.2946 -0.3534
 2345SOL    HW219014   3.120   5.422   7.630  0.0849 -1.0857  0.0672
 2346SOL     OW19015   9.256   4.063   0.441  0.4332  0.1717  0.1973
 2346SOL    HW119016   9.309   4.030   0.513 -1.5086 -2.0020  0.7650
 2346SOL    HW219017   9.301   4.033   0.362  0.9858 -0.1253  0.6195
 2347SOL     OW19018   6.139   6.216   7.760  0.1544 -0.1695 -0.0394
 2347SOL    HW119019   6.210   6.152   7.769 -0.5992 -1.0826 -0.4086
 2347SOL    HW219020   6.171   6.278   7.694  0.9769 -0.0404  0.4650
 2348SOL     OW19021  10.063   7.497   1.426  0.5259 -0.6965 -0.4159
 2348SOL    HW119022  10.073   7.574   1.371 -1.2733  0.1803  0.4036
 2348SOL    HW219023  10.065   7.423   1.365 -0.6817  0.1950 -1.6056
 2349SOL     OW19024   9.326   5.817   5.082  0.2077  0.3149  0.2242
 2349SOL    HW119025   9.347   5.723   5.081 -1.4721 -0.1021  0.6678
 2349SOL    HW219026   9.381   5.855   5.014  1.4849 -0.8557  0.5506
 2350SOL     OW19027   0.143   8.281   1.813 -0.5770  0.2341 -0.1370
 2350SOL    HW119028   0.214   8.269   1.750 -0.2956  1.0970  0.0027
 2350SOL    HW219029   0.098   8.197   1.814  0.3145 -0.2637 -0.3788
 2351SOL     OW19030   1.394   8.704   7.910  0.0083  0.3831 -0.1252
 2351SOL    HW119031   1.364   8.677   7.997  0.8768  1.5382  0.5623
 2351SOL    HW219032   1.386   8.800   7.910 -1.0860  0.3229 -1.7510
 2352SOL     OW19033   4.016   0.814   0.694  0.4705  0.0566  0.4001
 2352SOL    HW119034   4.077   0.768   0.636  1.0685  0.9611  0.3028
 2352SOL    HW219035   3.968   0.743   0.738 -0.2868 -0.6572 -1.4684
 2353SOL     OW19036   2.649   9.121   0.666  0.3032 -0.1467 -0.0332
 2353SOL    HW119037   2.718   9.187   0.672 -0.8834  1.1315  0.0760
 2353SOL    HW219038   2.646   9.098   0.573  1.1654 -0.5628  0.0301
 2354SOL     OW19039   6.104   1.992   6.397  0.2283 -0.7050  0.2858
 2354SOL    HW119040   6.033   2.008   6.336 -1.2349  0.0045  2.0795
 2354SOL    HW219041   6.173   1.953   6.344 -0.8568  0.1017 -1.8375
 2355SOL     OW19042   1.405   4.436   5.429  0.1764  0.1326 -0.2396
 2355SOL    HW119043   1.332   4.438   5.490  0.2869  1.5165 -0.1065
 2355SOL    HW219044   1.376   4.491   5.356  0.6446 -0.2482 -0.7221
 2356SOL     OW19045   2.434   4.156   9.700  0.2900 -0.7503  0.8124
 2356SOL    HW119046   2.499   4.090   9.677 -0.1608 -1.9455  2.7319
 2356SOL    HW219047   2.479   4.239   9.690  1.9770 -1.5188  1.6289
 2357SOL     OW19048   6.828   1.125   3.480 -0.9910 -0.0935  0.3735
 2357SOL    HW119049   6.892   1.155   3.543  1.3679 -0.8472 -1.5208
 2357SOL    HW219050   6.744   1.133   3.525  0.2458  2.2230  2.4756
 2358SOL     OW19051   8.762   2.417   2.402 -0.4306  0.3754 -0.0983
 2358SOL    HW119052   8.715   2.339   2.371  0.0156  1.0851 -2.8278
 2358SOL    HW219053   8.837   2.383   2.450 -0.4561 -0.8725 -0.9047
 2359SOL     OW19054   2.478   2.620   5.606  0.0604 -0.4172  0.0209
 2359SOL    HW119055   2.423   2.612   5.528 -1.0820 -2.4439  0.9411
 2359SOL    HW219056   2.554   2.565   5.587  0.3054 -0.0409 -0.0850
 2360SOL     OW19057   5.034   8.036   9.006 -0.3032 -0.4941  0.2109
 2360SOL    HW119058   5.050   7.943   8.989 -1.0109 -0.5826 -0.0447
 2360SOL    HW219059   5.047   8.046   9.100 -0.8496 -1.0010  0.3499
 2361SOL     OW19060   2.379   1.136   2.046 -0.3554 -0.0651  0.0534
 2361SOL    HW119061   2.452   1.198   2.042 -0.6586  0.2146 -1.9258
 2361SOL    HW219062   2.418   1.055   2.080  0.3452  0.7475  1.2831
 2362SOL     OW19063   6.900   1.590   5.969 -0.0537 -0.0206  0.0499
 2362SOL    HW119064   6.814   1.628   5.989  0.2189 -0.3875  2.0681
 2362SOL    HW219065   6.953   1.609   6.046  1.2094 -1.2363 -0.4865
 2363SOL     OW19066   2.758   5.422   9.590  0.5647 -0.1156  0.0881
 2363SOL    HW119067   2.718   5.353   9.536  0.0546  0.2018  0.0529
 2363SOL    HW219068   2.725   5.406   9.678 -0.5901  0.8440 -0.1524
 2364SOL     OW19069   7.329   2.111   6.679 -0.5775  0.0633  0.2651
 2364SOL    HW119070   7.381   2.163   6.619 -1.7522 -0.2436 -1.0796
 2364SOL    HW219071   7.248   2.161   6.692 -0.2584  0.2442  1.8173
 2365SOL     OW19072   0.964   1.326   6.260  0.0672 -0.1217 -0.4778
 2365SOL    HW119073   0.997   1.388   6.195  1.1244  0.8385  0.8938
 2365SOL    HW219074   0.892   1.373   6.303  0.2002 -0.2470 -0.1178
 2366SOL     OW19075   1.747   6.865   1.672 -0.0902 -0.2182  0.3854
 2366SOL    HW119076   1.810   6.857   1.743 -0.6808 -1.0251  0.8407
 2366SOL    HW219077   1.744   6.959   1.652  0.8827 -0.1143  0.6747
 2367SOL     OW19078   2.603  10.230   6.299 -0.3385  0.1176  0.1726
 2367SOL    HW119079   2.607  10.135   6.304 -1.3201 -0.0903 -1.7393
 2367SOL    HW219080   2.517  10.252   6.334 -0.5568  0.1746 -0.3820
 2368SOL     OW19081   5.172   3.669   8.584 -1.0061 -0.0787 -0.5587
 2368SOL    HW119082   5.157   3.632   8.497 -2.1439 -0.3198 -0.2808
 2368SOL    HW219083   5.181   3.763   8.569  2.1842 -0.3948 -1.3064
 2369SOL     OW19084   8.510   4.340   9.681  0.1335  0.1293 -0.3133
 2369SOL    HW119085   8.537   4.389   9.759 -0.6371  0.1832 -0.0788
 2369SOL    HW219086   8.547   4.389   9.608 -0.9823  1.3123 -0.1077
 2370SOL     OW19087   0.092   8.732   5.299 -0.1371 -0.3998 -0.5752
 2370SOL    HW119088   0.130   8.646   5.279  1.3453  0.1018 -0.0657
 2370SOL    HW219089   0.049   8.719   5.384  2.2999 -0.0622  0.7941
 2371SOL     OW19090   9.545   0.255   9.276  0.8041  0.2969 -0.0945
 2371SOL    HW119091   9.572   0.344   9.252  0.1814  0.7201  0.7554
 2371SOL    HW219092   9.462   0.242   9.231  1.3975 -0.2599 -1.0687
 2372SOL     OW19093   9.764   5.755   9.544 -0.1065  0.2652 -0.2311
 2372SOL    HW119094   9.741   5.847   9.555  0.0914  0.3279 -0.3383
 2372SOL    HW219095   9.709   5.709   9.608 -1.2948  0.3038 -1.1877
 2373SOL     OW19096   2.244   3.008   1.728  0.0773 -0.5146  0.2227
 2373SOL    HW119097   2.182   3.069   1.688 -0.8094 -1.4605  0.1122
 2373SOL    HW219098   2.284   3.058   1.799  0.5009  0.6785 -0.8036
 2374SOL     OW19099   9.491   0.755   9.150 -0.4304 -0.3913  0.4127
 2374SOL    HW119100   9.475   0.817   9.079 -0.9900 -0.9598  0.0225
 2374SOL    HW219101   9.488   0.669   9.107 -1.1830 -0.7638  1.1951
 2375SOL     OW19102   5.062  10.227   7.563 -0.2641 -0.0504 -0.1619
 2375SOL    HW119103   5.003  10.245   7.489 -0.2228 -2.1931 -0.7778
 2375SOL    HW219104   5.073  10.312   7.605 -2.7970  0.6670 -0.7466
 2376SOL     OW19105   6.807   7.175   0.211 -0.4468 -0.2214  0.4897
 2376SOL    HW119106   6.829   7.261   0.176 -1.7297 -0.2762 -0.5107
 2376SOL    HW219107   6.834   7.114   0.143 -0.6922 -0.5180  0.6555
 2377SOL     OW19108   0.027   1.481   4.883  0.3087 -0.2162  0.0095
 2377SOL    HW119109  -0.026   1.507   4.958 -0.2227  0.7199 -0.6734
 2377SOL    HW219110   0.008   1.388   4.871 -1.2404  0.1168 -0.2536
 2378SOL     OW19111   3.708   5.110   8.014 -0.0674 -0.2303  0.4496
 2378SOL    HW119112   3.695   5.157   8.096 -0.3397 -0.5987  0.6187
 2378SOL    HW219113   3.759   5.033   8.038 -1.5844 -1.2370  0.5687
 2379SOL     OW19114   8.260   1.037   9.877 -0.4842  0.0857 -0.0859
 2379SOL    HW119115   8.340   1.007   9.920 -0.0156  0.6537 -0.5400
 2379SOL    HW219116   8.245   0.973   9.807  0.1113  0.4987 -0.6003
 2380SOL     OW19117   4.184   0.487   1.008  0.5588  0.2007 -0.0865
 2380SOL    HW119118   4.094   0.462   1.030  0.6002 -0.8970 -1.0703
 2380SOL    HW219119   4.181   0.582   0.999 -0.4522  0.1993  0.1308
 2381SOL     OW19120   9.322   2.894   9.327 -0.0543  0.6284 -0.1586
 2381SOL    HW119121   9.318   2.807   9.366 -0.1232  0.9232  0.4925
 2381SOL    HW219122   9.388   2.887   9.258 -1.0411 -0.3090 -1.0407
 2382SOL     OW19123   7.900   9.052   7.840 -0.5401 -0.2268 -0.0021
 2382SOL    HW119124   7.836   8.984   7.862 -1.0303  0.2896  0.1742
 2382SOL    HW219125   7.968   9.043   7.906 -0.3472 -0.8809 -0.2815
 2383SOL     OW19126   9.526   4.270   2.279  0.2570 -0.0659  0.2434
 2383SOL    HW119127   9.596   4.208   2.300 -0.3700 -0.8373  0.0951
 2383SOL    HW219128   9.462   4.260   2.349 -1.1520 -1.5911 -1.1652
 2384SOL     OW19129   3.818   9.907   6.691  0.4392  0.1783 -0.0078
 2384SOL    HW119130   3.759   9.900   6.615  0.9259  0.3362 -0.4068
 2384SOL    HW219131   3.798   9.993   6.728 -0.4150 -0.2505  0.5755
 2385SOL     OW19132   1.723   2.009   6.213 -0.4258  0.3760 -0.0878
 2385SOL    HW119133   1.784   2.016   6.286  0.2695 -0.9275 -0.5082
 2385SOL    HW219134   1.766   1.949   6.151 -1.8891 -0.1599 -0.6400
 2386SOL     OW19135  10.099   4.160   4.894 -0.2116  0.0821 -0.0656
 2386SOL    HW119136  10.159   4.108   4.840  0.2204 -0.3063  0.7553
 2386SOL    HW219137  10.031   4.190   4.834  0.8772  0.6447 -1.0560
 2387SOL     OW19138   8.062   9.479   7.086  0.4874  0.6842  0.2100
 2387SOL    HW119139   8.122   9.405   7.076 -0.4040 -0.1112  0.6466
 2387SOL    HW219140   8.116   9.549   7.124  1.4262  0.4038 -0.5513
 2388SOL     OW19141   1.460   3.437   1.494  0.2505  0.0547 -0.9290
 2388SOL    HW119142   1.412   3.400   1.569  1.3291 -0.4047 -0.4443
 2388SOL    HW219143   1.399   3.501   1.456 -0.2477  0.4433  0.4553
 2389SOL     OW19144   6.800   5.182   5.607 -0.1036 -0.2351  0.1393
 2389SOL    HW119145   6.832   5.146   5.690 -0.4807  0.5686  0.6471
 2389SOL    HW219146   6.828   5.119   5.541  0.2377 -0.8674  0.8737
 2390SOL     OW19147   2.206   6.226   9.358 -0.2042  0.7319 -0.3120
 2390SOL    HW119148   2.280   6.196   9.305 -0.4417 -0.5891  0.0589
 2390SOL    HW219149   2.185   6.151   9.415  0.6572  2.3863  2.3616
 2391SOL     OW19150   1.522   8.156   5.475 -0.2081 -0.1196 -0.5890
 2391SOL    HW119151   1.613   8.174   5.452  0.5123 -0.4515  1.7193
 2391SOL    HW219152   1.517   8.060   5.480 -0.2357 -0.0785  0.7177
 2392SOL     OW19153   1.057   5.977   7.220  0.2896  0.2512 -0.2432
 2392SOL    HW119154   1.032   6.067   7.241  0.4527  0.8318 -2.3552
 2392SOL    HW219155   1.094   5.944   7.302 -3.4364  0.6943  1.8264
 2393SOL     OW19156   1.559  10.277   8.583 -0.8612 -0.6519 -0.0519
 2393SOL    HW119157   1.588  10.186   8.579 -0.0889 -0.3942 -0.4802
 2393SOL    HW219158   1.589  10.316   8.501 -2.7608 -0.4488 -0.7057
 2394SOL     OW19159   3.165   5.821  10.055  0.3228 -0.3537 -0.3947
 2394SOL    HW119160   3.088   5.766  10.069 -0.2729  0.8629  1.4607
 2394SOL    HW219161   3.198   5.794   9.969 -0.1002 -3.3649  0.2895
 2395SOL     OW19162   8.852   3.580   3.539  0.0068 -0.2168 -0.4383
 2395SOL    HW119163   8.798   3.546   3.468  0.3994 -1.3912 -0.1979
 2395SOL    HW219164   8.864   3.505   3.598  2.1847 -0.1078 -0.6686
 2396SOL     OW19165   3.702  10.032   6.247  0.1860  0.2382 -0.0734
 2396SOL    HW119166   3.733  10.105   6.300 -1.1687  0.7914  0.0035
 2396SOL    HW219167   3.613  10.058   6.220 -0.4671 -1.5198  0.2543
 2397SOL     OW19168   5.232   4.876   9.770  0.0504  0.7704 -0.7569
 2397SOL    HW119169   5.213   4.841   9.857  1.3630  0.2832 -0.6395
 2397SOL    HW219170   5.252   4.969   9.785  0.8850  0.5494 -0.4337
 2398SOL     OW19171   8.332   4.473   5.212 -0.0356 -0.0472  0.4324
 2398SOL    HW119172   8.411   4.465   5.159  0.0462  0.3752  0.4884
 2398SOL    HW219173   8.262   4.491   5.150 -0.0635 -0.2727  0.3977
 2399SOL     OW19174   9.446   3.658   7.198  0.5004 -0.1564 -0.2263
 2399SOL    HW119175   9.521   3.601   7.213 -0.3356 -1.0981  0.5227
 2399SOL    HW219176   9.370   3.604   7.219 -0.3290  1.2066  0.4432
 2400SOL     OW19177   5.386   3.639   8.070  0.0348  0.8928 -0.1391
 2400SOL    HW119178   5.388   3.709   8.136  1.1127  0.4474  0.3305
 2400SOL    HW219179   5.361   3.561   8.120  2.0741  0.2942  0.0504
 2401SOL     OW19180   2.265   0.260   1.528  0.2260 -0.3925  0.0346
 2401SOL    HW119181   2.289   0.352   1.540 -1.7409  0.0816  0.6937
 2401SOL    HW219182   2.250   0.227   1.617 -0.0644 -1.0549 -0.2508
 2402SOL     OW19183   9.618   5.979   1.200 -0.2611 -0.4489 -0.2923
 2402SOL    HW119184   9.615   6.015   1.289 -1.7998  0.4183 -0.6604
 2402SOL    HW219185   9.671   5.900   1.208 -1.2577 -0.9764  1.6072
 2403SOL     OW19186   0.322   9.157   6.094  0.0698  0.6099  0.6909
 2403SOL    HW119187   0.282   9.169   6.181 -1.4215 -3.8389  0.9053
 2403SOL    HW219188   0.412   9.129   6.113  0.4903  1.8664  0.6317
 2404SOL     OW19189   6.207   3.455   3.723  0.3746 -0.5663 -0.5173
 2404SOL    HW119190   6.250   3.540   3.721 -3.1804  1.4723  0.3506
 2404SOL    HW219191   6.190   3.435   3.630  0.0381  0.4091 -0.6798
 2405SOL     OW19192   5.355   9.965  10.316  0.3541  0.2077 -0.5485
 2405SOL    HW119193   5.419   9.918  10.263 -0.4556 -1.3286 -0.2380
 2405SOL    HW219194   5.408  10.022  10.372  1.4176 -0.6516 -0.6406
 2406SOL     OW19195   5.613   5.035   5.788  0.5345 -0.8158 -0.2480
 2406SOL    HW119196   5.633   5.061   5.698 -0.3699  1.4648  0.1417
 2406SOL    HW219197   5.517   5.031   5.791  0.5840 -2.1187  0.3278
 2407SOL     OW19198   1.222   3.766   5.973  0.3450  0.0026  0.2658
 2407SOL    HW119199   1.206   3.675   5.948 -1.4379  0.6995 -1.3800
 2407SOL    HW219200   1.173   3.777   6.055  2.3155 -1.0317  1.6498
 2408SOL     OW19201   7.474   5.320   0.835  0.3863  0.2809 -0.1576
 2408SOL    HW119202   7.459   5.300   0.743  2.3966  1.8162 -0.9181
 2408SOL    HW219203   7.552   5.269   0.859  0.6283  0.8472  0.3067
 2409SOL     OW19204   8.531   2.211   5.369  0.5898  0.4400 -0.0276
 2409SOL    HW119205   8.596   2.280   5.383  0.5221  0.2486  1.2801
 2409SOL    HW219206   8.460   2.232   5.429 -0.4223  0.4387 -1.1853
 2410SOL     OW19207   5.882   4.990   9.671  0.2112  0.3408  0.8454
 2410SOL    HW119208   5.859   4.897   9.669  0.7975  0.1279 -2.6203
 2410SOL    HW219209   5.800   5.035   9.689 -0.3914 -0.7910  1.0381
 2411SOL     OW19210   9.014   0.764   2.195 -0.3359  0.3157 -0.1612
 2411SOL    HW119211   9.060   0.792   2.116  0.5644  0.3529  0.3683
 2411SOL    HW219212   9.083   0.750   2.260 -0.8930 -1.3899  0.1248
 2412SOL     OW19213   1.564   8.118   1.619  0.2494  0.7485  0.2652
 2412SOL    HW119214   1.631   8.187   1.613  0.3099  0.6756  0.1013
 2412SOL    HW219215   1.488   8.155   1.573  1.2567 -0.4662 -2.5877
 2413SOL     OW19216   4.859   4.303   6.560 -0.0833 -0.1077 -0.4888
 2413SOL    HW119217   4.952   4.300   6.540 -0.0247  0.0340 -0.2445
 2413SOL    HW219218   4.816   4.263   6.485  0.1694 -0.0944 -0.6379
 2414SOL     OW19219   0.032   2.275   2.330 -0.0467  0.0000  0.1403
 2414SOL    HW119220  -0.009   2.256   2.414  2.0814 -0.8122  1.0835
 2414SOL    HW219221   0.120   2.304   2.352  0.0053  1.5160 -1.7724
 2415SOL     OW19222   6.678   1.295   9.677 -0.4933 -0.2551  0.0244
 2415SOL    HW119223   6.641   1.380   9.653 -0.9152 -0.1520  1.0061
 2415SOL    HW219224   6.658   1.238   9.602  0.2366  0.6205 -0.8661
 2416SOL     OW19225   0.874   1.569   2.214 -0.0062  0.0465  0.2775
 2416SOL    HW119226   0.785   1.585   2.183 -0.7796  0.5261  2.5659
 2416SOL    HW219227   0.923   1.547   2.135 -1.7054  1.6422 -1.3190
 2417SOL     OW19228   8.845   9.400   6.616 -0.3771  0.0519  0.7324
 2417SOL    HW119229   8.814   9.354   6.694 -0.0960 -0.7006  0.4189
 2417SOL    HW219230   8.937   9.420   6.634 -0.1387 -0.6500  0.3877
 2418SOL     OW19231   6.858   9.482   3.111  0.0241  0.0548  0.4868
 2418SOL    HW119232   6.827   9.412   3.169 -0.3205  1.2155  1.7493
 2418SOL    HW219233   6.917   9.438   3.050 -1.0744 -1.5328  0.5132
 2419SOL     OW19234   2.246   2.306  10.061  0.2023  0.4616  0.1662
 2419SOL    HW119235   2.337   2.297  10.033  0.0163 -1.5778  0.1187
 2419SOL    HW219236   2.196   2.259   9.994 -0.4967 -2.1688  2.3920
 2420SOL     OW19237   1.499   0.320   8.335 -0.2107  0.0363 -0.1752
 2420SOL    HW119238   1.520   0.235   8.374 -0.1177 -0.1398 -0.6065
 2420SOL    HW219239   1.406   0.312   8.311 -0.4518  0.3736  0.5879
 2421SOL     OW19240   7.097   1.285   1.339  0.3936  0.0883 -0.1642
 2421SOL    HW119241   7.142   1.368   1.356  0.3407  0.0034  0.3893
 2421SOL    HW219242   7.092   1.242   1.424 -1.3584  0.4039 -0.0689
 2422SOL     OW19243   1.927   8.902   9.108  0.2118 -0.4763 -0.0219
 2422SOL    HW119244   1.847   8.854   9.087  0.5488 -0.3236 -1.8296
 2422SOL    HW219245   1.914   8.988   9.070  0.7281 -0.0243  0.8039
 2423SOL     OW19246  10.320   4.696  10.248  0.5827  0.1651 -0.4734
 2423SOL    HW119247  10.241   4.695  10.193 -1.3508  1.4130  2.0414
 2423SOL    HW219248  10.288   4.671  10.335  3.0769  0.2863  0.5476
 2424SOL     OW19249   8.943   4.935   8.984  0.0220  0.5403  0.1851
 2424SOL    HW119250   9.025   4.887   8.977  0.5048  1.3635  0.1612
 2424SOL    HW219251   8.968   5.025   9.003 -0.7266  1.3959 -2.3999
 2425SOL     OW19252   9.041   7.296   6.886  0.3627  0.2737 -0.2259
 2425SOL    HW119253   9.005   7.213   6.856  1.6475 -1.2386  2.0492
 2425SOL    HW219254   9.036   7.354   6.811 -4.4365 -0.4960 -0.7935
 2426SOL     OW19255   4.374   0.012   5.093  0.8817 -0.2723  0.0857
 2426SOL    HW119256   4.323   0.063   5.156 -0.3644 -0.9265 -0.3613
 2426SOL    HW219257   4.349  -0.079   5.109  0.8131 -0.4796 -1.1012
 2427SOL     OW19258   1.698   4.591   7.363  0.6050 -0.1221  0.0780
 2427SOL    HW119259   1.715   4.659   7.299  1.8125 -0.9864 -0.5381
 2427SOL    HW219260   1.762   4.605   7.432 -0.4509  0.5783  0.9624
 2428SOL     OW19261   3.219   4.414   8.030  0.3272 -0.1688 -0.1332
 2428SOL    HW119262   3.283   4.347   8.005  1.0266  0.3370  0.2494
 2428SOL    HW219263   3.153   4.367   8.080  2.0752 -0.2478  2.2743
 2429SOL     OW19264   1.901  10.354   8.935 -0.7612 -0.0400 -0.0351
 2429SOL    HW119265   1.920  10.440   8.972  1.0437 -0.5011  0.1743
 2429SOL    HW219266   1.810  10.360   8.906 -0.8385  1.7474  0.4906
 2430SOL     OW19267   9.869   2.858   8.721 -0.1065  0.4894  0.1279
 2430SOL    HW119268   9.924   2.870   8.798 -1.7818 -0.0799  1.4779
 2430SOL    HW219269   9.930   2.842   8.650  1.4559 -1.8375  1.8459
 2431SOL     OW19270   6.544   4.110   8.072 -0.4073 -0.1718 -0.3123
 2431SOL    HW119271   6.497   4.029   8.092  1.9085 -1.5777 -0.1895
 2431SOL    HW219272   6.562   4.105   7.978  0.1691 -0.0604 -0.2131
 2432SOL     OW19273   4.905   9.239   8.929  0.5226  0.2302  0.4576
 2432SOL    HW119274   4.855   9.170   8.886  1.6236 -1.6498  2.0119
 2432SOL    HW219275   4.993   9.231   8.894  0.2317  2.3483 -0.9433
 2433SOL     OW19276   0.770   9.597   1.714 -0.0008 -0.1640 -0.0293
 2433SOL    HW119277   0.863   9.576   1.725  0.7776  2.3961 -1.0878
 2433SOL    HW219278   0.734   9.522   1.666  1.4438 -1.2966  0.5842
 2434SOL     OW19279   7.215   1.907   8.579 -0.1685 -0.2710 -0.2962
 2434SOL    HW119280   7.258   1.834   8.534  0.5510  0.2609 -0.4709
 2434SOL    HW219281   7.284   1.971   8.594 -1.1969  1.3040 -2.0237
 2435SOL     OW19282   3.755   0.146   5.802  0.6498  0.5487  0.2942
 2435SOL    HW119283   3.845   0.117   5.816  1.2894  2.6383  0.8463
 2435SOL    HW219284   3.702   0.067   5.815  2.2496 -0.3446  1.7503
 2436SOL     OW19285   0.006   0.788   2.359 -0.1194  0.4962  0.3734
 2436SOL    HW119286   0.048   0.833   2.433 -1.3736  0.9322  0.8448
 2436SOL    HW219287  -0.069   0.743   2.398 -0.8937  0.8660 -0.6612
 2437SOL     OW19288   6.000   8.909   8.630  0.3175 -0.1702  0.2322
 2437SOL    HW119289   6.045   8.829   8.604  1.1941  0.9686 -2.0576
 2437SOL    HW219290   6.063   8.957   8.683  0.6172 -0.0198 -0.2562
 2438SOL     OW19291   6.113   6.974   2.242  0.3601  0.2022 -0.5629
 2438SOL    HW119292   6.198   7.018   2.232  0.3346  0.3669 -0.1009
 2438SOL    HW219293   6.079   6.967   2.153  0.6238  0.6107 -0.7028
 2439SOL     OW19294   4.648   1.092   2.666 -0.1200  0.4273  0.7098
 2439SOL    HW119295   4.565   1.134   2.643 -0.8364 -0.9874  0.6167
 2439SOL    HW219296   4.715   1.157   2.643 -1.0950  0.9682 -0.7865
 2440SOL     OW19297   9.462   3.911   0.588 -0.1867 -0.1322 -0.6810
 2440SOL    HW119298   9.521   3.914   0.513  0.6499  0.3512 -0.0165
 2440SOL    HW219299   9.519   3.894   0.663 -0.4886  2.8420  0.3511
 2441SOL     OW19300   3.467   7.935   6.249  0.2865  0.7252 -0.1533
 2441SOL    HW119301   3.556   7.952   6.278  0.3287  2.4727 -1.2064
 2441SOL    HW219302   3.412   7.987   6.307  0.0516  0.8225 -0.4621
 2442SOL     OW19303   2.520   5.915   7.994 -0.3067  0.5535 -0.1805
 2442SOL    HW119304   2.585   5.851   7.963 -1.6355 -0.6334 -0.6461
 2442SOL    HW219305   2.473   5.941   7.916 -1.6271 -0.0742  0.3663
 2443SOL     OW19306   2.576   4.699   0.969  0.6763  0.4391  0.0073
 2443SOL    HW119307   2.668   4.724   0.976  0.3482  1.2184  1.9855
 2443SOL    HW219308   2.568   4.622   1.026  0.3417 -0.4198 -1.1568
 2444SOL     OW19309   1.002   5.077   0.622 -0.5019  0.5293  0.2995
 2444SOL    HW119310   1.027   4.996   0.578  1.4655  0.3149  1.6883
 2444SOL    HW219311   0.915   5.058   0.658 -1.4092  0.1401 -1.9336
 2445SOL     OW19312   4.138   3.906   6.716 -0.1445 -0.2357 -0.0663
 2445SOL    HW119313   4.107   3.953   6.793  1.9686 -0.2190  0.8402
 2445SOL    HW219314   4.099   3.952   6.642 -2.5140 -0.4612  0.9372
 2446SOL     OW19315   3.498   3.475   6.618 -0.1312 -0.0758 -0.2283
 2446SOL    HW119316   3.554   3.547   6.589 -0.3784 -0.5554 -2.0039
 2446SOL    HW219317   3.544   3.396   6.589 -0.0765 -0.6455  1.3182
 2447SOL     OW19318   0.911   0.545   2.224  1.0932  0.1973 -0.2772
 2447SOL    HW119319   0.924   0.504   2.310 -0.8851 -1.5444 -0.7522
 2447SOL    HW219320   0.820   0.526   2.202  1.0387  2.1871 -1.9800
 2448SOL     OW19321   6.597  10.378  10.207 -0.2312  0.0852 -0.0120
 2448SOL    HW119322   6.539  10.425  10.266 -1.1630 -0.4368 -0.4919
 2448SOL    HW219323   6.572  10.409  10.119 -0.4370 -0.8369 -0.2882
 2449SOL     OW19324   1.745   7.228   5.797  0.2047  0.6892  0.0292
 2449SOL    HW119325   1.720   7.233   5.889  0.5068  0.4200  0.1290
 2449SOL    HW219326   1.839   7.247   5.797 -0.1252  2.5439 -0.4248
 2450SOL     OW19327   5.787   5.815   5.511 -0.3870  0.5689  0.2418
 2450SOL    HW119328   5.692   5.823   5.510 -0.4642  0.3784 -2.5643
 2450SOL    HW219329   5.804   5.736   5.562 -1.8042  0.0670 -0.0146
 2451SOL     OW19330   5.723   7.720   8.233 -0.0543  0.0413 -0.8381
 2451SOL    HW119331   5.711   7.640   8.285 -2.4248  1.1705  0.5023
 2451SOL    HW219332   5.636   7.760   8.230  0.6767  1.6420 -3.0896
 2452SOL     OW19333   4.097   3.326   3.690 -0.7010  0.2916  0.3812
 2452SOL    HW119334   4.004   3.334   3.671 -0.5755  2.1254  0.3665
 2452SOL    HW219335   4.141   3.356   3.611 -0.1522  2.1713  1.3270
 2453SOL     OW19336   7.244   5.512   1.355 -0.5544 -0.1865 -0.4845
 2453SOL    HW119337   7.330   5.486   1.387 -1.2605 -0.7688  1.0130
 2453SOL    HW219338   7.246   5.490   1.261  0.8682 -0.3103 -0.4439
 2454SOL     OW19339   6.732   3.013   6.647  0.0456  0.0474 -0.3822
 2454SOL    HW119340   6.668   2.945   6.668 -0.9595  0.2907 -2.4608
 2454SOL    HW219341   6.704   3.048   6.563  0.6763  2.8640  0.4615
 2455SOL     OW19342   0.047   3.851  10.318 -0.1511  0.3347 -0.3346
 2455SOL    HW119343   0.077   3.771  10.276 -0.7117  0.2584 -0.6112
 2455SOL    HW219344  -0.014   3.821  10.385 -1.0985  0.5551 -1.0683
 2456SOL     OW19345   4.612   3.153   5.906 -0.5361 -0.2804  0.1144
 2456SOL    HW119346   4.675   3.202   5.960 -1.4221 -0.5726  1.4521
 2456SOL    HW219347   4.603   3.069   5.950 -1.2202 -0.5702 -0.5596
 2457SOL     OW19348   1.817   6.650   1.032  0.1463  0.4498  0.2188
 2457SOL    HW119349   1.744   6.599   1.066 -0.5083  1.0760 -0.2268
 2457SOL    HW219350   1.780   6.737   1.014  1.3383  1.2553  1.4370
 2458SOL     OW19351   9.846   5.871   0.401 -0.7754  0.1142  0.4615
 2458SOL    HW119352   9.851   5.813   0.477 -0.9336  0.6241  0.8673
 2458SOL    HW219353   9.752   5.881   0.385 -0.7280 -1.3795 -0.8885
 2459SOL     OW19354   6.952   3.949   7.912 -0.6612  0.1988 -0.1359
 2459SOL    HW119355   6.990   3.873   7.869  2.0201  0.9668  0.6948
 2459SOL    HW219356   6.989   4.024   7.867 -1.7657  1.0317  0.2858
 2460SOL     OW19357   9.935   6.409   3.516  0.0898 -0.2119 -0.0435
 2460SOL    HW119358   9.959   6.378   3.603  1.4776  2.3078  0.5607
 2460SOL    HW219359   9.866   6.474   3.532  0.4104  0.3256 -0.7943
 2461SOL     OW19360   9.332  10.200   7.259 -0.6137 -0.3981 -0.2782
 2461SOL    HW119361   9.343  10.114   7.301 -2.9016 -1.0217 -0.8026
 2461SOL    HW219362   9.271  10.183   7.186 -0.0195  1.4320 -1.2648
 2462SOL     OW19363   0.740   1.492   1.790 -0.9149  0.0959 -0.0371
 2462SOL    HW119364   0.689   1.455   1.717 -0.3814 -0.5103 -0.1134
 2462SOL    HW219365   0.755   1.417   1.848 -0.3957  0.3458  0.1485
 2463SOL     OW19366   2.578   2.719  10.072  0.2700 -0.1874  0.3826
 2463SOL    HW119367   2.631   2.677  10.004  0.6545  0.0487  0.5349
 2463SOL    HW219368   2.516   2.651  10.099  0.2010 -0.3205 -0.1134
 2464SOL     OW19369   5.749   3.830   7.818  0.1194  0.7795  0.0093
 2464SOL    HW119370   5.844   3.819   7.816 -0.0216 -0.6318  0.6211
 2464SOL    HW219371   5.736   3.922   7.794  1.6367  1.0366  0.0648
 2465SOL     OW19372   7.149   4.755   7.139  0.3689 -0.6246 -0.0876
 2465SOL    HW119373   7.145   4.844   7.175 -0.2662  0.4210 -2.5494
 2465SOL    HW219374   7.127   4.699   7.213 -1.0721  1.3891  1.1169
 2466SOL     OW19375   6.857   6.436   1.238 -0.4082  0.3005 -0.7878
 2466SOL    HW119376   6.815   6.368   1.184 -1.1943 -0.2470  0.4600
 2466SOL    HW219377   6.931   6.466   1.186 -0.8907 -0.5044 -1.9829
 2467SOL     OW19378   9.686   9.814   2.183 -0.4905 -0.0525 -0.1632
 2467SOL    HW119379   9.676   9.736   2.128 -2.2171  0.0797 -0.1078
 2467SOL    HW219380   9.683   9.782   2.273  1.5247 -0.1821 -0.1104
 2468SOL     OW19381   5.137   7.987   2.777  0.6886 -0.2775 -0.1339
 2468SOL    HW119382   5.220   7.960   2.739 -0.1218 -2.5232 -0.4379
 2468SOL    HW219383   5.111   7.914   2.833 -1.7543 -0.2689 -1.1526
 2469SOL     OW19384   2.765   9.107   8.336  0.3069  0.3174  0.0695
 2469SOL    HW119385   2.704   9.043   8.300  1.1908 -0.2192 -0.5318
 2469SOL    HW219386   2.776   9.172   8.267  0.3139  0.4808  0.2244
 2470SOL     OW19387   0.899   5.970   8.430  0.1352  0.4677  0.0964
 2470SOL    HW119388   0.855   5.890   8.402  3.7936 -1.7338 -0.0030
 2470SOL    HW219389   0.865   5.988   8.517 -3.0975  0.8009 -1.1084
 2471SOL     OW19390   6.039   3.594   6.852  0.0783 -0.3217 -0.5964
 2471SOL    HW119391   6.036   3.665   6.788  0.3246 -1.4237 -1.8783
 2471SOL    HW219392   6.008   3.634   6.933  1.5083  1.6116 -0.9152
 2472SOL     OW19393   0.548   8.779   9.566 -0.3075  0.0396 -0.0424
 2472SOL    HW119394   0.621   8.832   9.536 -0.5240  1.0604  1.1699
 2472SOL    HW219395   0.480   8.842   9.589 -1.8448 -0.8973 -1.7263
 2473SOL     OW19396   3.994   2.112   6.042 -0.3250 -0.5418  0.1283
 2473SOL    HW119397   4.035   2.163   6.111 -1.3946 -0.4184  0.6831
 2473SOL    HW219398   3.917   2.162   6.017 -0.4610 -1.0529 -0.5117
 2474SOL     OW19399   9.119   4.034   6.359 -0.5012  0.3163  0.3792
 2474SOL    HW119400   9.209   4.054   6.386 -0.0030  1.2682 -1.7748
 2474SOL    HW219401   9.115   3.938   6.359  1.3941  0.1321 -1.8479
 2475SOL     OW19402   4.096   4.239   0.950  0.2221  0.1095 -0.3627
 2475SOL    HW119403   4.081   4.333   0.947 -0.4147  0.0076 -0.4789
 2475SOL    HW219404   4.041   4.204   0.880 -1.7313 -0.6353  1.4458
 2476SOL     OW19405   8.176   7.718   6.861  0.1282 -0.1135 -0.2812
 2476SOL    HW119406   8.204   7.749   6.775  1.4576  1.0642  0.5199
 2476SOL    HW219407   8.181   7.623   6.856  0.7035 -0.0412 -1.3401
 2477SOL     OW19408   5.604   5.345   1.167  0.2133  0.3850 -0.2560
 2477SOL    HW119409   5.577   5.295   1.091  0.3082 -0.3317  0.1722
 2477SOL    HW219410   5.533   5.407   1.183  0.0781  0.3579 -0.7652
 2478SOL     OW19411   6.631   2.997   5.173  0.2224  0.2071 -0.2809
 2478SOL    HW119412   6.623   3.069   5.235  0.6734  0.1685 -0.1765
 2478SOL    HW219413   6.557   3.009   5.113  0.0950  0.5531 -0.0586
 2479SOL     OW19414   7.561  10.196   5.498 -0.1232  0.0994  0.1114
 2479SOL    HW119415   7.490  10.253   5.527  0.2475  0.5948  0.0586
 2479SOL    HW219416   7.616  10.185   5.575  0.0168  0.1312  0.0169
 2480SOL     OW19417  10.352   7.433   7.644  0.3305  0.4408  0.1445
 2480SOL    HW119418  10.353   7.396   7.556  1.9199  0.5840  0.0758
 2480SOL    HW219419  10.392   7.519   7.635 -0.7160  1.0286  0.8006
 2481SOL     OW19420   8.234   8.964   2.373  0.1662 -0.0773  0.7489
 2481SOL    HW119421   8.254   9.052   2.405 -2.6630  0.4188  1.4156
 2481SOL    HW219422   8.204   8.978   2.284 -0.0080 -0.4039  0.7575
 2482SOL     OW19423   3.382   2.082   6.418 -0.0938  0.1357 -0.8375
 2482SOL    HW119424   3.426   2.016   6.473 -0.5296  0.2740 -0.3139
 2482SOL    HW219425   3.377   2.159   6.474 -1.2327  0.0422 -0.7958
 2483SOL     OW19426   4.679   8.255   4.061  0.2581  0.3901 -0.9762
 2483SOL    HW119427   4.649   8.345   4.071 -0.8990 -0.1799  6.2697
 2483SOL    HW219428   4.603   8.207   4.029 -0.9197  1.4034  0.1836
 2484SOL     OW19429   6.282   2.916   7.818  0.3297 -0.2320  0.1347
 2484SOL    HW119430   6.367   2.961   7.819  1.6845 -2.6127 -0.3241
 2484SOL    HW219431   6.261   2.903   7.911 -0.3677  1.7022  0.3035
 2485SOL     OW19432   5.826   3.429   7.727 -0.4780  0.1980 -0.2455
 2485SOL    HW119433   5.914   3.434   7.690 -0.6889  0.3605 -0.7405
 2485SOL    HW219434   5.778   3.373   7.666 -0.8289  0.4628 -0.2190
 2486SOL     OW19435   7.985   4.352   1.510  0.0688  0.0603  0.4216
 2486SOL    HW119436   8.045   4.310   1.449 -0.2179 -1.6783  1.2654
 2486SOL    HW219437   7.899   4.344   1.470  0.0850  0.3886  0.3167
 2487SOL     OW19438  10.014   5.448   0.778  0.2510 -0.1081  0.8954
 2487SOL    HW119439   9.963   5.367   0.792  0.7037 -1.0087 -1.9932
 2487SOL    HW219440  10.104   5.418   0.770  0.4162  0.6352 -0.2644
 2488SOL     OW19441   6.289   2.820   4.440 -0.1371 -0.1844  0.4697
 2488SOL    HW119442   6.360   2.770   4.480 -0.2148  1.6631  3.1146
 2488SOL    HW219443   6.216   2.810   4.500 -1.0142  0.8731 -0.3773
 2489SOL     OW19444   9.234   1.234   1.231  0.5881  0.0238  0.0648
 2489SOL    HW119445   9.245   1.289   1.154  0.5020 -0.4485 -0.2842
 2489SOL    HW219446   9.154   1.184   1.215  1.7834 -1.7656 -0.5886
 2490SOL     OW19447   7.379   3.979   9.440 -0.2450  0.1068 -0.3472
 2490SOL    HW119448   7.447   3.963   9.375 -1.6298 -0.5347 -1.7084
 2490SOL    HW219449   7.368   4.074   9.440  0.1701  0.1582 -0.6115
 2491SOL     OW19450   3.558   8.213   9.755 -0.0090  0.0721 -0.0210
 2491SOL    HW119451   3.468   8.184   9.739 -0.6361  1.3173  0.9886
 2491SOL    HW219452   3.577   8.273   9.683  0.6477 -1.4138 -1.1383
 2492SOL     OW19453   7.833   1.014   0.535 -0.5106 -0.1555  0.3011
 2492SOL    HW119454   7.834   0.939   0.594 -1.7397  0.2006  0.8270
 2492SOL    HW219455   7.918   1.013   0.491  1.5338  0.9996  3.8751
 2493SOL     OW19456   7.491   3.141   3.823  0.0600 -0.7429 -0.5184
 2493SOL    HW119457   7.515   3.191   3.901 -3.0033  0.2125 -0.0716
 2493SOL    HW219458   7.565   3.082   3.809  1.6233  0.4874  1.8500
 2494SOL     OW19459   4.032   4.001   9.167  0.4101  0.4352 -0.2314
 2494SOL    HW119460   3.954   4.024   9.116 -1.0392 -0.4558  1.4538
 2494SOL    HW219461   4.052   3.911   9.141  0.4048  0.3981 -0.1090
 2495SOL     OW19462   5.688   3.999   5.538  0.4343  0.0900 -0.6457
 2495SOL    HW119463   5.624   4.051   5.490 -0.2065  0.5192  0.6625
 2495SOL    HW219464   5.691   3.916   5.490 -0.9645  0.1234 -0.8262
 2496SOL     OW19465   6.274   5.012   3.971 -0.2707 -0.5744 -0.0331
 2496SOL    HW119466   6.362   5.048   3.973 -0.5642  0.1327  1.4516
 2496SOL    HW219467   6.274   4.944   4.038 -0.4250 -1.7067 -1.1355
 2497SOL     OW19468   6.895   7.228   5.479  0.9366 -0.2914 -0.2681
 2497SOL    HW119469   6.916   7.292   5.411  0.1091  0.3677  0.0672
 2497SOL    HW219470   6.800   7.236   5.490  0.7504 -1.8766 -0.5020
 2498SOL     OW19471   1.317   6.302   8.879  0.4090  0.5991  0.1058
 2498SOL    HW119472   1.238   6.355   8.868  0.1940 -0.0755 -2.0377
 2498SOL    HW219473   1.367   6.318   8.799  0.1587 -2.6830 -0.8248
 2499SOL     OW19474   6.549  10.179   9.075  0.0034  0.6597 -0.2422
 2499SOL    HW119475   6.529  10.189   8.982  0.1107  2.9998 -0.0813
 2499SOL    HW219476   6.525  10.264   9.114 -3.1164 -1.2250  2.4833
 2500SOL     OW19477   3.924   9.322   6.676 -0.3164  0.0416 -0.1462
 2500SOL    HW119478   3.942   9.397   6.732  1.2702  0.0247 -0.5791
 2500SOL    HW219479   3.960   9.247   6.724  0.2333 -0.0963 -0.7484
 2501SOL     OW19480   2.956   8.022   7.330 -0.2581  0.1087  0.0329
 2501SOL    HW119481   2.931   7.961   7.261 -0.2116  0.7386 -0.5440
 2501SOL    HW219482   3.028   8.072   7.293 -2.3660  2.7774 -0.7904
 2502SOL     OW19483   7.692  10.298   3.212 -0.1838 -0.2944 -0.3376
 2502SOL    HW119484   7.754  10.369   3.196 -0.4117  0.3404  1.4184
 2502SOL    HW219485   7.622  10.338   3.264  0.2360 -2.0017  1.6859
 2503SOL     OW19486   6.066   4.181   6.233  0.1325 -0.1923 -0.1802
 2503SOL    HW119487   6.000   4.217   6.292  0.0937  1.0051 -0.9334
 2503SOL    HW219488   6.016   4.125   6.173 -0.1410  0.3567 -0.4695
 2504SOL     OW19489   2.732   4.996   0.058  0.1916 -0.2574 -0.4744
 2504SOL    HW119490   2.693   4.922   0.104 -0.2855 -0.7750 -1.6827
 2504SOL    HW219491   2.814   4.963   0.023  0.4868  0.0979 -0.1320
 2505SOL     OW19492   4.970   6.228   2.635 -0.1501  0.3667  0.1049
 2505SOL    HW119493   4.885   6.217   2.678  0.0133  0.1573  0.3808
 2505SOL    HW219494   4.954   6.204   2.543 -0.4760  0.7124  0.0698
 2506SOL     OW19495   8.915   4.388   3.739 -0.8630  0.2908  0.2919
 2506SOL    HW119496   8.953   4.472   3.768  0.6532 -0.5496  0.8382
 2506SOL    HW219497   8.914   4.395   3.644  1.3338  0.1229  0.1995
 2507SOL     OW19498   7.899   2.319   7.125 -0.0922 -0.0353  0.0697
 2507SOL    HW119499   7.838   2.246   7.119 -1.2680  0.9469 -0.5097
 2507SOL    HW219500   7.980   2.287   7.084 -0.4407 -1.1355  0.2145
 2508SOL     OW19501   1.871   9.575   3.103 -0.1064  0.1838 -0.4578
 2508SOL    HW119502   1.812   9.576   3.028  0.3838 -2.3245 -0.9859
 2508SOL    HW219503   1.924   9.496   3.090  0.1070 -0.2528  2.4603
 2509SOL     OW19504   9.885   8.750   5.017  0.0327  0.2011  0.0337
 2509SOL    HW119505   9.978   8.771   5.005  0.3459 -0.5227  1.0780
 2509SOL    HW219506   9.877   8.728   5.110 -1.5941  2.2725  0.4659
 2510SOL     OW19507   8.787   1.318   3.828  0.1516  0.3275 -0.0243
 2510SOL    HW119508   8.785   1.280   3.740  0.4077  1.3863 -0.4979
 2510SOL    HW219509   8.880   1.320   3.851  0.0314 -0.6100  0.5732
 2511SOL     OW19510   6.417   2.500  10.105  0.5729  0.7615  0.1122
 2511SOL    HW119511   6.457   2.575  10.060  1.1293  0.5977  0.3212
 2511SOL    HW219512   6.326   2.501  10.076  1.3418 -0.5529 -2.6553
 2512SOL     OW19513   0.654   2.074   5.133 -0.2976 -0.5832 -0.0820
 2512SOL    HW119514   0.740   2.038   5.110  0.7365  1.0759  0.9427
 2512SOL    HW219515   0.656   2.082   5.228 -1.5420 -0.3894 -0.0589
 2513SOL     OW19516   4.213   8.952   3.430 -0.0879 -0.8050 -0.3869
 2513SOL    HW119517   4.175   8.947   3.518 -1.2178  3.2544 -0.4311
 2513SOL    HW219518   4.303   8.982   3.445 -1.0952  2.6938 -0.4915
 2514SOL     OW19519   2.129  10.386   4.658  0.2995 -0.0173 -0.4223
 2514SOL    HW119520   2.040  10.350   4.656  0.2576  0.0167  0.3116
 2514SOL    HW219521   2.178  10.332   4.596  0.0618 -0.8804  0.1192
 2515SOL     OW19522   7.634   9.091   2.762 -0.3990 -0.7216  0.0832
 2515SOL    HW119523   7.664   9.094   2.853  0.0300 -0.2548 -0.0708
 2515SOL    HW219524   7.714   9.088   2.710 -0.3874  3.2934 -0.4609
 2516SOL     OW19525   7.815   1.120   9.028 -0.1671  0.5344  0.5288
 2516SOL    HW119526   7.888   1.155   8.976  0.0126 -1.0611 -0.3538
 2516SOL    HW219527   7.740   1.122   8.969 -0.0207 -1.0472  0.2514
 2517SOL     OW19528   0.515  10.210   4.193 -0.2202  0.5083  0.0347
 2517SOL    HW119529   0.434  10.245   4.158 -0.0477  0.4454 -0.4385
 2517SOL    HW219530   0.490  10.126   4.232 -0.0928 -0.4186 -1.7531
 2518SOL     OW19531   4.530   3.902   1.203  0.1070  0.5480  0.1707
 2518SOL    HW119532   4.576   3.918   1.285 -0.2267  0.3732  0.3930
 2518SOL    HW219533   4.566   3.968   1.143  0.3386  0.6901  0.4595
 2519SOL     OW19534   6.183  10.166   9.936 -0.0144 -0.0960 -0.1667
 2519SOL    HW119535   6.178  10.184   9.843  1.2905  0.6492 -0.1168
 2519SOL    HW219536   6.244  10.231   9.970 -0.7248 -0.1421  1.2668
 2520SOL     OW19537   8.991   6.230   2.058  0.7531  0.3079 -0.2209
 2520SOL    HW119538   8.936   6.294   2.011  1.0781 -0.9916 -2.5444
 2520SOL    HW219539   9.058   6.284   2.100  0.6577  1.5705 -1.5845
 2521SOL     OW19540   0.861   3.442   1.269 -0.3727 -0.3451  0.0162
 2521SOL    HW119541   0.880   3.506   1.337  1.6232 -2.0096  1.1051
 2521SOL    HW219542   0.800   3.487   1.210  0.3425  2.2483  1.1471
 2522SOL     OW19543   6.819   9.887   1.595  0.1798 -0.0403 -0.5027
 2522SOL    HW119544   6.873   9.931   1.529 -0.0231  1.0915  0.0640
 2522SOL    HW219545   6.735   9.874   1.551 -0.6187  2.5016  0.1010
 2523SOL     OW19546   7.876   7.684   3.946 -0.0219 -0.3476  0.5354
 2523SOL    HW119547   7.876   7.756   3.882 -0.0328  0.3538  1.3107
 2523SOL    HW219548   7.790   7.644   3.937  0.3693 -0.9718 -0.6700
 2524SOL     OW19549   5.120   7.769   8.957  0.3214  0.0449  0.3555
 2524SOL    HW119550   5.080   7.748   9.042  0.7696  0.9737  0.8219
 2524SOL    HW219551   5.086   7.703   8.897 -0.6613 -0.1330  1.0788
 2525SOL     OW19552   2.106   6.654  10.025 -0.4206 -0.1561 -0.7625
 2525SOL    HW119553   2.090   6.737   9.980  0.3215 -0.4658 -1.6317
 2525SOL    HW219554   2.100   6.676  10.118 -1.3311  0.6335 -0.9835
 2526SOL     OW19555   2.894   2.889   5.206 -0.6296 -0.4312 -0.6613
 2526SOL    HW119556   2.902   2.983   5.192  0.6479 -0.4783 -0.3752
 2526SOL    HW219557   2.954   2.870   5.278 -2.0931 -1.2245  0.3945
 2527SOL     OW19558   8.671   8.066   6.033 -0.2612  0.1426  0.0934
 2527SOL    HW119559   8.624   8.007   6.092  1.2526 -0.2354  0.9620
 2527SOL    HW219560   8.673   8.020   5.949 -0.9420 -0.0756  0.1905
 2528SOL     OW19561   5.207   7.044   1.593  0.3999 -0.0527  0.3227
 2528SOL    HW119562   5.296   7.077   1.599 -0.3091  1.8497  0.8327
 2528SOL    HW219563   5.153   7.111   1.635 -1.1539 -1.7382  1.1459
 2529SOL     OW19564   7.723   9.440   7.303  0.0543 -0.3827  0.4339
 2529SOL    HW119565   7.730   9.535   7.312  2.6249 -0.5096  0.6076
 2529SOL    HW219566   7.735   9.406   7.392 -0.9129 -0.8924  0.3840
 2530SOL     OW19567   2.801   5.956   9.141  0.2307 -0.3938 -0.2764
 2530SOL    HW119568   2.824   5.956   9.234  0.5035 -1.1648 -0.3339
 2530SOL    HW219569   2.770   6.045   9.124  1.5658  0.1873  0.2011
 2531SOL     OW19570   3.098   4.459   6.962 -0.1926  0.7563 -0.2662
 2531SOL    HW119571   3.150   4.420   6.892  0.6611  2.1842 -0.4601
 2531SOL    HW219572   3.012   4.417   6.954  0.7171 -1.2489 -0.2918
 2532SOL     OW19573   2.782   9.084   4.666  0.1680 -0.0313  0.1192
 2532SOL    HW119574   2.744   9.129   4.590  1.9484 -0.1213 -0.8626
 2532SOL    HW219575   2.778   8.991   4.644 -2.1154 -0.3479  1.5075
 2533SOL     OW19576   4.890   8.700   3.452 -0.1388  0.6142 -0.0703
 2533SOL    HW119577   4.855   8.611   3.446 -1.7518  1.2676 -0.8689
 2533SOL    HW219578   4.930   8.705   3.538  3.4191 -2.0712 -1.3090
 2534SOL     OW19579   0.481  10.070   1.801  0.4120  0.2179 -0.8215
 2534SOL    HW119580   0.422  10.111   1.738 -0.5546 -0.2396 -0.2396
 2534SOL    HW219581   0.521   9.998   1.753  1.3930  1.2234 -1.5642
 2535SOL     OW19582   9.240   4.429   8.457  0.4035 -0.3194 -0.3742
 2535SOL    HW119583   9.181   4.498   8.425  1.3811 -0.3685 -2.4401
 2535SOL    HW219584   9.183   4.368   8.504 -0.5968  1.5056  0.9125
 2536SOL     OW19585   7.316   9.636   7.896 -0.1688 -0.0135  0.1219
 2536SOL    HW119586   7.246   9.634   7.961 -0.1684 -1.0764  0.1054
 2536SOL    HW219587   7.383   9.577   7.931  1.8699  2.7958  1.3491
 2537SOL     OW19588   3.630   9.190  10.019 -0.6063  0.3612  0.4505
 2537SOL    HW119589   3.717   9.193   9.980 -0.1710  0.6845  1.4034
 2537SOL    HW219590   3.599   9.101  10.001 -0.1223  0.2766  0.0126
 2538SOL     OW19591   8.909   8.627   6.116  0.2002 -0.2820 -0.1133
 2538SOL    HW119592   8.977   8.564   6.093  0.4511 -0.0277 -0.0757
 2538SOL    HW219593   8.924   8.701   6.057 -1.0615 -0.8866 -1.2414
 2539SOL     OW19594   7.864   4.786   1.006  0.1179 -0.3404 -0.0534
 2539SOL    HW119595   7.886   4.725   1.076  1.4459  0.4790  0.2783
 2539SOL    HW219596   7.769   4.796   1.012  0.0575 -1.2250  0.8243
 2540SOL     OW19597   7.247   3.631   6.061 -0.2525 -0.2617 -0.0688
 2540SOL    HW119598   7.278   3.541   6.049 -0.2030 -0.5597  1.9769
 2540SOL    HW219599   7.324   3.679   6.092 -0.7569  0.0291  0.7565
 2541SOL     OW19600   7.886   9.049   6.953  0.3008  0.6993 -0.1886
 2541SOL    HW119601   7.870   8.956   6.968 -0.2627  1.0558  1.7233
 2541SOL    HW219602   7.849   9.092   7.030  1.7506  2.4038 -0.3929
 2542SOL     OW19603   2.967   4.776   3.992 -0.1262 -1.1052 -0.3544
 2542SOL    HW119604   3.024   4.827   3.936 -1.4014  1.8587  0.8432
 2542SOL    HW219605   3.023   4.746   4.063  0.6764 -1.5146 -1.1494
 2543SOL     OW19606   3.221   5.855   4.050 -0.6651 -0.4457 -0.0820
 2543SOL    HW119607   3.201   5.902   3.969  0.4300 -1.1040 -0.7565
 2543SOL    HW219608   3.316   5.861   4.059 -0.6353 -1.4910  0.4556
 2544SOL     OW19609   8.669   8.583   2.547  0.5689  0.3948 -0.0523
 2544SOL    HW119610   8.715   8.587   2.631  1.4071 -0.7817 -0.4383
 2544SOL    HW219611   8.597   8.522   2.562  0.9778 -0.1591 -0.2886
 2545SOL     OW19612   2.845   8.394   8.218 -0.3253 -0.1862  0.1137
 2545SOL    HW119613   2.922   8.355   8.260 -0.7824 -2.4452 -0.9746
 2545SOL    HW219614   2.875   8.416   8.130 -0.5351  0.3053  0.1669
 2546SOL     OW19615   8.748   6.052   3.937 -0.7054  0.3064  0.7083
 2546SOL    HW119616   8.841   6.044   3.917 -0.8384 -0.0494  0.2155
 2546SOL    HW219617   8.745   6.069   4.031 -0.1125  1.0123  0.6010
 2547SOL     OW19618   6.312   6.186   0.263  0.4135  0.0819  0.5470
 2547SOL    HW119619   6.337   6.095   0.246  0.0677  0.2802 -1.1548
 2547SOL    HW219620   6.248   6.180   0.334 -2.5883 -1.4591 -2.0460
 2548SOL     OW19621   9.224   2.246   7.919 -0.6669 -0.2385 -0.6309
 2548SOL    HW119622   9.207   2.329   7.963  0.4046  1.0759 -2.5233
 2548SOL    HW219623   9.320   2.240   7.916 -0.6962 -2.3117  0.7379
 2549SOL     OW19624   4.166   8.876   1.427  0.0167 -0.3769  0.1859
 2549SOL    HW119625   4.207   8.927   1.358 -0.8626  0.6581  0.4167
 2549SOL    HW219626   4.072   8.881   1.410 -0.1197 -1.6023  0.4406
 2550SOL     OW19627   5.759   4.576   8.992  0.3056 -0.0063 -0.3681
 2550SOL    HW119628   5.755   4.551   9.084  1.9725  2.1904  0.4040
 2550SOL    HW219629   5.734   4.669   8.992  1.1041  0.2425 -1.9948
 2551SOL     OW19630   2.350   5.052   4.028 -0.0320  0.3288 -0.3053
 2551SOL    HW119631   2.273   5.059   4.084  0.3398  2.0699  0.0323
 2551SOL    HW219632   2.424   5.071   4.085  0.3173  2.7158 -1.4076
 2552SOL     OW19633   6.879   5.616   5.293 -0.1675  0.2206 -0.0691
 2552SOL    HW119634   6.844   5.532   5.264 -3.4865  1.2500  0.5499
 2552SOL    HW219635   6.884   5.608   5.389 -0.4867  0.7297 -0.0081
 2553SOL     OW19636   4.266   1.171   0.670  0.4482  1.2078 -0.4540
 2553SOL    HW119637   4.192   1.152   0.728 -0.4935  0.1669 -1.9309
 2553SOL    HW219638   4.228   1.219   0.597  1.3733  1.3382 -0.8644
 2554SOL     OW19639   0.743   5.177   8.059  0.0808  0.1018  0.1541
 2554SOL    HW119640   0.727   5.258   8.106 -2.2879  0.7666 -1.6038
 2554SOL    HW219641   0.767   5.114   8.127 -0.7619  1.5895  1.9222
 2555SOL     OW19642   7.371   9.264   7.885  0.0265 -0.0907  0.0466
 2555SOL    HW119643   7.285   9.301   7.904  0.5373  1.0090  0.2977
 2555SOL    HW219644   7.373   9.181   7.931 -0.7859  0.0256  0.2978
 2556SOL     OW19645   8.903   5.118   4.377  0.0862 -0.2764 -0.4777
 2556SOL    HW119646   8.946   5.055   4.433  2.4649  2.4772  1.0754
 2556SOL    HW219647   8.972   5.180   4.352 -1.4247  0.2064 -4.2956
 2557SOL     OW19648   9.390   4.067   6.375  0.5925 -0.1448 -0.0746
 2557SOL    HW119649   9.444   4.013   6.431 -0.4028  0.1584  1.2333
 2557SOL    HW219650   9.437   4.150   6.368  1.2244 -0.5392 -0.5616
 2558SOL     OW19651   0.089   5.694  10.100 -0.3433  0.0824  0.0835
 2558SOL    HW119652   0.104   5.713  10.193  1.5985  0.5879 -0.2921
 2558SOL    HW219653   0.152   5.749  10.054  1.4495 -2.9035 -1.3414
 2559SOL     OW19654   6.559   3.279   7.110  0.4595  0.2261  0.2606
 2559SOL    HW119655   6.496   3.331   7.060 -0.8406 -0.1200  1.4673
 2559SOL    HW219656   6.597   3.341   7.173  0.1396  0.0922  0.5896
 2560SOL     OW19657   7.032   7.750   5.158  0.0713 -0.5069  0.0047
 2560SOL    HW119658   7.121   7.716   5.163 -0.1751 -1.0101  1.4207
 2560SOL    HW219659   6.976   7.675   5.178 -0.7400 -0.3797 -1.5936
 2561SOL     OW19660   6.366   6.341   7.333 -0.5554  0.1988 -0.3691
 2561SOL    HW119661   6.446   6.293   7.353 -1.5752 -0.5943  2.1420
 2561SOL    HW219662   6.312   6.278   7.283 -0.6133 -0.1736  0.1539
 2562SOL     OW19663   3.179   6.299   1.241 -0.6767  0.0126 -0.1789
 2562SOL    HW119664   3.178   6.349   1.159  0.1181  0.2996 -0.0213
 2562SOL    HW219665   3.128   6.221   1.222 -0.1216 -0.1410 -1.0900
 2563SOL     OW19666   3.559   6.409   7.706  0.4101 -0.2779 -0.1055
 2563SOL    HW119667   3.513   6.484   7.744 -1.2598 -2.1650  1.9180
 2563SOL    HW219668   3.551   6.421   7.611 -2.2970  0.7044  0.1548
 2564SOL     OW19669   3.581   9.458   8.526 -0.6054 -0.0474  0.1582
 2564SOL    HW119670   3.518   9.386   8.521 -0.7570  0.0321  0.7813
 2564SOL    HW219671   3.536   9.526   8.576  0.2555 -0.2981  1.3136
 2565SOL     OW19672   9.088   4.572   2.719 -0.3483  0.3606  0.3782
 2565SOL    HW119673   9.148   4.564   2.793 -0.2089 -0.6866  0.1714
 2565SOL    HW219674   9.109   4.657   2.680  1.8285 -0.4263 -0.3676
 2566SOL     OW19675   3.065   4.197   0.908  0.0243 -0.1818  0.1277
 2566SOL    HW119676   3.113   4.141   0.847 -0.3635 -0.5743  0.1813
 2566SOL    HW219677   2.973   4.185   0.886 -0.1417 -0.5903  1.0040
 2567SOL     OW19678   0.911   0.359  10.031 -0.4801 -0.3547  0.3422
 2567SOL    HW119679   0.837   0.397   9.984 -0.4732 -2.4031 -1.5489
 2567SOL    HW219680   0.898   0.384  10.122 -1.5673  2.2216 -0.4324
 2568SOL     OW19681   6.671   1.753  10.281 -0.0354  0.1367  0.5180
 2568SOL    HW119682   6.611   1.690  10.320  0.5429  0.1152  1.4088
 2568SOL    HW219683   6.617   1.831  10.267 -0.5363 -0.2521  0.2663
 2569SOL     OW19684   7.485   8.846   3.776  0.4331 -0.2904 -0.3686
 2569SOL    HW119685   7.469   8.939   3.792 -1.1099 -0.9130  2.3701
 2569SOL    HW219686   7.559   8.825   3.833  1.1870 -0.6503 -1.4541
 2570SOL     OW19687   7.779   4.706   3.636 -0.1737 -0.0638  0.3364
 2570SOL    HW119688   7.842   4.668   3.575 -0.1533 -0.3147  0.5167
 2570SOL    HW219689   7.707   4.735   3.580 -0.3486 -0.6820  0.2366
 2571SOL     OW19690   7.099   9.446   4.632  0.0615 -0.2268 -0.1484
 2571SOL    HW119691   7.080   9.443   4.726  1.7571 -1.5073  0.2121
 2571SOL    HW219692   7.137   9.533   4.618 -0.3530  0.0337  0.3094
 2572SOL     OW19693   2.774   6.902   2.614 -0.5868  0.0669  0.3941
 2572SOL    HW119694   2.701   6.929   2.558 -0.0907  1.5774  0.4362
 2572SOL    HW219695   2.798   6.981   2.662  2.0763  0.0431 -0.7262
 2573SOL     OW19696   8.888   0.313   9.584  0.1123  0.0564  0.1365
 2573SOL    HW119697   8.926   0.275   9.504  0.4604  0.2009  0.2276
 2573SOL    HW219698   8.877   0.406   9.563 -1.2880 -0.1830 -0.2915
 2574SOL     OW19699   4.009   0.848   4.651  0.2152  1.0171  0.3959
 2574SOL    HW119700   3.937   0.856   4.715  1.7546  2.4173  2.0702
 2574SOL    HW219701   4.036   0.757   4.657  0.9550  1.3249  2.5432
 2575SOL     OW19702   9.956   8.209   4.110  0.2234  0.6225  0.0963
 2575SOL    HW119703   9.948   8.294   4.153  0.4111  0.1334  1.1342
 2575SOL    HW219704   9.872   8.165   4.128 -0.4942  1.1454 -1.7459
 2576SOL     OW19705   8.199   5.029  10.080 -0.7846 -0.0562 -0.4918
 2576SOL    HW119706   8.226   5.055   9.991 -0.0592  1.2110  0.0600
 2576SOL    HW219707   8.129   4.966  10.067 -0.5924  0.0031 -1.9705
 2577SOL     OW19708   3.136   0.675   5.443  0.2888 -0.0447 -0.7278
 2577SOL    HW119709   3.136   0.616   5.367  0.5955 -1.0706  0.0538
 2577SOL    HW219710   3.089   0.753   5.412 -2.0342 -1.5208 -1.1428
 2578SOL     OW19711   6.768   0.145   0.501  0.4291 -0.1497  0.1635
 2578SOL    HW119712   6.815   0.164   0.420  1.6441 -0.3999  0.7915
 2578SOL    HW219713   6.686   0.194   0.492  0.6150 -0.0298 -1.1299
 2579SOL     OW19714   6.990   5.403   7.099 -0.1369 -0.6009 -0.1153
 2579SOL    HW119715   6.898   5.428   7.089  0.0868  1.6427  2.3126
 2579SOL    HW219716   6.992   5.310   7.075 -3.3053 -1.1016  0.9980
 2580SOL     OW19717   7.049   1.926   6.227  0.2633  0.0352 -0.3462
 2580SOL    HW119718   7.041   2.012   6.185 -0.1308 -0.4725 -1.3567
 2580SOL    HW219719   7.003   1.936   6.310 -0.3331  0.6303 -0.7300
 2581SOL     OW19720  10.212   5.598   8.952 -0.0248  0.1252  0.1916
 2581SOL    HW119721  10.203   5.624   9.044  1.5702 -0.8553  0.6725
 2581SOL    HW219722  10.302   5.566   8.945 -0.5993 -1.3088 -1.3448
 2582SOL     OW19723   5.513   5.858   7.490  0.4838 -0.2798 -0.2181
 2582SOL    HW119724   5.593   5.891   7.449  0.0689  0.0482 -0.7881
 2582SOL    HW219725   5.483   5.788   7.432 -0.5028  0.6707 -0.9058
 2583SOL     OW19726  10.033   9.347   5.304 -0.4769 -0.5170  0.3385
 2583SOL    HW119727   9.966   9.398   5.349  0.7278  0.9390  0.5736
 2583SOL    HW219728  10.098   9.412   5.276 -0.6758 -1.4644 -2.7028
 2584SOL     OW19729   8.571   4.967   4.487 -0.4770 -0.0179  0.2886
 2584SOL    HW119730   8.666   4.974   4.498 -0.6648 -0.1401  2.4428
 2584SOL    HW219731   8.547   5.046   4.438  0.7226  0.0081 -0.2977
 2585SOL     OW19732   7.466   6.144   5.790 -0.0797  0.3546 -0.2349
 2585SOL    HW119733   7.544   6.134   5.736  0.3142 -1.1778  0.5461
 2585SOL    HW219734   7.484   6.092   5.868 -2.2380 -0.8379 -0.4493
 2586SOL     OW19735   7.245   0.254  10.295  0.2074 -0.8481 -0.3072
 2586SOL    HW119736   7.328   0.226  10.255  0.0086 -0.4045 -1.0536
 2586SOL    HW219737   7.182   0.253  10.223  0.3881  2.4495 -0.6989
 2587SOL     OW19738   5.853   8.045   9.557 -0.5028 -0.2090  0.2907
 2587SOL    HW119739   5.861   8.036   9.652  1.0091  0.4910  0.2603
 2587SOL    HW219740   5.890   7.963   9.522 -0.1635 -0.0616  0.2975
 2588SOL     OW19741   3.803   0.198   1.295 -0.2661 -0.1124  0.0292
 2588SOL    HW119742   3.790   0.146   1.374 -1.4234  1.0112  0.5938
 2588SOL    HW219743   3.726   0.180   1.241  0.2800 -0.4916 -0.6540
 2589SOL     OW19744   5.770   4.636   4.012  0.1801  0.0894 -0.1040
 2589SOL    HW119745   5.782   4.730   4.004 -0.7447  0.2870  0.6501
 2589SOL    HW219746   5.689   4.626   4.062  0.5427 -1.0981  0.2938
 2590SOL     OW19747   8.728   6.281   6.034  0.3994  0.4503  0.9920
 2590SOL    HW119748   8.655   6.334   6.003 -0.0372 -1.4975 -1.6653
 2590SOL    HW219749   8.806   6.334   6.014  0.0463 -0.0670 -2.4409
 2591SOL     OW19750   0.464   8.164   2.581  0.1518 -0.3405  0.7816
 2591SOL    HW119751   0.470   8.246   2.531  1.4517 -0.2869  0.9742
 2591SOL    HW219752   0.439   8.192   2.669  2.2945  0.0864  1.3128
 2592SOL     OW19753   4.520   9.834   2.028 -0.2707 -0.3522 -0.2534
 2592SOL    HW119754   4.599   9.815   1.977 -0.4356 -0.0894 -0.6118
 2592SOL    HW219755   4.459   9.869   1.964 -0.2200  0.7211  0.2625
 2593SOL     OW19756   1.852   4.208   1.033 -0.5511 -0.4673  0.0443
 2593SOL    HW119757   1.851   4.178   0.942  0.0751 -0.6849  0.1082
 2593SOL    HW219758   1.831   4.301   1.027 -0.8494 -0.5542 -0.2953
 2594SOL     OW19759   2.969  10.130   7.719 -0.7374 -0.0840 -0.8190
 2594SOL    HW119760   2.930  10.061   7.773 -1.6069 -0.8988 -2.4060
 2594SOL    HW219761   3.056  10.143   7.756 -0.4417 -2.2449 -0.6043
 2595SOL     OW19762   0.830   6.967   4.829 -0.0539 -0.4977 -0.3285
 2595SOL    HW119763   0.758   6.979   4.767  0.4146  1.8859 -0.5310
 2595SOL    HW219764   0.818   7.038   4.893  1.6168 -0.5972  0.1405
 2596SOL     OW19765   0.672   6.022   0.483  0.2995  0.1724 -0.0224
 2596SOL    HW119766   0.618   6.100   0.472 -0.2473 -0.1179  0.5672
 2596SOL    HW219767   0.729   6.022   0.406 -0.8755  0.2254 -0.9274
 2597SOL     OW19768   2.991   3.236   4.723 -0.2916 -0.0798 -0.2919
 2597SOL    HW119769   2.995   3.329   4.702  0.2266  0.0720  0.4397
 2597SOL    HW219770   3.083   3.210   4.737 -0.4664 -0.5811 -0.0206
 2598SOL     OW19771   3.571   0.959   0.238  0.2737  0.4810 -0.0545
 2598SOL    HW119772   3.653   1.006   0.220 -0.0698  0.2257 -2.7229
 2598SOL    HW219773   3.598   0.869   0.256  0.7061  0.9454  1.9159
 2599SOL     OW19774   4.766   5.892   6.419  0.2968  0.3104 -0.5002
 2599SOL    HW119775   4.843   5.881   6.363  0.3084  0.3388 -0.4900
 2599SOL    HW219776   4.748   5.804   6.451  2.2213  0.7057  1.9863
 2600SOL     OW19777   9.097   5.345   4.395  0.1990  0.1418  0.3082
 2600SOL    HW119778   9.103   5.410   4.464  0.3401  1.8310 -1.2351
 2600SOL    HW219779   9.185   5.339   4.359 -0.0463 -0.0992 -0.2688
 2601SOL     OW19780   2.300   9.751   7.711 -0.3798 -0.2288 -0.1299
 2601SOL    HW119781   2.240   9.682   7.680  0.5154 -0.4043 -1.6051
 2601SOL    HW219782   2.271   9.830   7.665 -0.6755  0.1184  0.6501
 2602SOL     OW19783   3.456   4.010   5.975 -0.3710  0.8068  0.0578
 2602SOL    HW119784   3.439   4.097   6.012  0.0681  0.5542  0.8923
 2602SOL    HW219785   3.373   3.984   5.935 -0.1330  2.1834 -1.4622
 2603SOL     OW19786   4.334   9.128   4.479  0.2089  0.1647  0.6329
 2603SOL    HW119787   4.359   9.208   4.525  2.8802  0.1746 -0.6810
 2603SOL    HW219788   4.350   9.147   4.387 -0.3583 -1.4714  0.1636
 2604SOL     OW19789   9.383   2.595   9.365  0.0794 -0.3311 -0.4903
 2604SOL    HW119790   9.427   2.512   9.353  1.8590  0.4374  0.3089
 2604SOL    HW219791   9.292   2.572   9.383  0.7211 -2.1661  0.6793
 2605SOL     OW19792   7.441   5.059   5.359  0.1578 -0.6897 -0.2591
 2605SOL    HW119793   7.509   5.126   5.344  0.1900 -0.4431  0.9009
 2605SOL    HW219794   7.489   4.985   5.396 -0.2191 -0.4168  0.8226
 2606SOL     OW19795   3.122   8.595   3.091 -0.6645  0.0663 -0.0891
 2606SOL    HW119796   3.047   8.604   3.150  0.4160  1.7098  1.1127
 2606SOL    HW219797   3.121   8.503   3.065 -3.0983  0.0620 -0.1514
 2607SOL     OW19798   3.999   8.165   2.662 -0.4389  0.3236  0.0399
 2607SOL    HW119799   4.075   8.193   2.713 -0.2055  1.4004 -0.8605
 2607SOL    HW219800   3.923   8.188   2.716 -0.1558 -0.0912  0.6229
 2608SOL     OW19801   9.032   8.708   2.332  0.5456  0.2532  0.2274
 2608SOL    HW119802   9.108   8.716   2.390 -0.1659 -1.0847  1.4063
 2608SOL    HW219803   9.020   8.614   2.321 -0.9394  0.4379  0.0541
 2609SOL     OW19804   8.348   9.039   3.633  0.9650  0.4605 -0.0386
 2609SOL    HW119805   8.314   9.117   3.676 -2.5777 -1.0573  0.3119
 2609SOL    HW219806   8.327   8.968   3.694  0.5627 -1.1673 -1.9876
 2610SOL     OW19807   9.721   5.639   7.323  0.7137 -0.3030 -0.0203
 2610SOL    HW119808   9.718   5.559   7.375 -1.7909 -0.1798  0.1276
 2610SOL    HW219809   9.630   5.667   7.317  1.2964  1.3997 -1.8514
 2611SOL     OW19810   8.059   2.857   9.859 -0.3621 -0.2195  0.6874
 2611SOL    HW119811   7.975   2.892   9.831  0.5859  1.4366 -0.2696
 2611SOL    HW219812   8.037   2.788   9.922 -2.3916  0.9685  1.3689
 2612SOL     OW19813   9.266   9.745   9.365  0.3341 -0.6940 -0.0978
 2612SOL    HW119814   9.279   9.734   9.459  1.2897  1.4097  0.0644
 2612SOL    HW219815   9.176   9.778   9.357  0.1580 -1.1352  0.0476
 2613SOL     OW19816  10.232   6.177   5.323 -0.4123 -0.5691  0.5046
 2613SOL    HW119817  10.287   6.197   5.247  0.7539 -2.4383  0.8013
 2613SOL    HW219818  10.170   6.250   5.327  1.9147  1.5848  0.0640
 2614SOL     OW19819   5.032   0.490   9.385 -0.1701  0.1434 -0.0715
 2614SOL    HW119820   5.108   0.500   9.328 -0.3141 -0.5093 -0.3928
 2614SOL    HW219821   5.055   0.537   9.465  0.7689 -0.4443  0.0189
 2615SOL     OW19822   9.290   0.271   5.376  0.0343 -0.3640  0.0470
 2615SOL    HW119823   9.314   0.311   5.292 -0.6275 -0.6419 -0.2798
 2615SOL    HW219824   9.329   0.329   5.442 -0.0388  0.2503 -0.4378
 2616SOL     OW19825   9.064   6.475  10.235  0.1541 -0.6204 -0.6351
 2616SOL    HW119826   9.031   6.481  10.146 -0.4159 -1.7641 -0.5270
 2616SOL    HW219827   8.993   6.434  10.284  0.7886 -0.8137  0.1531
 2617SOL     OW19828   6.403   8.258   1.487  0.5034  0.3461  0.0796
 2617SOL    HW119829   6.436   8.273   1.398 -0.8052  2.4000 -0.1201
 2617SOL    HW219830   6.309   8.246   1.476  0.4038  0.0620  1.1444
 2618SOL     OW19831   4.679   7.209   1.894 -0.0282  0.6701 -0.4939
 2618SOL    HW119832   4.672   7.170   1.982  0.3297 -1.6790 -1.4414
 2618SOL    HW219833   4.712   7.298   1.910 -0.8468  0.6341  1.7864
 2619SOL     OW19834   8.931   3.251   6.126  0.9044  0.0166  0.0845
 2619SOL    HW119835   8.839   3.276   6.136  1.3269  0.9914  2.1524
 2619SOL    HW219836   8.935   3.160   6.156  0.6048 -0.0104  0.0376
 2620SOL     OW19837   4.865   3.056   6.861 -0.1349  0.6960  0.0798
 2620SOL    HW119838   4.894   2.989   6.800  0.2294  0.4478  0.5139
 2620SOL    HW219839   4.778   3.081   6.831 -0.5575 -0.4468  0.2879
 2621SOL     OW19840   7.419   7.836   2.405  0.1446 -0.1979  0.0681
 2621SOL    HW119841   7.363   7.765   2.372 -1.3398  1.4712 -1.2383
 2621SOL    HW219842   7.506   7.797   2.412 -0.8975 -2.5693  0.9567
 2622SOL     OW19843   4.292   1.596   8.417 -0.4473  0.2395  0.1679
 2622SOL    HW119844   4.369   1.604   8.473 -1.5978 -1.5649  2.1811
 2622SOL    HW219845   4.314   1.525   8.356 -0.0459  0.6628 -0.1941
 2623SOL     OW19846   1.794  10.232   2.801 -0.5028  0.5382  0.0943
 2623SOL    HW119847   1.803  10.146   2.760  0.4861  0.8170 -0.2999
 2623SOL    HW219848   1.881  10.250   2.837 -0.1771  2.1324 -1.3576
 2624SOL     OW19849  10.221   4.416   7.979 -0.3914 -0.0902  0.1149
 2624SOL    HW119850  10.263   4.482   7.924 -1.1009  0.1984 -0.0943
 2624SOL    HW219851  10.283   4.343   7.982 -0.8435 -0.6584 -2.1351
 2625SOL     OW19852   0.145   9.500   3.996  0.3296  0.1095  0.4745
 2625SOL    HW119853   0.238   9.475   3.994  1.1136  2.6152  1.5340
 2625SOL    HW219854   0.100   9.422   4.028  1.5686 -2.2666 -3.0270
 2626SOL     OW19855   2.996   6.838   5.143  0.2117 -0.2184  0.1073
 2626SOL    HW119856   3.001   6.889   5.062 -0.2399  0.9717  0.8054
 2626SOL    HW219857   2.982   6.904   5.212 -2.0498 -1.3977  0.8674
 2627SOL     OW19858   7.743   8.045   6.287  0.4724 -0.1975  0.2282
 2627SOL    HW119859   7.838   8.047   6.293  0.5528 -1.2738 -0.2905
 2627SOL    HW219860   7.726   8.035   6.193 -0.1388 -0.1036  0.3289
 2628SOL     OW19861   5.087   9.898   6.280  0.4392  0.0538 -0.4185
 2628SOL    HW119862   5.020   9.836   6.310  2.0922 -2.1184 -0.9897
 2628SOL    HW219863   5.053   9.931   6.196 -1.0863  1.0696  0.5324
 2629SOL     OW19864   8.597   5.820   0.973  0.7011 -0.9825  0.3083
 2629SOL    HW119865   8.527   5.850   1.032  0.1693 -0.9402 -0.3309
 2629SOL    HW219866   8.603   5.888   0.907 -1.2259 -2.6761 -1.7627
 2630SOL     OW19867   6.230   3.850   2.520  0.0529  0.6045 -0.0699
 2630SOL    HW119868   6.186   3.935   2.513 -0.7902  0.1700 -0.2788
 2630SOL    HW219869   6.159   3.789   2.542  0.6993  0.0073  0.4073
 2631SOL     OW19870   2.212   2.032   4.991  0.1172 -0.0477 -0.7910
 2631SOL    HW119871   2.227   2.013   5.084 -0.8601 -2.4061 -1.0494
 2631SOL    HW219872   2.298   2.058   4.958  0.4281  1.0790  0.7896
 2632SOL     OW19873   5.497   8.213   3.476 -0.0224 -0.4168 -0.4744
 2632SOL    HW119874   5.479   8.296   3.432 -0.2977 -0.7879 -1.0708
 2632SOL    HW219875   5.563   8.235   3.543  0.5072  0.1256 -1.1645
 2633SOL     OW19876   0.071   6.410   7.796 -0.5508  0.2659  0.0533
 2633SOL    HW119877   0.007   6.469   7.836 -1.5478 -0.8095  0.1114
 2633SOL    HW219878   0.153   6.429   7.842 -1.3893 -0.0762  1.7893
 2634SOL     OW19879   9.363   7.807   2.036 -0.3620 -0.2926  0.1102
 2634SOL    HW119880   9.453   7.774   2.036 -1.1858 -2.7751  0.6755
 2634SOL    HW219881   9.346   7.833   1.946  0.3947 -1.4431 -0.3777
 2635SOL     OW19882   1.325   0.158   3.572  0.2903  0.2914 -0.3077
 2635SOL    HW119883   1.298   0.140   3.482  0.2850 -1.2609 -0.0239
 2635SOL    HW219884   1.405   0.107   3.584 -1.6444 -2.6268  1.6340
 2636SOL     OW19885   6.447   3.167   4.013  0.3237  0.0871  0.3276
 2636SOL    HW119886   6.410   3.249   3.983 -1.1041 -0.3377  0.8609
 2636SOL    HW219887   6.542   3.181   4.010  0.1387  1.2830 -0.8343
 2637SOL     OW19888  10.076   4.109   1.444  0.0210  0.6172  0.3697
 2637SOL    HW119889  10.134   4.038   1.472 -0.3030 -0.1171 -0.7436
 2637SOL    HW219890  10.041   4.145   1.525 -0.0033 -0.6837  0.9685
 2638SOL     OW19891   1.290   4.251   2.461  0.4670 -0.4881 -0.5520
 2638SOL    HW119892   1.245   4.173   2.493 -0.4754  0.9829  2.0644
 2638SOL    HW219893   1.222   4.300   2.414  0.5640 -0.3765 -0.5766
 2639SOL     OW19894   0.747   3.704   7.544 -0.3405 -0.0317  0.5430
 2639SOL    HW119895   0.694   3.624   7.548  1.2808 -1.1244  1.1252
 2639SOL    HW219896   0.766   3.715   7.451 -0.3970 -0.4573  0.4762
 2640SOL     OW19897   2.568   6.020   8.301 -0.5195 -0.1559  0.0216
 2640SOL    HW119898   2.634   6.065   8.354 -0.4812  0.7617 -0.7678
 2640SOL    HW219899   2.486   6.065   8.323 -0.3200  1.0726 -1.5619
 2641SOL     OW19900   0.621   1.654   2.145 -0.0230 -0.2086 -0.0828
 2641SOL    HW119901   0.558   1.582   2.156  0.6037 -0.5900  1.2096
 2641SOL    HW219902   0.616   1.702   2.228  0.1022  0.8252 -0.6578
 2642SOL     OW19903   9.235   9.484   3.840 -0.2974  0.2000 -0.1551
 2642SOL    HW119904   9.165   9.462   3.779 -1.1163  1.2140  0.3870
 2642SOL    HW219905   9.313   9.441   3.804 -1.4334 -2.1288 -0.0219
 2643SOL     OW19906   8.144   6.913   7.673 -0.2857  0.7593 -0.0990
 2643SOL    HW119907   8.144   6.853   7.747  1.0797 -0.0286 -0.7020
 2643SOL    HW219908   8.190   6.990   7.704 -1.0034  1.0367  0.3075
 2644SOL     OW19909   1.440   0.181   5.406 -0.2320 -0.0074  0.4673
 2644SOL    HW119910   1.438   0.098   5.452  0.7750 -0.6723 -0.6408
 2644SOL    HW219911   1.472   0.160   5.318 -0.6198  1.4420 -0.0656
 2645SOL     OW19912   9.449   2.662   7.579  0.2623  0.3245 -0.1237
 2645SOL    HW119913   9.384   2.646   7.647 -0.0118  1.7002 -0.0463
 2645SOL    HW219914   9.449   2.757   7.566  1.0959  0.1984 -1.2682
 2646SOL     OW19915   7.598   7.527   8.971 -0.1128  0.1347  0.0401
 2646SOL    HW119916   7.597   7.484   9.057  0.4878  1.5822  0.8100
 2646SOL    HW219917   7.672   7.487   8.925 -0.5349 -0.7662  0.1330
 2647SOL     OW19918   6.344  10.256   5.524 -0.2920 -0.6601 -0.3347
 2647SOL    HW119919   6.336  10.308   5.604 -1.1185  1.6789 -1.8118
 2647SOL    HW219920   6.437  10.260   5.503 -0.4454  1.1585 -0.9089
 2648SOL     OW19921   0.593   8.343   5.262 -0.5505  0.5013 -0.4630
 2648SOL    HW119922   0.519   8.325   5.204 -1.3676 -2.9836  1.3974
 2648SOL    HW219923   0.659   8.278   5.239  0.5692  1.3502  0.2036
 2649SOL     OW19924   1.840   4.132   0.533 -0.4523  0.5062 -0.1385
 2649SOL    HW119925   1.786   4.092   0.465 -0.4013 -1.4375  0.9014
 2649SOL    HW219926   1.930   4.115   0.505 -0.4173  0.4770 -0.0060
 2650SOL     OW19927   2.610   2.454   8.059  0.4304 -0.4721 -0.3678
 2650SOL    HW119928   2.631   2.369   8.022  3.5731 -1.0631  2.2418
 2650SOL    HW219929   2.640   2.517   7.993 -0.0070 -1.3950 -1.4615
 2651SOL     OW19930   3.769   9.274   6.017  0.3261  1.0761  0.6830
 2651SOL    HW119931   3.744   9.346   6.075 -0.8363  1.9621 -0.8276
 2651SOL    HW219932   3.771   9.313   5.930  1.5823 -0.3061  0.0434
 2652SOL     OW19933   4.761   7.049   8.992 -0.4779  0.3585  0.8893
 2652SOL    HW119934   4.695   7.113   9.020  0.2555  2.5704 -1.8921
 2652SOL    HW219935   4.717   6.997   8.926 -0.9328 -1.9028  2.8434
 2653SOL     OW19936   1.347   4.288   7.019 -0.0044 -0.2655 -0.5962
 2653SOL    HW119937   1.368   4.197   7.038 -0.4806  0.3386  3.7844
 2653SOL    HW219938   1.254   4.287   6.995  0.2242 -0.9812 -1.4959
 2654SOL     OW19939   3.400   1.959   8.711 -0.1959  0.5185  0.0147
 2654SOL    HW119940   3.366   2.037   8.755 -0.3988  0.2504  0.3394
 2654SOL    HW219941   3.416   1.897   8.782  1.2762  0.7424 -0.0996
 2655SOL     OW19942   7.936   7.020   1.888  0.1892  0.4930 -0.4875
 2655SOL    HW119943   8.015   7.025   1.834 -0.2037  1.2983 -1.0009
 2655SOL    HW219944   7.909   7.111   1.901  0.3167  0.3279  1.1557
 2656SOL     OW19945   5.082   0.024   5.979  0.2456 -0.6695 -0.7075
 2656SOL    HW119946   5.068  -0.064   6.015  0.6487 -0.7123 -0.6480
 2656SOL    HW219947   5.031   0.082   6.035  1.5541 -0.6218  0.4882
 2657SOL     OW19948   4.631   8.060   4.481 -0.3011  0.4110  0.5166
 2657SOL    HW119949   4.542   8.081   4.508 -0.3986 -0.0636  0.5658
 2657SOL    HW219950   4.687   8.115   4.537 -0.5044 -0.4387  1.5829
 2658SOL     OW19951   8.578   0.071   5.872  0.2465  0.3305  0.5050
 2658SOL    HW119952   8.530   0.152   5.891  1.4363  1.5966 -1.4616
 2658SOL    HW219953   8.528   0.030   5.801 -0.4162 -0.7782  1.5714
 2659SOL     OW19954   0.588   9.593   1.937  1.0882  0.3869  0.0658
 2659SOL    HW119955   0.609   9.683   1.959  0.2808  0.8651 -1.0346
 2659SOL    HW219956   0.632   9.578   1.853 -1.0936  0.7202 -1.1996
 2660SOL     OW19957   9.818   0.952   4.468 -0.1923  0.6379 -0.0352
 2660SOL    HW119958   9.848   0.862   4.474  0.6725  0.9650  1.0304
 2660SOL    HW219959   9.868   0.989   4.395 -0.8785  0.1391 -0.7581
 2661SOL     OW19960  10.354   8.415   9.742 -0.1929 -0.0447  0.1031
 2661SOL    HW119961  10.320   8.485   9.798  1.3856  0.6514  0.2745
 2661SOL    HW219962  10.424   8.375   9.795 -1.9753 -2.7948  0.6146
 2662SOL     OW19963   0.160   4.509   1.161  0.6745 -0.1587 -0.6022
 2662SOL    HW119964   0.085   4.484   1.107 -0.2227 -0.7637  0.8680
 2662SOL    HW219965   0.207   4.574   1.108 -0.3881 -0.4155 -1.9153
 2663SOL     OW19966   3.064   5.774   4.645 -0.2334 -0.0524  0.1578
 2663SOL    HW119967   3.086   5.867   4.648  2.3436 -0.4016 -2.5214
 2663SOL    HW219968   3.137   5.731   4.690 -0.0974 -0.8688 -0.8125
 2664SOL     OW19969   7.476   0.370   6.232  0.0515 -0.0344  0.0779
 2664SOL    HW119970   7.550   0.429   6.218 -0.4525  0.5074 -0.3091
 2664SOL    HW219971   7.409   0.399   6.170 -0.2856 -0.8718  0.0380
 2665SOL     OW19972   5.964   4.010   5.488 -0.3477  0.4896  0.3491
 2665SOL    HW119973   5.868   4.008   5.485 -0.3394  0.1859  0.3293
 2665SOL    HW219974   5.988   3.945   5.554 -0.1400  0.2468  0.0398
 2666SOL     OW19975   1.027  10.383   5.218 -0.1526 -1.2800 -1.1793
 2666SOL    HW119976   1.121  10.375   5.201  0.1522 -1.0456  0.2401
 2666SOL    HW219977   1.003  10.467   5.180  0.5772 -0.5848 -0.1794
 2667SOL     OW19978   2.267   8.399   0.055 -0.5765  0.1583 -0.5379
 2667SOL    HW119979   2.309   8.379   0.139 -1.3236  1.4704  0.1783
 2667SOL    HW219980   2.261   8.314   0.011  0.6420 -0.4206  0.3351
 2668SOL     OW19981   0.413   7.485   3.917 -0.0445 -0.0249 -0.4088
 2668SOL    HW119982   0.374   7.542   3.850 -0.6740  0.1522  0.0953
 2668SOL    HW219983   0.503   7.517   3.926  0.7830 -1.4619 -2.7447
 2669SOL     OW19984   8.928   1.971   3.140 -0.4225 -0.0983  0.1363
 2669SOL    HW119985   8.988   2.030   3.185 -0.1629 -0.2992  0.0551
 2669SOL    HW219986   8.919   1.896   3.198 -0.6404 -0.0451  0.1740
 2670SOL     OW19987   3.716   5.163   9.565 -0.3015  0.3670 -0.2806
 2670SOL    HW119988   3.676   5.211   9.492  1.3414 -1.2041 -2.3304
 2670SOL    HW219989   3.693   5.071   9.549 -1.7428  0.1551  2.4660
 2671SOL     OW19990   4.909   8.227  10.339  0.3544  0.0453  0.3893
 2671SOL    HW119991   4.971   8.293  10.309  1.5544 -1.0311  0.3700
 2671SOL    HW219992   4.942   8.201  10.426  0.4209 -1.1107  0.0438
 2672SOL     OW19993   6.463   7.617   7.659  0.2929 -0.3037  0.0030
 2672SOL    HW119994   6.458   7.522   7.662 -0.5338 -0.3331 -1.5572
 2672SOL    HW219995   6.482   7.638   7.567 -2.7543  1.1318 -0.4241
 2673SOL     OW19996   5.847   8.996   8.875 -0.2314 -0.1603 -0.5701
 2673SOL    HW119997   5.781   8.972   8.810  0.0132  0.2118 -0.9546
 2673SOL    HW219998   5.833   8.934   8.947  0.2795 -1.3535 -1.4734
 2674SOL     OW19999   8.364   2.222   9.964  0.5667  0.6722  0.4329
 2674SOL    HW120000   8.270   2.221   9.944  0.5762  2.3592  0.2009
 2674SOL    HW220001   8.373   2.285  10.035  1.6088  1.0075  0.0180
 2675SOL     OW20002   3.834   7.924   9.989 -0.2312 -0.2041  0.3982
 2675SOL    HW120003   3.877   7.872   9.922 -0.4118  0.4121 -0.2018
 2675SOL    HW220004   3.864   8.013   9.974  0.8835 -0.2520  2.0558
 2676SOL     OW20005   9.735   5.863   2.845  0.5650  0.6167 -0.0945
 2676SOL    HW120006   9.697   5.790   2.894 -1.3953  1.3913 -0.3460
 2676SOL    HW220007   9.800   5.901   2.904 -0.0156  0.0464  0.9355
 2677SOL     OW20008   9.780   1.558   0.999 -0.0448  0.5861  0.3943
 2677SOL    HW120009   9.794   1.576   1.092  1.0119 -0.9628  0.5723
 2677SOL    HW220010   9.692   1.521   0.995 -1.0408  2.7834  0.4145
 2678SOL     OW20011   0.225   2.412   2.760 -0.5955  0.1076 -0.0116
 2678SOL    HW120012   0.296   2.476   2.758 -1.6444  1.2858 -0.8702
 2678SOL    HW220013   0.219   2.386   2.852 -1.1178  2.3854  0.6600
 2679SOL     OW20014   2.662   3.924   8.669  0.1371  0.6013  0.0289
 2679SOL    HW120015   2.594   3.916   8.736  1.1307 -0.4485  0.9857
 2679SOL    HW220016   2.735   3.966   8.714  0.1922  1.5684 -0.9303
 2680SOL     OW20017   6.827   8.276   5.014  0.2499 -0.4607 -0.2095
 2680SOL    HW120018   6.906   8.330   5.009 -1.3415  1.9614 -1.0202
 2680SOL    HW220019   6.798   8.268   4.923 -0.6971 -0.9067  0.1181
 2681SOL     OW20020   8.711   4.015   4.810  0.1398 -0.3188 -0.4239
 2681SOL    HW120021   8.743   3.949   4.871 -0.0935 -1.7623 -1.7754
 2681SOL    HW220022   8.714   3.971   4.724 -1.2023  1.0082 -1.2000
 2682SOL     OW20023   7.840   2.433   0.348  0.1859  0.0091 -0.4867
 2682SOL    HW120024   7.903   2.476   0.290  0.5404 -1.1979 -1.0128
 2682SOL    HW220025   7.867   2.460   0.436  2.5285 -1.7952 -0.5484
 2683SOL     OW20026   4.109   8.570   4.687 -1.0335 -0.3231  0.5896
 2683SOL    HW120027   4.129   8.555   4.779  2.2391 -1.0767 -0.1302
 2683SOL    HW220028   4.143   8.658   4.669 -0.3822 -0.7235 -0.1942
 2684SOL     OW20029   9.360   1.013   0.573  0.0858  0.8695  0.0530
 2684SOL    HW120030   9.339   1.056   0.656  0.2251 -0.4141  0.7742
 2684SOL    HW220031   9.451   0.986   0.582  0.3885  1.5135 -0.8900
 2685SOL     OW20032   7.543   9.123   4.675 -0.3281  0.6866 -0.0079
 2685SOL    HW120033   7.607   9.114   4.603 -2.2508  0.9549 -1.8570
 2685SOL    HW220034   7.461   9.091   4.637 -1.4851  1.1218  2.0206
 2686SOL     OW20035   9.672   0.527   4.738 -0.1323  0.2163 -0.3289
 2686SOL    HW120036   9.674   0.432   4.729 -1.5390  0.1856 -0.5117
 2686SOL    HW220037   9.653   0.559   4.649  0.1582  0.6650 -0.2330
 2687SOL     OW20038   0.745   3.706   3.436  1.1861  0.2571 -0.1980
 2687SOL    HW120039   0.817   3.712   3.499  2.1351 -0.7509 -1.1434
 2687SOL    HW220040   0.720   3.614   3.437 -0.0331  0.5749  0.0293
 2688SOL     OW20041  10.257   1.634   3.345  0.3762 -0.6266 -0.6380
 2688SOL    HW120042  10.233   1.669   3.259  1.0209  2.3240  0.2672
 2688SOL    HW220043  10.196   1.677   3.406  0.8025 -1.6314  0.5434
 2689SOL     OW20044   2.271   6.320   8.766 -1.0232  0.6491 -0.1673
 2689SOL    HW120045   2.189   6.274   8.784 -0.5671 -0.2624 -0.4086
 2689SOL    HW220046   2.325   6.258   8.718  0.1805  0.9004  0.7867
 2690SOL     OW20047   3.728   9.187   0.750  0.2115  0.1292  0.2364
 2690SOL    HW120048   3.703   9.160   0.662  0.1269  1.7274 -0.2723
 2690SOL    HW220049   3.660   9.249   0.776  1.0232  0.8044  0.8082
 2691SOL     OW20050   7.941   6.585   7.815 -0.2724  0.5693  0.5293
 2691SOL    HW120051   7.868   6.593   7.876 -1.4517 -1.5770 -0.5064
 2691SOL    HW220052   7.901   6.587   7.728  1.1548  1.4330 -0.1609
 2692SOL     OW20053   5.463   1.401   6.077  0.3441  0.5749  0.0827
 2692SOL    HW120054   5.479   1.423   6.169 -1.6594  1.0010  0.3903
 2692SOL    HW220055   5.520   1.460   6.028  1.2565  0.5178  1.0315
 2693SOL     OW20056   9.231   6.313   7.156  0.2779  0.2720  0.1004
 2693SOL    HW120057   9.256   6.353   7.239 -0.5879  1.1838 -0.0574
 2693SOL    HW220058   9.151   6.358   7.131  0.3788 -0.1757 -1.0968
 2694SOL     OW20059   4.634   0.704   2.058  0.2165  0.3929  0.2419
 2694SOL    HW120060   4.650   0.642   1.987 -2.5857 -0.2651  0.0439
 2694SOL    HW220061   4.707   0.766   2.053  1.5373 -1.1797 -1.4429
 2695SOL     OW20062   0.552   9.637   3.044  0.1509  0.7045 -0.1386
 2695SOL    HW120063   0.634   9.596   3.017 -0.2731 -1.9846  2.1080
 2695SOL    HW220064   0.559   9.644   3.139 -1.9602  0.9423  0.0537
 2696SOL     OW20065   2.004   5.878   0.661 -0.3126  0.4135  0.0214
 2696SOL    HW120066   1.973   5.846   0.576  0.7769  2.3532 -1.2094
 2696SOL    HW220067   1.955   5.959   0.675 -0.0284  0.4348  0.9215
 2697SOL     OW20068   1.234   1.502   7.511  0.4705  0.2652  0.3984
 2697SOL    HW120069   1.142   1.514   7.487  0.4605  1.0629  0.8069
 2697SOL    HW220070   1.269   1.443   7.444  0.1278  1.4289 -0.8321
 2698SOL     OW20071   9.165   4.494   5.627 -0.4820  0.0922  0.0642
 2698SOL    HW120072   9.149   4.580   5.667 -1.7046 -0.1585  0.1345
 2698SOL    HW220073   9.258   4.478   5.642 -0.0502  1.7379 -0.5987
 2699SOL     OW20074   2.835   9.991   9.815 -0.2740 -0.2324  0.0883
 2699SOL    HW120075   2.769   9.985   9.746  0.3117  0.0022 -0.5096
 2699SOL    HW220076   2.909   9.939   9.783  1.0502  2.0031 -0.7231
 2700SOL     OW20077   7.624   3.974   8.847  0.0588  0.8235  0.1810
 2700SOL    HW120078   7.682   3.958   8.922  0.0984 -0.7003 -0.1344
 2700SOL    HW220079   7.642   3.902   8.787 -1.8806  0.5053 -0.1015
 2701SOL     OW20080   1.056   2.144   5.112  0.1035  0.2623  0.2503
 2701SOL    HW120081   1.135   2.138   5.058  0.5549  0.4510  0.8816
 2701SOL    HW220082   1.042   2.237   5.125 -0.1783  0.2272  0.2205
 2702SOL     OW20083   0.491   7.212   4.042  0.4100 -0.1005  0.0056
 2702SOL    HW120084   0.556   7.197   3.974 -0.3971  0.6223 -0.9621
 2702SOL    HW220085   0.460   7.301   4.026 -0.5857 -0.3148  0.6438
 2703SOL     OW20086   1.148   9.160   0.056  0.3579  0.0880 -0.2951
 2703SOL    HW120087   1.129   9.204  -0.027  0.5910  0.0211 -0.3840
 2703SOL    HW220088   1.192   9.079   0.030  0.4934  0.1005 -0.1004
 2704SOL     OW20089   9.185   1.787   6.670 -0.0926 -0.3671  0.3994
 2704SOL    HW120090   9.157   1.864   6.621 -1.1785 -0.0328  1.4775
 2704SOL    HW220091   9.109   1.729   6.668  0.6208 -1.2949 -0.1675
 2705SOL     OW20092   8.084   7.680   5.045 -0.3762 -0.5309 -0.1777
 2705SOL    HW120093   8.014   7.641   4.992  1.1588 -2.8544 -0.6214
 2705SOL    HW220094   8.126   7.606   5.088  2.0804  0.7142 -0.2739
 2706SOL     OW20095   0.692   0.290   8.002 -0.0403 -0.1847  0.3496
 2706SOL    HW120096   0.597   0.301   7.999 -0.1368 -0.7929  0.9208
 2706SOL    HW220097   0.727   0.375   7.976 -0.7370 -0.3064 -1.1130
 2707SOL     OW20098   0.173   7.926   3.949 -0.9620  0.0549  0.0433
 2707SOL    HW120099   0.239   7.865   3.915 -0.5939 -0.5698  1.7920
 2707SOL    HW220100   0.214   7.968   4.024 -2.0946  0.6360  0.3680
 2708SOL     OW20101   2.417   6.635   6.972  0.2049  0.2776 -0.1983
 2708SOL    HW120102   2.338   6.624   6.918  0.0707 -0.7537  0.1835
 2708SOL    HW220103   2.384   6.643   7.062  0.5693 -1.3078  0.0995
 2709SOL     OW20104   8.656   8.723   8.564  0.2354 -0.1003 -0.2216
 2709SOL    HW120105   8.570   8.701   8.600  0.8132 -1.0748  0.6025
 2709SOL    HW220106   8.678   8.806   8.605  0.8000 -1.0948  1.6047
 2710SOL     OW20107   7.931   7.348   4.115  0.6850  0.1439  1.0714
 2710SOL    HW120108   7.969   7.355   4.202  0.4631  2.0891  1.0505
 2710SOL    HW220109   7.983   7.406   4.061  0.7951 -1.0145 -0.1096
 2711SOL     OW20110   5.398   2.606   7.671 -0.3836 -0.0136 -0.3687
 2711SOL    HW120111   5.421   2.566   7.587  2.3391 -1.0603  0.7464
 2711SOL    HW220112   5.441   2.692   7.668 -2.1079  0.8737 -0.8364
 2712SOL     OW20113   2.289   7.894   2.697  0.4311  0.0908  0.0284
 2712SOL    HW120114   2.212   7.925   2.649 -1.0394 -1.0733  1.5247
 2712SOL    HW220115   2.280   7.799   2.696  1.4160 -0.0181  0.9541
 2713SOL     OW20116   6.860   8.712   0.803  0.0353  0.2007 -0.2837
 2713SOL    HW120117   6.913   8.683   0.878 -1.0985  0.9239  0.8285
 2713SOL    HW220118   6.770   8.700   0.832 -0.4311  1.3545 -1.2008
 2714SOL     OW20119   2.099   8.865   0.474 -0.3509  0.3540  0.0665
 2714SOL    HW120120   2.158   8.937   0.452 -0.5448  0.9096  1.3056
 2714SOL    HW220121   2.011   8.903   0.465 -0.4475  0.3885  1.0289
 2715SOL     OW20122   2.929   4.021   8.466  0.3482 -0.5035  0.1052
 2715SOL    HW120123   2.904   3.938   8.424  1.3267 -0.4838 -0.5335
 2715SOL    HW220124   2.852   4.077   8.456  0.6767 -0.3800 -1.9952
 2716SOL     OW20125   9.806   5.271   0.311  0.4146 -0.3410 -0.1493
 2716SOL    HW120126   9.726   5.267   0.363  0.8939 -0.7670  0.5748
 2716SOL    HW220127   9.823   5.364   0.300 -0.1165 -0.2502 -0.2102
 2717SOL     OW20128   7.442   5.480   5.725  0.2220  0.4745 -0.5542
 2717SOL    HW120129   7.456   5.544   5.656  1.0623  0.6066 -0.2717
 2717SOL    HW220130   7.495   5.512   5.799  0.7917 -0.6264 -0.4710
 2718SOL     OW20131   2.380   6.514  10.289 -0.3477  0.2985 -0.6311
 2718SOL    HW120132   2.302   6.506  10.234 -0.2308 -0.6967 -0.6785
 2718SOL    HW220133   2.425   6.592  10.256 -0.3238 -0.2274 -1.9153
 2719SOL     OW20134   4.048   2.685   7.552  0.5205  0.3982  0.2679
 2719SOL    HW120135   4.064   2.702   7.459  0.5687 -0.1200  0.1808
 2719SOL    HW220136   4.134   2.681   7.592  0.5562 -0.7909  0.0824
 2720SOL     OW20137   9.986   5.922   9.952  0.2124  0.3253 -0.4378
 2720SOL    HW120138   9.951   5.852  10.007 -1.1514  1.0701 -0.3301
 2720SOL    HW220139  10.078   5.930   9.980  0.1580 -0.8176  0.1492
 2721SOL     OW20140   2.529   7.962   3.048  0.5649  0.1248  0.5785
 2721SOL    HW120141   2.590   8.034   3.063 -0.5646  1.1740  0.3145
 2721SOL    HW220142   2.545   7.935   2.958  1.3879 -0.3585  0.8593
 2722SOL     OW20143   6.991   3.651   2.603  0.9231 -0.1680 -0.0715
 2722SOL    HW120144   6.967   3.742   2.584  0.8700  0.0315  0.9100
 2722SOL    HW220145   6.912   3.601   2.585 -0.5815  0.5466  3.6841
 2723SOL     OW20146   1.734   7.570   8.450 -0.2571 -0.4679 -0.3702
 2723SOL    HW120147   1.823   7.556   8.418  0.1636 -0.4853  0.7395
 2723SOL    HW220148   1.720   7.664   8.440 -0.1768 -0.4894 -0.6963
 2724SOL     OW20149   7.510   6.890   1.128 -0.3020  0.6199 -0.4948
 2724SOL    HW120150   7.519   6.966   1.186 -2.0973  0.9966 -0.6724
 2724SOL    HW220151   7.417   6.885   1.109 -0.5100 -2.5561  0.7423
 2725SOL     OW20152   5.985   6.610   8.297 -0.3146 -0.5504  0.4242
 2725SOL    HW120153   6.061   6.643   8.248 -0.7220  0.5128  0.4798
 2725SOL    HW220154   5.974   6.520   8.266 -0.7185  0.1616 -1.6641
 2726SOL     OW20155   8.263   3.341   8.457 -0.3555 -0.6086  0.8918
 2726SOL    HW120156   8.182   3.391   8.451  0.5481  0.7657 -1.4008
 2726SOL    HW220157   8.293   3.355   8.547 -1.1665  1.3364  0.9192
 2727SOL     OW20158   9.454   5.002   9.652 -0.0048 -0.5277 -0.2105
 2727SOL    HW120159   9.364   4.982   9.625 -0.9037  1.7028  0.8052
 2727SOL    HW220160   9.504   5.003   9.570 -1.2728 -0.1844 -1.0115
 2728SOL     OW20161   9.302   7.259   1.698  0.2483 -0.2731 -0.5165
 2728SOL    HW120162   9.395   7.242   1.712  0.4455  0.4909 -0.8929
 2728SOL    HW220163   9.261   7.233   1.781  0.4250 -3.1545 -1.2006
 2729SOL     OW20164   7.436   8.611   6.687  0.4864 -0.0092  0.0527
 2729SOL    HW120165   7.498   8.666   6.736 -1.3834  1.2401  1.1335
 2729SOL    HW220166   7.369   8.672   6.656  0.1714 -1.2047 -1.7556
 2730SOL     OW20167   1.999   8.571   9.956  0.4206  0.3711  0.2820
 2730SOL    HW120168   1.931   8.512   9.924 -0.7845  1.0898  1.4018
 2730SOL    HW220169   1.965   8.603  10.040  0.3086  3.7680 -0.9100
 2731SOL     OW20170   3.882   8.782   4.808  0.1512  0.6933 -0.4819
 2731SOL    HW120171   3.888   8.732   4.889 -1.3155  1.5837  0.2223
 2731SOL    HW220172   3.968   8.824   4.800  0.1902  0.9420  0.8793
 2732SOL     OW20173   2.054   0.640   7.087  0.0415  0.0199  0.6224
 2732SOL    HW120174   2.136   0.592   7.096 -0.2031 -0.2321  1.6862
 2732SOL    HW220175   1.986   0.575   7.108 -0.2989  0.7644  1.9487
 2733SOL     OW20176  10.243   4.958   4.904 -0.3245 -0.1793 -0.0782
 2733SOL    HW120177  10.305   5.016   4.947  0.6569  0.3164 -2.0581
 2733SOL    HW220178  10.211   4.900   4.974  0.7106  0.9712  1.3927
 2734SOL     OW20179   8.982   1.924   9.538 -0.4935 -0.1661  0.7569
 2734SOL    HW120180   9.055   1.983   9.518 -0.3555 -0.9255 -1.1663
 2734SOL    HW220181   8.927   1.974   9.599 -0.1759  1.7867 -0.4741
 2735SOL     OW20182   1.675   3.812   0.494  0.3636 -0.2242  0.0311
 2735SOL    HW120183   1.680   3.903   0.463 -1.2236  0.2995  1.2061
 2735SOL    HW220184   1.622   3.768   0.428  1.3174 -0.3768 -0.6561
 2736SOL     OW20185   9.267   2.136   9.906 -0.3311  0.0248 -0.1124
 2736SOL    HW120186   9.339   2.145   9.969  1.0743  0.1375 -1.6724
 2736SOL    HW220187   9.279   2.209   9.845  1.1172 -2.4837 -3.1207
 2737SOL     OW20188   9.198   5.304   5.480 -0.2412  0.0783 -0.0808
 2737SOL    HW120189   9.288   5.303   5.448 -0.7279  1.7727 -1.6684
 2737SOL    HW220190   9.158   5.380   5.439 -2.4163 -0.6095  0.5891
 2738SOL     OW20191   9.393   6.348   0.941  0.3559  0.0870 -0.2709
 2738SOL    HW120192   9.468   6.357   0.883  0.7701  0.9504  0.3728
 2738SOL    HW220193   9.351   6.434   0.941 -0.0297 -0.0909  0.1731
 2739SOL     OW20194   7.554   1.868   8.699  0.1937 -0.1746  0.4130
 2739SOL    HW120195   7.519   1.946   8.742 -1.7194 -0.8062  0.0868
 2739SOL    HW220196   7.604   1.903   8.625 -1.3736  0.7597 -0.2605
 2740SOL     OW20197   9.991   2.919   6.432 -0.4774  0.4818 -0.0613
 2740SOL    HW120198   9.954   3.005   6.413 -0.4462  0.0189 -2.5441
 2740SOL    HW220199  10.085   2.930   6.424 -0.5571 -0.2135 -2.7955
 2741SOL     OW20200   2.241   2.661   5.432 -0.2718  0.5122  0.3254
 2741SOL    HW120201   2.228   2.753   5.454  1.3370  0.6817  0.6598
 2741SOL    HW220202   2.161   2.636   5.385 -0.8401  1.9966  0.4603
 2742SOL     OW20203   7.463   8.785   0.441 -0.9513  0.1890  0.7891
 2742SOL    HW120204   7.381   8.822   0.473 -0.9623  0.0048  0.9793
 2742SOL    HW220205   7.437   8.720   0.376 -0.9315  0.5270  0.4406
 2743SOL     OW20206   1.582   7.193   5.122  0.2879 -0.0729  0.4173
 2743SOL    HW120207   1.672   7.170   5.100  0.0759 -0.8928  0.3559
 2743SOL    HW220208   1.554   7.125   5.183 -0.5418 -0.2816 -0.1713
 2744SOL     OW20209   1.816   3.786   6.638 -0.3156 -0.3787 -0.0471
 2744SOL    HW120210   1.866   3.788   6.557  0.4739 -0.0495  0.4336
 2744SOL    HW220211   1.729   3.816   6.613  0.0106  0.0493 -0.7087
 2745SOL     OW20212   0.666  10.245   6.664  0.2401 -0.3586 -0.1583
 2745SOL    HW120213   0.705  10.209   6.744  0.8507 -0.9142 -0.6994
 2745SOL    HW220214   0.627  10.329   6.692 -0.5355 -1.0577  0.9501
 2746SOL     OW20215   3.179   4.690   1.305  0.0731  0.5404  0.3971
 2746SOL    HW120216   3.218   4.718   1.222 -0.9534  0.2808 -0.1976
 2746SOL    HW220217   3.161   4.772   1.352 -1.3493  0.8494 -0.6066
 2747SOL     OW20218   9.951   8.540   3.068 -0.0093  0.2761 -0.4593
 2747SOL    HW120219   9.864   8.517   3.034 -0.7465  2.8483 -0.5209
 2747SOL    HW220220   9.943   8.527   3.163  0.1870 -1.3606 -0.6522
 2748SOL     OW20221   2.337   3.985   6.685  0.2418  0.0122 -0.3012
 2748SOL    HW120222   2.256   3.999   6.735  0.7378 -0.7402  0.7452
 2748SOL    HW220223   2.371   3.902   6.718 -0.0137 -1.1437 -2.7389
 2749SOL     OW20224   0.516   0.190   8.421 -0.1211 -0.1615  0.2596
 2749SOL    HW120225   0.421   0.183   8.416 -0.3100  0.7684  1.9231
 2749SOL    HW220226   0.543   0.118   8.478  0.0592  0.1924  0.6259
 2750SOL     OW20227   0.954   3.027   5.418 -0.4130 -0.3036 -0.2555
 2750SOL    HW120228   0.986   3.116   5.425 -0.9564 -0.0686 -0.6892
 2750SOL    HW220229   0.983   2.997   5.332 -2.3497  0.3365 -1.1802
 2751SOL     OW20230   9.575   2.988   0.348  0.2055 -0.5566 -1.2167
 2751SOL    HW120231   9.664   2.959   0.370 -0.1878 -1.1141 -0.3047
 2751SOL    HW220232   9.541   2.920   0.290 -0.7329 -2.0463  0.9557
 2752SOL     OW20233   9.505   5.199   6.097  0.2991  0.1620 -0.0184
 2752SOL    HW120234   9.537   5.114   6.130  1.8200  0.8756  0.4522
 2752SOL    HW220235   9.583   5.255   6.096 -0.2705  1.0083 -2.1994
 2753SOL     OW20236   0.356   8.839   4.457 -0.4950  0.3886 -0.2125
 2753SOL    HW120237   0.441   8.819   4.497 -0.1048 -0.3403 -1.3309
 2753SOL    HW220238   0.342   8.766   4.396 -2.3827 -0.0027  0.6462
 2754SOL     OW20239  10.074   6.287   9.973 -0.0991  0.4043 -0.0375
 2754SOL    HW120240  10.033   6.254  10.052 -0.9806  0.4100 -0.4753
 2754SOL    HW220241  10.110   6.372   9.998 -1.3408  0.9074  0.0873
 2755SOL     OW20242   2.704   0.947   0.435 -0.3569 -0.2445  0.8483
 2755SOL    HW120243   2.635   1.011   0.417 -0.1769 -0.8091 -2.4924
 2755SOL    HW220244   2.664   0.883   0.493 -0.8710  2.2056  3.4098
 2756SOL     OW20245   8.936   5.099   3.582  0.3408 -0.5903 -0.1682
 2756SOL    HW120246   8.916   5.042   3.657  1.1793  0.7829  1.1746
 2756SOL    HW220247   9.031   5.106   3.582  0.3627 -0.7447 -1.5313
 2757SOL     OW20248   8.894   9.734   2.140  0.6241 -0.4913 -0.1165
 2757SOL    HW120249   8.911   9.704   2.229 -2.1072  1.7139  1.3148
 2757SOL    HW220250   8.802   9.711   2.124  1.2794 -1.6361 -2.7859
 2758SOL     OW20251   6.618   9.743   6.508  0.1459  0.0783 -0.3030
 2758SOL    HW120252   6.538   9.727   6.457 -0.7467  1.1245  0.7102
 2758SOL    HW220253   6.622   9.670   6.570  0.5290 -0.5056 -1.0060
 2759SOL     OW20254   4.303   7.250   3.537 -0.3943 -0.1030 -0.0126
 2759SOL    HW120255   4.359   7.251   3.615  0.2197 -0.8544 -0.4318
 2759SOL    HW220256   4.228   7.303   3.561  1.1768  2.2225  0.0329
 2760SOL     OW20257   7.731  10.262   9.506 -0.9451 -0.6129  0.4376
 2760SOL    HW120258   7.804  10.294   9.560 -0.8050 -1.2933  0.6598
 2760SOL    HW220259   7.749  10.296   9.419 -0.1172 -1.1375  0.3883
 2761SOL     OW20260   7.895   9.570   4.484 -0.1689  0.0239  0.0899
 2761SOL    HW120261   7.983   9.543   4.459 -0.3275 -0.0627 -0.3802
 2761SOL    HW220262   7.895   9.564   4.580 -0.0849 -1.3034  0.0292
 2762SOL     OW20263  10.296   3.766   3.889  0.2125  0.2355 -0.2336
 2762SOL    HW120264  10.293   3.672   3.871 -2.2062 -0.1193  1.5766
 2762SOL    HW220265  10.367   3.775   3.953 -0.3941 -0.6088  0.5932
 2763SOL     OW20266   1.662   1.894   4.191 -0.3894  0.5820  0.5177
 2763SOL    HW120267   1.586   1.847   4.156 -0.1063 -0.8561  1.7270
 2763SOL    HW220268   1.631   1.931   4.274  0.2259 -0.1132  1.0761
 2764SOL     OW20269   1.243   6.680   3.375 -0.3957  0.0723 -0.6008
 2764SOL    HW120270   1.168   6.705   3.429 -1.0019  1.3384 -1.9619
 2764SOL    HW220271   1.206   6.660   3.289  0.7774  0.4077 -1.2138
 2765SOL     OW20272   9.165   3.654   8.458 -0.6828 -0.6002  0.2091
 2765SOL    HW120273   9.150   3.613   8.373  1.9105  1.0528 -1.2135
 2765SOL    HW220274   9.107   3.729   8.459  0.0124 -0.0239 -0.6405
 2766SOL     OW20275   6.664   4.816   3.329 -0.5033  0.0985  0.5097
 2766SOL    HW120276   6.701   4.731   3.304  2.3325  0.4522  2.8543
 2766SOL    HW220277   6.656   4.863   3.247  0.5405 -1.4954 -0.5793
 2767SOL     OW20278   8.987   3.400   8.458 -0.0159 -0.7675 -0.3033
 2767SOL    HW120279   9.017   3.453   8.384 -1.0643  0.5632  0.1919
 2767SOL    HW220280   9.048   3.419   8.528 -0.0568 -0.6650 -0.2959
 2768SOL     OW20281   6.272   3.450   6.834 -0.7726 -0.6597  0.1537
 2768SOL    HW120282   6.198   3.507   6.856 -0.4779  0.6845 -2.0525
 2768SOL    HW220283   6.329   3.453   6.911 -0.7049  2.1726  0.0855
 2769SOL     OW20284   3.521   7.642   5.828  0.1395  0.0529  0.0025
 2769SOL    HW120285   3.521   7.674   5.738  0.1201 -1.9415 -0.7654
 2769SOL    HW220286   3.430   7.615   5.844 -0.0661  1.2055  0.9704
 2770SOL     OW20287   9.544   5.082   3.361  0.9619  0.4133  0.2858
 2770SOL    HW120288   9.519   4.991   3.374 -1.1409  0.9242  0.2151
 2770SOL    HW220289   9.589   5.107   3.442  2.9769 -1.0541 -0.2802
 2771SOL     OW20290   8.367   3.882   6.875  0.1154 -0.2525  0.5776
 2771SOL    HW120291   8.332   3.808   6.827 -0.5666  0.9958 -0.9316
 2771SOL    HW220292   8.291   3.923   6.916  0.0729  1.0642 -0.7215
 2772SOL     OW20293   3.457   6.298   8.339 -0.3114 -0.5332 -0.2440
 2772SOL    HW120294   3.375   6.258   8.309 -1.4034  0.1463  1.5996
 2772SOL    HW220295   3.493   6.236   8.401  1.1440 -1.2750 -1.7802
 2773SOL     OW20296   6.154   0.858   2.725  0.0563 -0.0296 -0.2081
 2773SOL    HW120297   6.192   0.895   2.805  1.3377 -1.5111 -0.0799
 2773SOL    HW220298   6.095   0.790   2.756  2.2922 -2.2473 -0.4379
 2774SOL     OW20299   9.842   3.529   0.253  0.0995 -0.0907 -0.0329
 2774SOL    HW120300   9.763   3.531   0.200  0.6568  2.0966 -0.8873
 2774SOL    HW220301   9.900   3.468   0.208  0.0938  0.7791 -1.2486
 2775SOL     OW20302   8.335   5.831   6.009 -0.3928 -0.3746 -0.2582
 2775SOL    HW120303   8.393   5.903   6.035  0.7794 -1.0641 -0.8790
 2775SOL    HW220304   8.262   5.837   6.070 -0.6968  1.7657 -0.7313
 2776SOL     OW20305   9.034   9.134   5.461  0.1398  0.5914  0.0489
 2776SOL    HW120306   9.019   9.104   5.371 -0.0341  0.5213  0.1002
 2776SOL    HW220307   9.123   9.104   5.482  0.1318  0.4938 -0.0548
 2777SOL     OW20308   6.618   4.551   8.218  0.4074 -0.3249 -0.2966
 2777SOL    HW120309   6.578   4.636   8.200 -0.0060 -0.4756 -0.1107
 2777SOL    HW220310   6.677   4.536   8.144 -1.7735 -1.2582 -1.9628
 2778SOL     OW20311   9.365   3.847   3.491 -0.4304 -0.5253 -0.1446
 2778SOL    HW120312   9.296   3.792   3.456 -0.6599 -0.8197  0.7366
 2778SOL    HW220313   9.388   3.806   3.575  1.1227 -0.6954 -0.6289
 2779SOL     OW20314   6.712   7.922   1.238 -0.3429 -0.2209  0.0038
 2779SOL    HW120315   6.708   7.874   1.156  0.2866  0.5133 -0.4718
 2779SOL    HW220316   6.805   7.938   1.252 -0.4679 -0.0805  0.7093
 2780SOL     OW20317   6.476   4.884  10.172 -0.1969 -0.1866 -0.0151
 2780SOL    HW120318   6.464   4.826  10.096 -2.6068 -0.4501  0.4664
 2780SOL    HW220319   6.535   4.836  10.229 -3.1066 -3.0017  0.9671
 2781SOL     OW20320   3.565   4.356   7.291  0.8094  0.1542 -0.4437
 2781SOL    HW120321   3.634   4.291   7.301  1.9207  1.2718 -0.6929
 2781SOL    HW220322   3.525   4.362   7.378  1.8776  0.4170  0.0464
 2782SOL     OW20323   4.281   7.134   5.367 -0.3075 -0.2719 -0.3281
 2782SOL    HW120324   4.218   7.188   5.318  2.2234  1.6383 -1.6999
 2782SOL    HW220325   4.298   7.184   5.447 -1.3747 -1.4149  0.6716
 2783SOL     OW20326   6.955   6.644   8.462 -0.9718  0.0637  0.1116
 2783SOL    HW120327   7.016   6.592   8.515  0.6983  0.4223 -1.3586
 2783SOL    HW220328   6.893   6.579   8.427 -0.3427 -0.5871  0.1837
 2784SOL     OW20329   5.307   1.531   5.254  0.4971  0.0715  0.1761
 2784SOL    HW120330   5.214   1.547   5.271  0.1501 -0.1813 -1.2934
 2784SOL    HW220331   5.329   1.457   5.310 -0.0758  0.3796  0.8347
 2785SOL     OW20332   3.865   0.691   9.407  0.4106 -0.1413  0.3232
 2785SOL    HW120333   3.873   0.746   9.485 -0.0691  1.2440 -0.5591
 2785SOL    HW220334   3.797   0.627   9.430 -0.6273  1.0313  0.6447
 2786SOL     OW20335   8.660   5.585   7.262  0.1657  0.0316  0.2321
 2786SOL    HW120336   8.636   5.677   7.271 -1.1090 -0.3927  1.6915
 2786SOL    HW220337   8.638   5.563   7.172 -0.4106  0.9229  0.1433
 2787SOL     OW20338   0.050   9.278  10.279 -0.1852  0.2272 -0.0964
 2787SOL    HW120339   0.078   9.362  10.314  1.9486 -0.6737  0.5776
 2787SOL    HW220340  -0.033   9.260  10.322 -0.5416  1.8547 -0.0608
 2788SOL     OW20341   1.768   3.796   8.920  0.7994  0.2720 -0.0193
 2788SOL    HW120342   1.725   3.879   8.898  1.4937  0.8335  0.7319
 2788SOL    HW220343   1.696   3.732   8.919  0.0149  1.1024  0.6970
 2789SOL     OW20344   0.510   3.893   2.080  0.0157  0.2837  0.0287
 2789SOL    HW120345   0.483   3.925   2.166  1.3423  1.1697  0.1521
 2789SOL    HW220346   0.586   3.837   2.097 -0.5551 -0.6615 -0.4581
 2790SOL     OW20347   3.057   9.921   5.537 -0.3043  0.5229 -0.6377
 2790SOL    HW120348   2.979   9.880   5.498  0.0209 -0.7013 -0.0528
 2790SOL    HW220349   3.120   9.926   5.466  0.3796 -1.9402 -0.3276
 2791SOL     OW20350   5.895   0.126   9.828 -0.1429  0.2027 -0.1759
 2791SOL    HW120351   5.957   0.132   9.755 -2.4308  2.0156 -2.1565
 2791SOL    HW220352   5.876   0.033   9.836  2.2945 -0.3342  0.0871
 2792SOL     OW20353   3.802   2.550   2.228  0.2868 -0.4463 -0.1086
 2792SOL    HW120354   3.742   2.487   2.269  1.9481 -3.0904 -1.4800
 2792SOL    HW220355   3.864   2.573   2.296 -1.5011  1.4570  1.0016
 2793SOL     OW20356   8.664   1.311   9.294  0.3091 -0.2692 -0.1276
 2793SOL    HW120357   8.731   1.244   9.282  0.4731  0.1789 -2.1995
 2793SOL    HW220358   8.714   1.391   9.311  0.1527 -0.4640  1.3452
 2794SOL     OW20359   0.634   5.617   7.498  0.2781 -0.0953 -0.7165
 2794SOL    HW120360   0.617   5.597   7.590 -0.9495 -1.0703 -1.1344
 2794SOL    HW220361   0.687   5.697   7.500  2.2592 -1.3355  0.9142
 2795SOL     OW20362   7.916   9.056   2.663 -0.0722  0.5726 -0.6097
 2795SOL    HW120363   7.957   9.068   2.749  1.3391  1.9867 -1.4036
 2795SOL    HW220364   7.981   9.006   2.613 -1.0684 -0.6169 -0.7549
 2796SOL     OW20365   0.555   3.522   1.391  0.5332 -0.5576  0.3451
 2796SOL    HW120366   0.554   3.447   1.331 -0.0470 -0.1716 -0.1411
 2796SOL    HW220367   0.527   3.485   1.475  1.6730 -1.1663  0.4751
 2797SOL     OW20368   0.544   2.281   6.172 -0.1330  0.0063 -0.0164
 2797SOL    HW120369   0.522   2.309   6.261  3.4133 -1.6364  1.5719
 2797SOL    HW220370   0.621   2.333   6.149 -1.3373  0.8310 -2.4653
 2798SOL     OW20371   1.199   2.970   9.548  0.6230  0.5092  0.0758
 2798SOL    HW120372   1.248   2.927   9.478  0.3580  0.1078  0.1353
 2798SOL    HW220373   1.125   3.012   9.503 -0.2337 -0.7712  0.2508
 2799SOL     OW20374   7.755   6.514   4.900  0.4495 -0.1028 -0.1408
 2799SOL    HW120375   7.704   6.472   4.969 -0.2238 -0.1600 -0.6661
 2799SOL    HW220376   7.813   6.574   4.946 -2.1466  2.2269  0.3255
 2800SOL     OW20377   0.046   9.073   6.275  0.6360 -0.0813 -0.1897
 2800SOL    HW120378  -0.036   9.100   6.317  0.4499 -2.1927  0.9542
 2800SOL    HW220379   0.025   9.067   6.182 -0.8793 -1.6457  0.2027
 2801SOL     OW20380   0.735   3.487   4.071 -0.2955 -0.9969  0.2195
 2801SOL    HW120381   0.716   3.409   4.122 -0.7860 -0.6151  0.6311
 2801SOL    HW220382   0.713   3.462   3.981 -3.7599 -0.3530  0.7168
 2802SOL     OW20383   2.203   6.336   7.235  0.1332  0.3831  0.2098
 2802SOL    HW120384   2.129   6.330   7.296  1.2795  2.3012  1.9315
 2802SOL    HW220385   2.212   6.248   7.199 -1.2535 -0.5813  2.0420
 2803SOL     OW20386   6.431   8.392   7.079  0.9265  0.0864  0.3334
 2803SOL    HW120387   6.343   8.354   7.084  1.5582 -1.4819  0.3423
 2803SOL    HW220388   6.439   8.422   6.988  1.1992 -2.0016 -0.4001
 2804SOL     OW20389   1.319   6.972   5.090 -0.5246  0.3572  0.1733
 2804SOL    HW120390   1.245   7.004   5.142  0.1962  0.8679  0.9102
 2804SOL    HW220391   1.279   6.938   5.010 -1.3941  2.8317 -0.5353
 2805SOL     OW20392   7.823   7.612   4.939  0.5082  0.1216 -0.3584
 2805SOL    HW120393   7.826   7.521   4.909  0.7942 -0.0053  0.0517
 2805SOL    HW220394   7.733   7.639   4.923 -0.1680 -0.8900  1.4115
 2806SOL     OW20395   3.243   3.573   8.066 -0.0998  0.1434 -0.0188
 2806SOL    HW120396   3.332   3.607   8.076  0.8583 -1.7908 -1.3187
 2806SOL    HW220397   3.253   3.496   8.010 -2.3244 -1.4138  1.5720
 2807SOL     OW20398   5.236   9.240   1.715 -0.0558  0.1096 -0.3764
 2807SOL    HW120399   5.217   9.332   1.700  1.0069  0.2105 -1.2395
 2807SOL    HW220400   5.297   9.240   1.789  2.2666  0.3704 -2.1872
 2808SOL     OW20401   7.972   8.806   0.759 -0.1041 -0.7122  0.2412
 2808SOL    HW120402   8.038   8.875   0.767 -0.9707  0.0337  1.2625
 2808SOL    HW220403   7.926   8.826   0.678  0.6682 -1.0280 -0.2880
 2809SOL     OW20404   4.853  10.276   9.636 -0.0244 -0.5469 -0.1516
 2809SOL    HW120405   4.886  10.294   9.724 -0.4426 -1.8630  0.3062
 2809SOL    HW220406   4.924  10.301   9.578 -0.1418  1.3905  0.4555
 2810SOL     OW20407   0.295   4.825   8.516  0.2267  0.4136 -0.0069
 2810SOL    HW120408   0.255   4.744   8.482  0.7050  0.4484 -0.6806
 2810SOL    HW220409   0.389   4.809   8.510  0.3162  0.8294  0.3324
 2811SOL     OW20410   0.673  10.026   8.518 -0.1890 -0.1810  0.6249
 2811SOL    HW120411   0.710  10.065   8.597  1.0010  1.1141 -0.5254
 2811SOL    HW220412   0.730  10.055   8.448 -1.6668 -0.6420 -0.8318
 2812SOL     OW20413   9.830   9.607   9.463 -0.0419 -0.4916  0.3252
 2812SOL    HW120414   9.920   9.631   9.487  0.1601  0.4821 -1.2141
 2812SOL    HW220415   9.778   9.631   9.540  0.5074  2.7904 -0.1685
 2813SOL     OW20416   8.468  10.072  10.052 -0.2389  0.3183  0.3790
 2813SOL    HW120417   8.418  10.017  10.111  1.6329 -0.7336  1.0723
 2813SOL    HW220418   8.542  10.018  10.025  0.5675  1.7985 -0.5577
 2814SOL     OW20419   0.030   1.730   4.668 -0.0618 -0.2275  0.0087
 2814SOL    HW120420   0.019   1.653   4.723  0.9856 -0.3344  0.0858
 2814SOL    HW220421  -0.021   1.799   4.712 -1.4741 -0.9919 -0.3609
 2815SOL     OW20422   5.543  10.179   4.582  0.1010 -0.2555 -0.2423
 2815SOL    HW120423   5.565  10.118   4.511  2.7106 -0.1351  0.3863
 2815SOL    HW220424   5.544  10.265   4.541 -0.9696 -0.3816 -0.5675
 2816SOL     OW20425   0.868   8.712   8.708  0.4430 -0.6399  0.1850
 2816SOL    HW120426   0.808   8.773   8.666  1.8186  0.0288 -0.8900
 2816SOL    HW220427   0.907   8.762   8.780  1.6721 -0.1634 -0.7808
 2817SOL     OW20428   2.717   1.021   8.862 -0.0925  0.0308  0.2205
 2817SOL    HW120429   2.705   1.090   8.797 -0.1408  2.4845  2.6578
 2817SOL    HW220430   2.652   1.039   8.929 -0.1212 -2.4619  0.9689
 2818SOL     OW20431   4.886   3.653   0.410  0.1974 -0.0802 -0.1888
 2818SOL    HW120432   4.869   3.712   0.483 -0.3829  0.6058 -0.8572
 2818SOL    HW220433   4.922   3.709   0.341  1.1863 -0.7920 -0.2795
 2819SOL     OW20434   3.679   0.603   3.375 -0.0371  0.0401 -0.2076
 2819SOL    HW120435   3.621   0.532   3.349  1.4030 -1.6470  0.9371
 2819SOL    HW220436   3.761   0.586   3.328  1.2152 -0.6904  2.0503
 2820SOL     OW20437   7.685   9.642   5.463 -0.1614 -0.7289 -0.3664
 2820SOL    HW120438   7.608   9.653   5.408  0.7876  0.7899 -1.4962
 2820SOL    HW220439   7.683   9.717   5.523  1.4970  0.6222 -1.8648
 2821SOL     OW20440   1.694   1.843   2.731 -0.1495  0.5591  0.4933
 2821SOL    HW120441   1.617   1.896   2.751  1.1346  2.9762 -0.5596
 2821SOL    HW220442   1.685   1.821   2.638  0.5758  1.1136  0.2901
 2822SOL     OW20443   5.810   2.696   9.228 -0.2058 -0.3154 -0.8535
 2822SOL    HW120444   5.890   2.723   9.182 -0.8229  0.0890 -1.7017
 2822SOL    HW220445   5.743   2.757   9.199 -0.5523  0.1863  0.8649
 2823SOL     OW20446   0.601   3.735   8.434  0.3506  0.2173  0.4018
 2823SOL    HW120447   0.695   3.726   8.424  0.2156 -0.9101  0.0757
 2823SOL    HW220448   0.570   3.761   8.347  0.3633  0.7428  0.5466
 2824SOL     OW20449   5.225   1.417   7.841 -0.7361 -0.2888 -0.7718
 2824SOL    HW120450   5.175   1.336   7.853 -1.1832 -0.1281 -1.4951
 2824SOL    HW220451   5.277   1.401   7.763 -0.9758  0.1929 -1.0329
 2825SOL     OW20452   1.809   3.176   3.495 -0.0355 -0.1442 -0.4398
 2825SOL    HW120453   1.741   3.244   3.497  0.2327  0.1910 -1.8244
 2825SOL    HW220454   1.761   3.094   3.490 -0.3564 -0.0510  0.7786
 2826SOL     OW20455   9.746   7.556   9.763 -0.0890 -0.2231  0.0396
 2826SOL    HW120456   9.819   7.543   9.824  0.7538  0.8488 -0.7114
 2826SOL    HW220457   9.782   7.535   9.677 -0.7879 -0.0626 -0.3001
 2827SOL     OW20458   7.371   2.570   8.447  0.3375 -0.4022 -0.3738
 2827SOL    HW120459   7.420   2.489   8.435  2.0296  0.5590 -0.3395
 2827SOL    HW220460   7.373   2.613   8.362 -0.0708 -0.1551 -0.2612
 2828SOL     OW20461   9.260   2.365   3.215 -0.1631  0.2600 -0.1521
 2828SOL    HW120462   9.232   2.455   3.196  0.7319  0.4822 -0.4537
 2828SOL    HW220463   9.219   2.345   3.299 -0.1883  1.0283  0.0257
 2829SOL     OW20464   9.530   3.737   5.986 -0.2381 -0.2301  0.2738
 2829SOL    HW120465   9.599   3.802   5.999 -2.4523  2.2267  0.6586
 2829SOL    HW220466   9.504   3.747   5.894 -0.9601 -0.1356  0.4768
 2830SOL     OW20467   6.150   1.344   9.945 -0.1545  0.1682  0.2831
 2830SOL    HW120468   6.132   1.375  10.034  0.4896 -0.5969  0.6948
 2830SOL    HW220469   6.197   1.261   9.958  2.1121  1.2182 -0.7146
 2831SOL     OW20470   7.582   1.676   6.911  0.0795 -0.0888  0.4946
 2831SOL    HW120471   7.489   1.680   6.888  0.1730 -0.3956  0.0451
 2831SOL    HW220472   7.626   1.724   6.841  0.4272 -1.6000 -0.3705
 2832SOL     OW20473   7.866   4.881   2.140 -0.9261 -0.0638  0.0058
 2832SOL    HW120474   7.920   4.945   2.187 -0.9444 -1.9971  2.9313
 2832SOL    HW220475   7.778   4.892   2.177 -1.1028 -1.2035 -0.0372
 2833SOL     OW20476   3.110   8.892   3.190  0.2466 -0.6919 -0.2059
 2833SOL    HW120477   3.191   8.872   3.143  0.5872 -0.8446  0.4396
 2833SOL    HW220478   3.117   8.844   3.272 -0.5862 -0.8567 -0.2203
 2834SOL     OW20479   0.306  10.062   5.665  0.1297  0.0620 -0.5160
 2834SOL    HW120480   0.230  10.047   5.722  1.5348 -0.4590  1.2995
 2834SOL    HW220481   0.376  10.088   5.724  1.7175 -0.6391 -1.9998
 2835SOL     OW20482   4.515   8.996   5.783 -0.5109 -0.0159 -0.0210
 2835SOL    HW120483   4.434   8.964   5.823  0.9293 -1.8175  1.6929
 2835SOL    HW220484   4.488   9.028   5.697 -3.1280  0.1639  0.7707
 2836SOL     OW20485   9.627   9.442   6.113 -0.0584  0.0100 -0.0366
 2836SOL    HW120486   9.565   9.515   6.105 -1.1815 -0.9140 -0.0181
 2836SOL    HW220487   9.665   9.452   6.200  0.1225  0.8132 -0.1972
 2837SOL     OW20488   4.688   8.934   6.477  0.4484 -0.1802  0.0910
 2837SOL    HW120489   4.783   8.927   6.474  0.3948 -0.6637 -0.9049
 2837SOL    HW220490   4.664   8.980   6.396 -0.2082 -0.7488 -0.0536
 2838SOL     OW20491   9.457   4.824   3.378  0.2580 -0.0973  0.2222
 2838SOL    HW120492   9.510   4.751   3.409  1.6871  0.7549 -0.1211
 2838SOL    HW220493   9.375   4.784   3.349  1.3556 -1.7025 -0.8156
 2839SOL     OW20494   5.448  10.365   2.815 -0.4204 -0.0941 -0.1846
 2839SOL    HW120495   5.399  10.315   2.880  1.9928 -2.0694  0.2343
 2839SOL    HW220496   5.389  10.371   2.740 -2.1606 -0.3031  1.1109
 2840SOL     OW20497   7.533  10.062   7.118  0.2869  0.1432  0.1363
 2840SOL    HW120498   7.474  10.040   7.045 -0.8717  0.5179  0.9250
 2840SOL    HW220499   7.593   9.988   7.123  1.6891  0.9870 -2.4448
 2841SOL     OW20500   5.802   7.826   0.948  0.5238  0.7547  0.3657
 2841SOL    HW120501   5.787   7.916   0.920  2.0160  0.8202 -0.3027
 2841SOL    HW220502   5.891   7.826   0.981  0.3127 -0.3430  0.9847
 2842SOL     OW20503   7.891   9.441   3.530  0.2885  0.5287  0.7750
 2842SOL    HW120504   7.838   9.392   3.593 -2.6151  0.9320 -1.1281
 2842SOL    HW220505   7.832   9.509   3.497  3.2332  3.5843  1.1987
 2843SOL     OW20506   6.055   7.861   7.325  0.2789  0.3788  0.0384
 2843SOL    HW120507   6.068   7.877   7.231  0.8569 -1.2729 -0.1994
 2843SOL    HW220508   6.002   7.781   7.328  4.2356 -2.5331  0.9924
 2844SOL     OW20509   9.294   2.168   2.519  0.5322 -0.5021  0.5611
 2844SOL    HW120510   9.351   2.176   2.443  1.1836  0.7271  1.1602
 2844SOL    HW220511   9.350   2.134   2.589 -0.0986 -1.7797  0.4810
 2845SOL     OW20512   3.633   3.863   9.808  0.1016  0.2018  0.1743
 2845SOL    HW120513   3.699   3.932   9.822  1.6563 -1.1803 -0.0313
 2845SOL    HW220514   3.569   3.877   9.878  1.2088  0.9136  1.0885
 2846SOL     OW20515   9.527   2.635   2.888 -0.0446  0.5499  0.4953
 2846SOL    HW120516   9.468   2.707   2.911  0.3337  0.7372  0.9041
 2846SOL    HW220517   9.544   2.590   2.971  0.7846  0.8056  0.4766
 2847SOL     OW20518   8.538   8.074   4.999  0.1917  0.1228  0.5292
 2847SOL    HW120519   8.518   7.995   4.949  2.6680  0.0717 -0.4868
 2847SOL    HW220520   8.562   8.043   5.086  1.8299 -0.3700 -0.0620
 2848SOL     OW20521   0.322   4.013   3.055 -0.2629 -0.3549 -0.9963
 2848SOL    HW120522   0.363   4.098   3.041  0.7009 -0.5987  0.1944
 2848SOL    HW220523   0.290   4.015   3.145 -0.6410 -1.0915 -1.1035
 2849SOL     OW20524   3.440   5.290   8.113  0.3917 -0.0941 -0.1903
 2849SOL    HW120525   3.477   5.216   8.064 -1.0672 -0.9706 -0.0322
 2849SOL    HW220526   3.372   5.324   8.056 -1.6424 -1.4035  1.3091
 2850SOL     OW20527   8.094   1.270   7.514 -0.2461  0.0704  0.0761
 2850SOL    HW120528   8.143   1.327   7.455 -2.1768 -0.7031 -2.4557
 2850SOL    HW220529   8.157   1.247   7.583  1.7955  1.9174 -1.0427
 2851SOL     OW20530   1.782   1.234   5.971  0.2031  0.1693  0.3803
 2851SOL    HW120531   1.752   1.147   5.943 -0.4736  0.4022  0.3764
 2851SOL    HW220532   1.864   1.247   5.924  0.5329 -0.6467  0.7009
 2852SOL     OW20533   9.507   7.061   9.747 -0.0895 -0.0315  0.3819
 2852SOL    HW120534   9.458   7.015   9.814 -0.8503 -1.5268 -1.1155
 2852SOL    HW220535   9.599   7.051   9.772 -0.1977 -2.8079 -0.0884
 2853SOL     OW20536  10.380   2.139  10.089 -0.3382  0.0748 -0.1115
 2853SOL    HW120537  10.367   2.066  10.029 -0.6053  0.4320 -0.5028
 2853SOL    HW220538  10.292   2.176  10.100 -0.3208 -0.1105  0.6640
 2854SOL     OW20539   9.240   6.015   6.149  0.5210  0.6822 -0.1879
 2854SOL    HW120540   9.313   6.073   6.130 -1.1125  2.4259 -1.5045
 2854SOL    HW220541   9.181   6.066   6.204  0.6315 -0.9980  1.6177
 2855SOL     OW20542   8.105   2.111   8.949 -0.1884 -0.1044 -0.6612
 2855SOL    HW120543   8.173   2.061   8.996  0.6618  1.0529 -0.6075
 2855SOL    HW220544   8.114   2.084   8.858  0.1887 -0.1417 -0.6166
 2856SOL     OW20545   1.267  10.327   8.578  0.0065 -0.4151  0.6946
 2856SOL    HW120546   1.361  10.320   8.589  0.4218  1.8828 -0.7518
 2856SOL    HW220547   1.255  10.351   8.486 -2.1099 -1.9793  0.4660
 2857SOL     OW20548  10.298   3.161   3.635 -0.3498 -0.0391 -0.1224
 2857SOL    HW120549  10.203   3.167   3.623 -0.1702 -1.6926 -3.7799
 2857SOL    HW220550  10.309   3.111   3.715 -2.5238  0.7251  0.7242
 2858SOL     OW20551   5.221   7.551   1.853 -0.0062 -0.5453  0.3005
 2858SOL    HW120552   5.304   7.526   1.814 -0.2386 -1.1300  0.1745
 2858SOL    HW220553   5.157   7.540   1.783 -0.0868  0.6734  0.1505
 2859SOL     OW20554   9.937   7.217   4.829 -0.0110  0.6046 -0.3234
 2859SOL    HW120555   9.928   7.133   4.785 -0.3549 -1.2846  3.0500
 2859SOL    HW220556  10.032   7.230   4.836  0.1622 -1.1474  1.7606
 2860SOL     OW20557   7.230   7.375   7.698 -0.4476 -0.0048  0.9044
 2860SOL    HW120558   7.187   7.368   7.783 -1.2529 -0.1711  0.4958
 2860SOL    HW220559   7.240   7.284   7.669  0.3762  0.0226  1.0835
 2861SOL     OW20560   2.766   6.435   9.558  0.4716 -0.0359  0.2244
 2861SOL    HW120561   2.672   6.441   9.577 -0.1128  0.0130 -2.3192
 2861SOL    HW220562   2.806   6.499   9.617 -1.1602  0.3734  0.9446
 2862SOL     OW20563   4.518   3.871   5.842  0.0396 -0.3984  0.1169
 2862SOL    HW120564   4.526   3.961   5.812  0.2506 -0.9363 -1.5185
 2862SOL    HW220565   4.564   3.819   5.776  0.5793 -1.6491  1.4162
 2863SOL     OW20566   8.479  10.131   1.693 -0.1081  0.0732 -0.3067
 2863SOL    HW120567   8.535  10.113   1.768 -0.7523  0.6220  0.3233
 2863SOL    HW220568   8.421  10.201   1.723  0.0474  0.7637 -1.5211
 2864SOL     OW20569   2.800   1.879   0.728  0.1129 -0.5415  0.6873
 2864SOL    HW120570   2.895   1.889   0.731  0.0382  0.1571  1.2093
 2864SOL    HW220571   2.786   1.787   0.706  0.9178 -0.9314  1.6860
 2865SOL     OW20572   0.291   7.143   7.603  0.4139  0.4179 -0.5571
 2865SOL    HW120573   0.256   7.182   7.523 -2.8053  0.8290  0.8729
 2865SOL    HW220574   0.354   7.208   7.635 -0.6158  1.7677 -1.1511
 2866SOL     OW20575   6.127   1.296   9.295  0.2686  0.6767 -0.3782
 2866SOL    HW120576   6.144   1.387   9.321 -1.0886  0.8463 -0.0115
 2866SOL    HW220577   6.039   1.298   9.257  0.2866 -0.4600 -0.5122
 2867SOL     OW20578   3.083   4.251   2.752  0.2158 -0.6201 -0.0701
 2867SOL    HW120579   3.135   4.244   2.671  0.8362 -1.8451  0.4097
 2867SOL    HW220580   3.006   4.197   2.735  0.9887 -1.9984  0.6087
 2868SOL     OW20581   8.878   2.422   9.102  0.2101  0.4440 -0.3339
 2868SOL    HW120582   8.856   2.390   9.190  0.8787 -0.4981 -0.4960
 2868SOL    HW220583   8.839   2.359   9.042 -1.4433  1.8250 -0.7907
 2869SOL     OW20584   1.173   9.526   1.491  0.1428 -0.2265  0.1417
 2869SOL    HW120585   1.142   9.506   1.402  1.6137  0.6117 -0.5871
 2869SOL    HW220586   1.102   9.495   1.548  0.2924 -3.2302 -1.1343
 2870SOL     OW20587   2.888   4.542   6.708  0.3500 -0.0095 -0.2006
 2870SOL    HW120588   2.892   4.481   6.781 -0.3343  0.9940  0.7096
 2870SOL    HW220589   2.867   4.488   6.632 -1.2023 -0.7967  0.7440
 2871SOL     OW20590   1.046   4.804   0.758 -0.2788 -0.0033 -0.1516
 2871SOL    HW120591   1.000   4.722   0.778 -0.3061  0.0555  0.0229
 2871SOL    HW220592   1.022   4.863   0.829 -0.8241  0.3873 -0.6430
 2872SOL     OW20593   7.482   6.457   8.389  0.6321  0.0557  0.4620
 2872SOL    HW120594   7.405   6.454   8.332  0.4450 -0.9095  0.7472
 2872SOL    HW220595   7.522   6.371   8.381  2.0917  0.7494 -0.1904
 2873SOL     OW20596   7.903   7.241   0.023 -0.2358  0.7044 -0.1623
 2873SOL    HW120597   7.955   7.321   0.022 -1.3290  1.4167 -0.1322
 2873SOL    HW220598   7.855   7.242  -0.059 -0.1657  0.0129 -0.2172
 2874SOL     OW20599  10.167   2.406   0.383 -0.3361  0.0540  0.1244
 2874SOL    HW120600  10.195   2.316   0.364 -0.2701  0.3338 -1.1952
 2874SOL    HW220601  10.228   2.460   0.333 -0.0340  0.8628  1.3401
 2875SOL     OW20602   7.642   7.134   1.284 -0.7451 -0.1585  0.3831
 2875SOL    HW120603   7.653   7.227   1.302 -0.9253  0.0684 -0.5984
 2875SOL    HW220604   7.723   7.109   1.239 -0.6721 -0.4929  0.6962
 2876SOL     OW20605   5.116   6.882   5.695  0.1763  0.2178  0.7353
 2876SOL    HW120606   5.198   6.843   5.725  0.2316  0.3483  0.7520
 2876SOL    HW220607   5.068   6.903   5.775 -0.7486 -1.7074  0.7450
 2877SOL     OW20608   7.308   1.947   5.089 -0.0606 -0.2209 -0.1378
 2877SOL    HW120609   7.330   1.877   5.028 -1.3124  0.2157 -1.1217
 2877SOL    HW220610   7.340   2.027   5.048 -0.7740  0.0601 -0.1635
 2878SOL     OW20611   3.476   2.071   5.915  0.0103  0.0644 -0.8427
 2878SOL    HW120612   3.512   2.107   5.996  2.5688 -0.7182 -1.5387
 2878SOL    HW220613   3.390   2.113   5.907  0.8466  2.3500  0.8027
 2879SOL     OW20614   2.384   6.742   9.676 -0.1315  0.1027  0.1135
 2879SOL    HW120615   2.410   6.819   9.727 -0.8900 -0.6858  1.7692
 2879SOL    HW220616   2.434   6.749   9.595  0.6259  1.7630  0.6756
 2880SOL     OW20617   8.757   4.504   3.374 -0.3624 -0.3580 -0.0733
 2880SOL    HW120618   8.717   4.474   3.456  0.0271 -2.1189 -0.4832
 2880SOL    HW220619   8.850   4.489   3.386  0.0674  2.0676  0.2016
 2881SOL     OW20620   1.043   9.588   5.546 -0.0059 -0.3240  0.6507
 2881SOL    HW120621   1.089   9.532   5.483  2.1661  0.6352  1.2647
 2881SOL    HW220622   0.973   9.533   5.580  1.0665 -2.1321  0.1057
 2882SOL     OW20623   1.638   8.284   3.169 -0.2628 -0.4191 -0.8912
 2882SOL    HW120624   1.547   8.279   3.197  0.0864  1.2284  0.8016
 2882SOL    HW220625   1.635   8.326   3.083 -1.0280  1.7567  0.1347
 2883SOL     OW20626   8.567   5.644   6.971  0.3993 -0.0645 -0.0777
 2883SOL    HW120627   8.554   5.647   6.877 -0.3231  2.9556  0.0506
 2883SOL    HW220628   8.487   5.605   7.006  0.2745 -0.2922 -0.6134
 2884SOL     OW20629   7.121   4.318   6.596 -0.2649 -0.2659  0.2655
 2884SOL    HW120630   7.171   4.287   6.520  1.7287  1.2872  0.8511
 2884SOL    HW220631   7.174   4.294   6.671 -0.3038  1.5427  0.9164
 2885SOL     OW20632   9.955   0.288   2.587 -0.5598  0.6689 -0.5202
 2885SOL    HW120633  10.011   0.364   2.604 -0.2688  0.3966 -0.2430
 2885SOL    HW220634   9.904   0.277   2.667 -1.2345  1.0929 -0.8779
 2886SOL     OW20635   9.059   4.449   9.415  0.3896 -0.7414  0.4612
 2886SOL    HW120636   9.087   4.358   9.422 -0.0834 -1.0438 -1.1068
 2886SOL    HW220637   9.112   4.486   9.344  0.1891  0.0507  0.7032
 2887SOL     OW20638   3.198   5.586   5.137  0.1763  0.4661  0.5020
 2887SOL    HW120639   3.257   5.530   5.086  0.3529  1.6563 -0.6552
 2887SOL    HW220640   3.111   5.561   5.108  0.2688  1.0007 -0.2675
 2888SOL     OW20641  10.145   5.884   5.237 -0.6186 -0.1272  0.3717
 2888SOL    HW120642  10.137   5.936   5.157 -0.7120 -0.4522  0.1696
 2888SOL    HW220643  10.151   5.794   5.207  1.5517 -0.1020  0.6122
 2889SOL     OW20644   9.979   1.838   6.862  0.2736  0.0189  0.0397
 2889SOL    HW120645   9.979   1.933   6.854 -1.0215  0.0563  0.2330
 2889SOL    HW220646   9.923   1.808   6.790  0.3235 -0.5711  0.2386
 2890SOL     OW20647   6.591   5.169   3.629  0.0744  0.0360  0.4852
 2890SOL    HW120648   6.557   5.158   3.717  0.7693  0.0481  0.7621
 2890SOL    HW220649   6.513   5.175   3.573 -0.3597 -0.5738  1.0180
 2891SOL     OW20650   9.782   8.996   8.398 -0.5017  0.1117  0.4574
 2891SOL    HW120651   9.761   9.086   8.373  0.9438  0.6486  1.0764
 2891SOL    HW220652   9.846   8.967   8.333 -0.0376 -0.0304  0.9691
 2892SOL     OW20653   6.720   9.969   5.906  0.2502  0.1972 -0.0436
 2892SOL    HW120654   6.735   9.984   5.813  0.1195 -1.1570 -0.3099
 2892SOL    HW220655   6.797  10.005   5.949  0.8808 -0.2468 -0.7815
 2893SOL     OW20656   8.444   6.963   9.699 -0.5493 -0.0537 -0.1558
 2893SOL    HW120657   8.363   6.945   9.651 -1.3538 -0.6688  1.3439
 2893SOL    HW220658   8.455   7.058   9.694  0.4544 -0.2435 -3.1244
 2894SOL     OW20659   6.117   2.701   8.336  0.2344  0.0359  0.1844
 2894SOL    HW120660   6.191   2.648   8.308 -0.7094 -1.4387  0.4112
 2894SOL    HW220661   6.145   2.791   8.319  2.5677 -0.3799  1.4390
 2895SOL     OW20662   4.285   0.396   4.607  0.3546  0.4600 -0.3141
 2895SOL    HW120663   4.364   0.445   4.630  2.3232 -2.6721  0.0559
 2895SOL    HW220664   4.296   0.372   4.516 -0.3766  0.3195 -0.3768
 2896SOL     OW20665   3.530   6.158   9.179 -0.4365  0.5461  0.1510
 2896SOL    HW120666   3.605   6.189   9.230 -0.2792  1.4015 -0.6009
 2896SOL    HW220667   3.463   6.225   9.191  0.0294  1.3957 -1.7697
 2897SOL     OW20668   3.514   0.155   9.491 -0.0294  0.1563 -0.2072
 2897SOL    HW120669   3.528   0.154   9.396 -0.3314  1.5515 -0.2948
 2897SOL    HW220670   3.463   0.235   9.506  1.1683  0.6863  1.2819
 2898SOL     OW20671   4.247   2.941   5.428  1.0278  0.4420  0.4063
 2898SOL    HW120672   4.333   2.971   5.457  0.7049 -0.1538  2.1250
 2898SOL    HW220673   4.246   2.847   5.448 -0.3737  0.6326  1.4531
 2899SOL     OW20674   4.408   6.141   9.320 -0.4803 -0.0564 -0.1336
 2899SOL    HW120675   4.417   6.119   9.228 -2.9882 -0.3454 -0.3999
 2899SOL    HW220676   4.358   6.223   9.320  0.6324  0.6550  0.9650
 2900SOL     OW20677   2.355   5.540   3.104 -0.3573  0.1406  0.1926
 2900SOL    HW120678   2.299   5.614   3.082  0.3456  1.0704  1.3691
 2900SOL    HW220679   2.435   5.553   3.052  0.5748  1.3556  1.8210
 2901SOL     OW20680   7.866   7.466   8.937  0.2878 -0.1047 -0.2347
 2901SOL    HW120681   7.936   7.506   8.990  0.6882 -0.5743 -0.4031
 2901SOL    HW220682   7.885   7.495   8.848  1.2959 -1.6097 -0.5574
 2902SOL     OW20683   6.583   0.473   3.043  0.5345  0.1982  0.2126
 2902SOL    HW120684   6.668   0.430   3.038  0.6818  0.5216 -0.1334
 2902SOL    HW220685   6.520   0.402   3.047  0.7940 -0.0462 -0.0092
 2903SOL     OW20686   1.125   4.041   7.447 -0.0306 -0.3727  0.2762
 2903SOL    HW120687   1.124   3.980   7.520  1.4877 -2.0639 -1.0164
 2903SOL    HW220688   1.216   4.072   7.443 -0.1243 -0.1921 -0.8041
 2904SOL     OW20689   3.970   8.434   5.810 -0.1605 -0.4066 -0.4144
 2904SOL    HW120690   4.034   8.485   5.760  0.7070 -2.3668 -1.4293
 2904SOL    HW220691   3.892   8.432   5.754 -0.6001  0.7333  0.1443
 2905SOL     OW20692   0.902   9.845   5.272 -0.4635  0.5202 -0.5582
 2905SOL    HW120693   0.922   9.934   5.243  2.9072  0.4848  1.1161
 2905SOL    HW220694   0.840   9.857   5.344  0.0535  1.5475 -0.2659
 2906SOL     OW20695   9.530   0.163   3.113 -0.2920  0.5371 -0.3051
 2906SOL    HW120696   9.617   0.161   3.152 -1.6323 -0.6510  2.9293
 2906SOL    HW220697   9.481   0.095   3.159 -2.8587  0.8836 -2.2864
 2907SOL     OW20698   5.804  10.076   8.737 -0.0687 -0.8206  0.1806
 2907SOL    HW120699   5.861  10.124   8.798 -1.5900  0.5516  0.5971
 2907SOL    HW220700   5.841  10.094   8.650  0.8399 -0.9765  0.5259
 2908SOL     OW20701   4.603   6.480   2.379  0.0195 -0.5865 -0.3272
 2908SOL    HW120702   4.684   6.504   2.425  0.1529 -2.1249  0.3159
 2908SOL    HW220703   4.620   6.502   2.287  0.9687 -0.4215 -0.1217
 2909SOL     OW20704   7.272   0.030   3.937  0.1677  0.3147 -0.2919
 2909SOL    HW120705   7.304  -0.011   4.017  0.0323  2.8712  1.1859
 2909SOL    HW220706   7.183  -0.003   3.927  0.4023 -0.5049  0.2390
 2910SOL     OW20707   3.439   5.730   6.838 -0.8574 -0.7488  0.0118
 2910SOL    HW120708   3.396   5.747   6.922 -1.6360 -1.8791 -0.1342
 2910SOL    HW220709   3.390   5.785   6.775 -1.0892 -0.8549  0.0975
 2911SOL     OW20710   2.892   0.771   8.544 -0.2788  0.1589 -0.4090
 2911SOL    HW120711   2.954   0.702   8.519 -0.2652 -0.2578  0.7187
 2911SOL    HW220712   2.947   0.841   8.580 -0.4226  0.0315  0.0578
 2912SOL     OW20713   9.088   5.555   5.367 -0.3074 -0.0807  0.4407
 2912SOL    HW120714   9.034   5.608   5.426  1.2324  4.0941 -1.5290
 2912SOL    HW220715   9.042   5.557   5.283 -0.8111 -3.1603  0.5064
 2913SOL     OW20716   5.196   2.249   6.312 -0.4898 -0.1735  0.0156
 2913SOL    HW120717   5.116   2.215   6.273 -1.1843  0.6522  0.6912
 2913SOL    HW220718   5.220   2.323   6.257  0.5494 -1.1743 -0.9453
 2914SOL     OW20719   1.905   2.152   2.813 -0.3776  0.5068 -0.6162
 2914SOL    HW120720   1.878   2.074   2.862 -0.0328  1.2502  0.8303
 2914SOL    HW220721   1.838   2.162   2.745 -2.1694  0.6402  1.0508
 2915SOL     OW20722  10.005   7.879   4.073 -0.3474 -0.1912  0.0353
 2915SOL    HW120723   9.978   7.965   4.106 -3.5904 -1.3703  0.8469
 2915SOL    HW220724   9.972   7.817   4.138 -1.1746 -2.2329 -2.1845
 2916SOL     OW20725   5.539   0.961   9.169 -0.7091  0.4762  0.3445
 2916SOL    HW120726   5.583   0.999   9.246  1.8196  1.7510 -1.5742
 2916SOL    HW220727   5.532   1.034   9.107 -1.7092 -0.7562 -1.0577
 2917SOL     OW20728   1.847   1.870   9.307  0.3724 -0.0273 -0.1506
 2917SOL    HW120729   1.789   1.906   9.374  0.9962  0.8939 -0.0844
 2917SOL    HW220730   1.792   1.859   9.230 -0.3313 -0.9979  0.4697
 2918SOL     OW20731   8.786   1.643   0.513 -0.2573  0.5407 -0.5629
 2918SOL    HW120732   8.695   1.618   0.495 -0.2010  1.2052 -1.8771
 2918SOL    HW220733   8.786   1.739   0.510  0.1954  0.6267  1.0340
 2919SOL     OW20734   8.012   3.891   5.319  0.1486  0.1468 -0.3206
 2919SOL    HW120735   8.090   3.933   5.355 -0.9058  1.9865 -0.0741
 2919SOL    HW220736   7.947   3.898   5.389  0.4507 -3.8712  0.6102
 2920SOL     OW20737   8.729   4.698   2.844  0.5923 -0.0163  0.4596
 2920SOL    HW120738   8.729   4.740   2.758 -0.0631 -0.4428  0.2443
 2920SOL    HW220739   8.815   4.719   2.881  1.0109 -0.1005 -0.4311
 2921SOL     OW20740   6.484   9.896   6.062 -0.4205  0.1336 -0.8510
 2921SOL    HW120741   6.546   9.879   5.991 -0.2175 -2.6659 -0.0890
 2921SOL    HW220742   6.532   9.954   6.122  0.4624  0.1609 -1.5555
 2922SOL     OW20743   1.614   4.266   8.086  0.3802  0.3808 -0.1516
 2922SOL    HW120744   1.519   4.252   8.088 -0.0337  2.8086 -0.0898
 2922SOL    HW220745   1.651   4.179   8.104 -1.8191 -0.5582  0.1976
 2923SOL     OW20746   4.191   2.239  10.054 -0.0693  0.2383  0.4297
 2923SOL    HW120747   4.183   2.268   9.963 -1.9622  1.1947  0.8536
 2923SOL    HW220748   4.131   2.164  10.060  0.0937  0.1432  0.8886
 2924SOL     OW20749   1.447   5.025   6.773 -0.0271  0.3717  0.6898
 2924SOL    HW120750   1.473   5.034   6.865 -0.5759  1.4715  0.7559
 2924SOL    HW220751   1.418   5.113   6.748  0.9811  0.3061 -0.8058
 2925SOL     OW20752   9.550   4.069   1.590 -0.1506  0.8486  0.3478
 2925SOL    HW120753   9.602   3.988   1.592  0.3692  1.1195 -1.1545
 2925SOL    HW220754   9.615   4.138   1.603 -0.3991  1.0982  0.2580
 2926SOL     OW20755   7.432   4.267   3.532 -0.1654 -0.0787 -0.3641
 2926SOL    HW120756   7.442   4.269   3.437 -2.5196 -0.9408 -0.7116
 2926SOL    HW220757   7.400   4.354   3.555 -4.0442 -1.0896 -1.1254
 2927SOL     OW20758   1.032   2.720   1.830 -0.3528 -0.2169  0.3050
 2927SOL    HW120759   0.964   2.719   1.898  0.1531 -0.3582  0.8254
 2927SOL    HW220760   1.040   2.628   1.803  1.9568 -0.8368  2.6743
 2928SOL     OW20761   7.227   5.008  10.290 -0.0632 -0.3203  0.5138
 2928SOL    HW120762   7.160   4.940  10.298  0.1612 -0.7628 -1.0091
 2928SOL    HW220763   7.309   4.963  10.310  0.0937 -0.5483 -0.5648
 2929SOL     OW20764   2.679   8.242   8.963 -0.5534 -0.4996  0.5247
 2929SOL    HW120765   2.701   8.191   9.041  1.9386  0.0291  0.2564
 2929SOL    HW220766   2.692   8.333   8.989 -1.7442 -0.1715  0.0536
 2930SOL     OW20767   6.367   0.230   7.080  0.1102 -0.4766  0.2317
 2930SOL    HW120768   6.456   0.265   7.069  0.4678 -0.9489  1.4339
 2930SOL    HW220769   6.379   0.135   7.079 -0.2626 -0.5445  1.1497
 2931SOL     OW20770   5.041   8.677   2.662  0.2342  0.4602 -0.4759
 2931SOL    HW120771   5.088   8.603   2.700  1.6010  2.1007  1.2053
 2931SOL    HW220772   4.988   8.638   2.592  1.5421 -1.9521 -0.2376
 2932SOL     OW20773   6.590   0.904   5.585  0.0074 -0.5013 -0.3302
 2932SOL    HW120774   6.576   0.974   5.649 -0.0564  1.4518 -2.3869
 2932SOL    HW220775   6.520   0.841   5.603  0.3753 -0.3609  1.8948
 2933SOL     OW20776   7.368   6.473   7.446 -0.3510 -0.1657  0.2071
 2933SOL    HW120777   7.442   6.532   7.460 -1.0122  0.8062 -0.2901
 2933SOL    HW220778   7.390   6.426   7.365 -0.3123  0.1968  0.0028
 2934SOL     OW20779   8.442   4.011   4.094 -0.2362 -0.0886  1.2548
 2934SOL    HW120780   8.533   3.984   4.108 -0.2026 -0.4196  0.4869
 2934SOL    HW220781   8.447   4.082   4.031 -0.5301 -0.4180  0.8484
 2935SOL     OW20782   2.660   5.656   4.137 -0.4227  0.0190 -0.2564
 2935SOL    HW120783   2.610   5.618   4.209  0.6541  0.1722  0.6010
 2935SOL    HW220784   2.637   5.749   4.138 -1.5034 -0.2225 -1.0517
 2936SOL     OW20785   6.729  10.302   4.627 -0.4165 -0.3237 -0.0479
 2936SOL    HW120786   6.796  10.353   4.672  3.6329 -4.4609 -0.6851
 2936SOL    HW220787   6.699  10.359   4.556  1.7247  2.0958  0.8463
 2937SOL     OW20788  10.137   3.367   9.365  0.3676 -0.1606  0.0463
 2937SOL    HW120789  10.097   3.295   9.316  1.9960 -0.2021 -1.3195
 2937SOL    HW220790  10.217   3.387   9.316  0.0225  2.5103  0.4458
 2938SOL     OW20791   7.282   3.682   4.125 -0.4781  0.0881 -0.1595
 2938SOL    HW120792   7.271   3.622   4.052  1.7814  0.1221 -0.6056
 2938SOL    HW220793   7.300   3.766   4.084 -1.9072  0.7379  0.4710
 2939SOL     OW20794   4.145   5.225   6.666  0.2430 -0.1659 -0.3446
 2939SOL    HW120795   4.175   5.313   6.647 -0.4087 -0.0041 -0.6348
 2939SOL    HW220796   4.205   5.168   6.617  1.1526  0.0643  0.4580
 2940SOL     OW20797   9.353   2.943   8.924 -0.0271  0.1073  0.6548
 2940SOL    HW120798   9.432   2.979   8.883 -0.7075 -0.1219 -0.9065
 2940SOL    HW220799   9.349   2.986   9.009  0.3031  2.2149 -0.3255
 2941SOL     OW20800   8.233  10.134   2.713  0.1662 -0.1220 -0.0604
 2941SOL    HW120801   8.139  10.148   2.718  0.3764  1.6678 -0.3936
 2941SOL    HW220802   8.267  10.163   2.798  0.5720  0.9055 -0.5537
 2942SOL     OW20803   3.504  10.212   5.534  0.8150 -0.4414 -0.2648
 2942SOL    HW120804   3.431  10.190   5.593 -1.3051  3.1518 -1.2564
 2942SOL    HW220805   3.463  10.218   5.447  2.2994  1.4288 -0.8967
 2943SOL     OW20806   8.750   5.650   5.936  0.4752 -0.3404 -0.3267
 2943SOL    HW120807   8.845   5.647   5.942  0.7561  0.7269 -2.8700
 2943SOL    HW220808   8.727   5.740   5.961 -0.1910 -1.2239  2.6193
 2944SOL     OW20809   8.187   3.589   6.479 -0.1249 -0.2541 -0.2579
 2944SOL    HW120810   8.220   3.513   6.429  0.1598 -1.6592  1.9358
 2944SOL    HW220811   8.135   3.638   6.415  1.4452 -1.1075 -2.3202
 2945SOL     OW20812   9.595  10.380   0.138 -0.0596 -0.7228 -0.1706
 2945SOL    HW120813   9.655  10.335   0.078  0.6172 -0.6049  0.4031
 2945SOL    HW220814   9.646  10.391   0.219 -0.2475  0.9396 -0.2476
 2946SOL     OW20815   2.882   3.003   8.193 -0.4982  0.1534  0.0402
 2946SOL    HW120816   2.973   3.015   8.222 -1.5184  0.9375  3.4080
 2946SOL    HW220817   2.858   3.086   8.153  0.1142  0.1245 -0.3904
 2947SOL     OW20818   4.197   0.098   7.882 -0.1495 -0.2519  0.0455
 2947SOL    HW120819   4.201   0.082   7.976  0.2756  4.0907  0.9657
 2947SOL    HW220820   4.282   0.137   7.861 -0.3207 -0.9404 -2.1556
 2948SOL     OW20821   1.381   3.907   5.081  0.1060  0.6999 -0.1698
 2948SOL    HW120822   1.361   3.997   5.109 -0.3112 -0.1767  2.7146
 2948SOL    HW220823   1.296   3.872   5.053 -0.5860  0.1522  2.2969
 2949SOL     OW20824   6.407   3.489   7.048  0.1648  0.2478  0.1591
 2949SOL    HW120825   6.409   3.584   7.062 -3.5758  0.6940 -1.1636
 2949SOL    HW220826   6.334   3.459   7.101  2.1212 -2.2498  1.6667
 2950SOL     OW20827   9.162   8.309   4.682 -0.6721  0.6857  0.1420
 2950SOL    HW120828   9.100   8.253   4.637  0.5517 -0.2482 -0.4369
 2950SOL    HW220829   9.190   8.258   4.758  1.8827 -0.4222 -1.3942
 2951SOL     OW20830   2.895   9.760   6.980  0.5229  0.1637  0.4568
 2951SOL    HW120831   2.863   9.691   7.038  2.4914 -0.8775  0.3674
 2951SOL    HW220832   2.960   9.717   6.925  0.8643  1.8144 -0.4909
 2952SOL     OW20833   0.521   4.919   6.688 -0.5240 -0.4834  0.0237
 2952SOL    HW120834   0.444   4.863   6.678 -0.3170 -1.2666  2.3306
 2952SOL    HW220835   0.496   4.983   6.753 -0.3516  1.4959 -1.7509
 2953SOL     OW20836   3.004   3.763   1.952 -0.5790 -0.4156 -0.5498
 2953SOL    HW120837   2.922   3.812   1.950 -0.2721  0.1354  0.1036
 2953SOL    HW220838   3.069   3.823   1.915 -0.4070 -0.7404 -0.7827
 2954SOL     OW20839   0.269   9.898   5.363  0.1068  0.4514 -0.0565
 2954SOL    HW120840   0.281   9.872   5.272  1.6901  2.9677 -0.6726
 2954SOL    HW220841   0.324   9.838   5.413  0.0119 -0.3151 -0.8529
 2955SOL     OW20842   1.609   7.921   0.747  0.1558  0.2292 -0.3236
 2955SOL    HW120843   1.585   7.856   0.814 -1.5507  2.5988  1.5404
 2955SOL    HW220844   1.600   7.874   0.664  0.9740 -2.4405  0.9986
 2956SOL     OW20845   9.500   3.463   6.942  0.2350 -0.0623  0.3260
 2956SOL    HW120846   9.568   3.520   6.978  0.5510  0.5061 -1.0811
 2956SOL    HW220847   9.548   3.402   6.886 -0.4636  1.3078 -1.9033
 2957SOL     OW20848   8.216  10.137  10.266 -0.0347  0.2986  0.4988
 2957SOL    HW120849   8.291  10.090  10.303  0.4473  1.4202  0.9695
 2957SOL    HW220850   8.195  10.204  10.330 -1.0214  0.4394  0.0491
 2958SOL     OW20851   7.301   1.570   6.070  0.0259 -0.5534  0.3042
 2958SOL    HW120852   7.351   1.572   6.151 -0.7600 -1.0507  0.8103
 2958SOL    HW220853   7.268   1.480   6.063 -0.6431 -0.2898 -0.1024
 2959SOL     OW20854   5.511   3.759   2.697  0.1345 -0.2039  0.0304
 2959SOL    HW120855   5.460   3.838   2.712  1.4636  0.7329 -0.2204
 2959SOL    HW220856   5.562   3.748   2.777 -0.7787 -1.4012  0.4709
 2960SOL     OW20857   0.185   1.460   6.782 -0.4945  0.0212 -0.0083
 2960SOL    HW120858   0.268   1.412   6.776  0.4701  1.6346 -0.1372
 2960SOL    HW220859   0.186   1.500   6.869 -1.8513 -1.1183  0.5766
 2961SOL     OW20860   5.094   1.156   7.599  0.2298 -0.1834  0.4999
 2961SOL    HW120861   5.075   1.098   7.672 -1.7635  0.2686  0.4151
 2961SOL    HW220862   5.188   1.172   7.603  0.9085 -3.5763  0.3659
 2962SOL     OW20863   4.070   7.015   8.853 -0.0373  0.4020  0.1656
 2962SOL    HW120864   4.071   6.974   8.766  1.6802 -2.2119  1.3041
 2962SOL    HW220865   4.010   6.961   8.904  2.3874 -0.9718  1.7473
 2963SOL     OW20866   9.951   2.145   6.867  0.1934 -0.1185  0.5908
 2963SOL    HW120867   9.928   2.211   6.801 -1.6655 -1.0257  0.2734
 2963SOL    HW220868   9.873   2.138   6.922 -0.0194 -2.6946  0.0595
 2964SOL     OW20869   7.964   7.626   7.627  0.1998 -0.4748 -0.3499
 2964SOL    HW120870   7.978   7.536   7.598  0.1123 -1.0736  1.3836
 2964SOL    HW220871   8.045   7.650   7.672 -0.1422 -0.0166  0.0239
 2965SOL     OW20872   0.135   7.181   3.920 -0.3331  0.5441  0.8444
 2965SOL    HW120873   0.127   7.091   3.948 -0.6814 -0.0705 -1.0373
 2965SOL    HW220874   0.070   7.229   3.971 -0.9894 -0.5066  1.0053
 2966SOL     OW20875   6.238   8.882   8.755 -0.1909  0.3684  0.0545
 2966SOL    HW120876   6.248   8.822   8.681  1.1652  0.6442 -0.0229
 2966SOL    HW220877   6.307   8.947   8.742  1.6785 -0.8738  2.7712
 2967SOL     OW20878  10.168   1.781   3.072 -0.2249 -0.1660 -0.5227
 2967SOL    HW120879  10.248   1.833   3.067  0.1573 -0.7246 -0.3562
 2967SOL    HW220880  10.136   1.777   2.982  0.0009 -0.0382 -0.6097
 2968SOL     OW20881   0.828   4.808   6.887 -0.3515  0.0834  0.1258
 2968SOL    HW120882   0.805   4.826   6.796  0.2989 -0.7039 -0.2100
 2968SOL    HW220883   0.759   4.850   6.938 -0.9741  0.1447 -0.7441
 2969SOL     OW20884   6.953   5.559   8.284 -0.4443  0.3928  0.9003
 2969SOL    HW120885   6.945   5.609   8.203 -2.6239  1.0910  1.4899
 2969SOL    HW220886   7.010   5.613   8.340  0.7992  0.0614  0.0029
 2970SOL     OW20887   1.553   9.203   4.942 -0.3723 -0.2693  0.0490
 2970SOL    HW120888   1.547   9.274   5.006 -1.6847  0.0224 -0.3518
 2970SOL    HW220889   1.490   9.228   4.874  0.6236 -0.8134 -1.1195
 2971SOL     OW20890   2.477   1.419   6.023  0.2677  0.2083  0.1624
 2971SOL    HW120891   2.541   1.356   6.057 -0.2070 -0.2297  0.2510
 2971SOL    HW220892   2.393   1.387   6.055 -0.2148 -0.3069 -1.5224
 2972SOL     OW20893   2.646   6.999   4.919  0.2360  0.3324 -0.3246
 2972SOL    HW120894   2.683   7.044   4.995 -2.5591 -0.1750  1.4926
 2972SOL    HW220895   2.626   7.069   4.857 -0.6819  1.2622  0.9423
 2973SOL     OW20896   1.422   4.147   1.340  0.4925  0.0315 -0.3661
 2973SOL    HW120897   1.401   4.232   1.300  0.8206  0.0125 -0.5823
 2973SOL    HW220898   1.384   4.083   1.281 -0.8288  0.0482  0.4292
 2974SOL     OW20899   4.786   8.825  10.169  0.2082  0.0671 -0.0292
 2974SOL    HW120900   4.804   8.918  10.183 -0.4453  0.0899  0.7480
 2974SOL    HW220901   4.734   8.822  10.089  1.5332  0.2133 -0.9274
 2975SOL     OW20902   4.630   6.219   6.618 -0.1972  0.2179 -0.2179
 2975SOL    HW120903   4.609   6.219   6.711 -2.8616 -0.5110 -0.7248
 2975SOL    HW220904   4.657   6.309   6.600 -0.4828  0.5964  1.1104
 2976SOL     OW20905   1.528   4.926   5.058 -0.0661  0.3576  0.5595
 2976SOL    HW120906   1.491   5.012   5.075 -1.5002 -0.1651  0.1804
 2976SOL    HW220907   1.460   4.879   5.011  1.2336 -0.5211 -0.5346
 2977SOL     OW20908   2.044  10.237   7.287 -0.0305 -0.0499 -0.0994
 2977SOL    HW120909   2.131  10.204   7.310 -0.3383 -0.7414  0.0942
 2977SOL    HW220910   2.061  10.321   7.245  0.7825 -0.4886 -0.6820
 2978SOL     OW20911   1.404   8.662   3.864  0.5896  0.0233  0.3423
 2978SOL    HW120912   1.471   8.594   3.872 -0.5455 -1.3064 -0.9038
 2978SOL    HW220913   1.344   8.645   3.936  0.9532  0.4909  0.7628
 2979SOL     OW20914   1.246   6.546   7.516  0.2280 -0.4487  0.4221
 2979SOL    HW120915   1.307   6.580   7.581  0.9665 -0.7917 -0.0846
 2979SOL    HW220916   1.216   6.624   7.468  0.3658 -0.2947  0.5842
 2980SOL     OW20917   9.835   9.641   2.725  0.4517  0.1140 -0.0941
 2980SOL    HW120918   9.859   9.692   2.802 -1.6504  1.0802 -0.0236
 2980SOL    HW220919   9.832   9.705   2.654  4.1063 -1.0177 -1.5276
 2981SOL     OW20920   3.973   7.955   7.431  0.1043  0.5738  0.8574
 2981SOL    HW120921   3.890   7.924   7.466  0.1696 -0.0193  0.4948
 2981SOL    HW220922   4.035   7.944   7.503 -0.0155  0.5178  0.9521
 2982SOL     OW20923   6.748   8.354  10.283 -0.1798  0.3751 -0.3247
 2982SOL    HW120924   6.656   8.345  10.306 -0.1010 -1.2910 -0.5572
 2982SOL    HW220925   6.765   8.284  10.220  0.9226  1.5099 -1.3578
 2983SOL     OW20926   4.243   8.424   3.153  0.2547 -0.2999  0.5047
 2983SOL    HW120927   4.179   8.406   3.084  0.1856 -0.7171  0.6760
 2983SOL    HW220928   4.312   8.359   3.140  0.1452 -0.5077  0.9477
 2984SOL     OW20929   3.911   7.006   6.721 -0.1219  0.0950  0.0643
 2984SOL    HW120930   3.896   7.078   6.659 -0.6141 -0.0588 -0.0015
 2984SOL    HW220931   4.001   6.979   6.705 -0.3179 -0.1052 -0.7633
 2985SOL     OW20932   7.279   0.041   8.692 -0.0372 -0.1891 -0.2776
 2985SOL    HW120933   7.374   0.045   8.680 -0.0397 -0.2616 -0.3216
 2985SOL    HW220934   7.268   0.028   8.786 -0.0612  2.3439  0.1558
 2986SOL     OW20935   8.544   6.706   2.186 -0.0565  0.1591 -0.2670
 2986SOL    HW120936   8.558   6.779   2.247 -3.2703  1.2514 -0.6376
 2986SOL    HW220937   8.513   6.634   2.241  0.9210 -0.2206 -0.1866
 2987SOL     OW20938   7.398   0.837   2.898  0.0672 -0.4180  0.1189
 2987SOL    HW120939   7.473   0.784   2.925  0.4171 -0.2215 -0.4620
 2987SOL    HW220940   7.322   0.788   2.930  0.4603 -0.2541  1.3588
 2988SOL     OW20941   1.731   0.622   2.660  0.6835  0.7503 -0.0578
 2988SOL    HW120942   1.778   0.654   2.737  0.6338  0.1183  0.2401
 2988SOL    HW220943   1.671   0.556   2.695  1.4378 -0.3402 -0.7828
 2989SOL     OW20944  10.200   9.076   5.623 -0.3289  0.4838  0.3863
 2989SOL    HW120945  10.229   9.153   5.671 -0.7124 -0.5312  2.3798
 2989SOL    HW220946  10.268   9.010   5.640  0.3623  0.5404 -1.8669
 2990SOL     OW20947   2.407   9.927   4.875  0.0108 -0.0287 -0.5404
 2990SOL    HW120948   2.312   9.937   4.881 -0.0917 -0.3725 -1.3602
 2990SOL    HW220949   2.442   9.983   4.944 -0.8058 -0.3385  0.1447
 2991SOL     OW20950   4.982   3.181   0.255 -0.0572  0.1938 -0.0305
 2991SOL    HW120951   4.972   3.269   0.293 -0.5325  0.3211 -0.4326
 2991SOL    HW220952   5.060   3.188   0.199  0.4059  0.1169  0.5963
 2992SOL     OW20953   4.057   0.732   3.922 -0.6254  0.3340 -0.4305
 2992SOL    HW120954   3.977   0.757   3.875 -0.5503  3.1565  0.7459
 2992SOL    HW220955   4.026   0.670   3.989 -2.5233  3.4454  1.8513
 2993SOL     OW20956   2.587   0.011   2.165  0.6469 -0.3182 -0.0665
 2993SOL    HW120957   2.528  -0.034   2.105  0.7794 -1.9868  0.9921
 2993SOL    HW220958   2.642  -0.058   2.201  1.4707  0.8264  0.9554
 2994SOL     OW20959   2.226   2.821   4.889  0.7117  0.0187 -0.7171
 2994SOL    HW120960   2.313   2.805   4.925  0.3673  0.9313  0.5772
 2994SOL    HW220961   2.175   2.743   4.913  0.5738  0.4729  0.5332
 2995SOL     OW20962   0.636   9.835   9.746  0.2729  0.4080  0.0642
 2995SOL    HW120963   0.730   9.848   9.751  0.2878  1.0599 -1.4342
 2995SOL    HW220964   0.606   9.894   9.677 -1.1108 -0.3845 -0.0730
 2996SOL     OW20965   0.427   5.915   6.465 -0.3925  0.5829  0.0037
 2996SOL    HW120966   0.493   5.875   6.523 -0.6667 -1.4191 -0.9809
 2996SOL    HW220967   0.344   5.901   6.511 -0.3620  1.1975  0.2524
 2997SOL     OW20968   6.317   7.939   5.804 -0.7616 -0.5611  0.1984
 2997SOL    HW120969   6.377   7.867   5.824 -0.7815 -0.1826  1.7335
 2997SOL    HW220970   6.262   7.946   5.882 -0.4649  1.3961  0.2657
 2998SOL     OW20971   0.133   0.566   7.346 -0.0719  0.7125 -0.5156
 2998SOL    HW120972   0.131   0.653   7.306  1.1700  0.5740 -0.9219
 2998SOL    HW220973   0.053   0.524   7.317 -0.8706  1.8390 -0.0184
 2999SOL     OW20974   2.074   6.655   3.322  0.3813  0.1029 -0.0228
 2999SOL    HW120975   2.110   6.709   3.393  0.6146  1.8866 -1.4235
 2999SOL    HW220976   2.011   6.597   3.365  0.1080  1.5098  1.5684
 3000SOL     OW20977   9.120   8.222   4.007  0.0502  0.2326  0.2595
 3000SOL    HW120978   9.124   8.318   4.009 -4.1824  0.6205 -0.9665
 3000SOL    HW220979   9.056   8.199   4.074  0.4676 -1.6884  0.0602
 3001SOL     OW20980   3.726   2.188   0.775 -0.2190  0.3888  0.0833
 3001SOL    HW120981   3.651   2.137   0.805 -1.3173  2.1471  0.4259
 3001SOL    HW220982   3.760   2.230   0.854 -0.2063  1.3055 -0.4013
 3002SOL     OW20983  10.249   1.626   6.481 -0.0098  0.1994 -0.0194
 3002SOL    HW120984  10.232   1.716   6.510 -2.5622 -0.6806  1.4985
 3002SOL    HW220985  10.176   1.605   6.423 -0.8701 -1.6743  1.6293
 3003SOL     OW20986   4.251   9.120   3.843 -0.1583  0.2701  0.0399
 3003SOL    HW120987   4.323   9.066   3.813 -1.5095 -0.6193 -1.8373
 3003SOL    HW220988   4.262   9.203   3.796 -0.7582 -0.1461 -0.8611
 3004SOL     OW20989   6.041   4.286   8.269  0.7722 -0.0161 -0.2013
 3004SOL    HW120990   6.056   4.354   8.203  0.4213 -0.4474 -0.7311
 3004SOL    HW220991   6.065   4.328   8.352  0.9618  0.6179 -0.5668
 3005SOL     OW20992   7.113   2.507   0.870 -0.2055 -0.1157  0.0354
 3005SOL    HW120993   7.061   2.587   0.880 -0.0885 -0.0052 -0.2401
 3005SOL    HW220994   7.049   2.441   0.843 -0.2183 -0.0050 -0.2005
 3006SOL     OW20995   0.847   6.425   6.669 -0.1701  0.1006  0.3407
 3006SOL    HW120996   0.936   6.399   6.642  0.1021  1.2096  0.1030
 3006SOL    HW220997   0.858   6.462   6.756 -0.0816  1.8851 -0.3934
 3007SOL     OW20998   3.818   3.735   1.208 -0.1515  0.4798  0.4271
 3007SOL    HW120999   3.773   3.802   1.260  0.2404  1.0568  0.0311
 3007SOL    HW221000   3.871   3.784   1.146 -0.0467 -0.2047 -0.0351
 3008SOL     OW21001   9.041   0.771   3.014  0.4890 -0.0940  0.3282
 3008SOL    HW121002   9.131   0.771   2.982  0.3038  1.0514 -0.2268
 3008SOL    HW221003   9.049   0.777   3.109  1.0189 -2.5246  0.5163
 3009SOL     OW21004   8.516   0.354   9.769 -0.1175 -0.0781  0.0085
 3009SOL    HW121005   8.495   0.445   9.747 -0.7834 -0.2265  0.0145
 3009SOL    HW221006   8.471   0.303   9.703  2.1644 -0.3479 -1.4548
 3010SOL     OW21007   8.749   7.775   4.693  0.4517  0.0750 -0.3369
 3010SOL    HW121008   8.657   7.789   4.670  0.3085 -0.4614 -0.1068
 3010SOL    HW221009   8.766   7.685   4.666  0.5131 -0.3032  0.9276
 3011SOL     OW21010   2.619   3.290   2.583  0.0105  1.0175  0.1952
 3011SOL    HW121011   2.571   3.215   2.618  0.7376  0.7752  0.7003
 3011SOL    HW221012   2.667   3.255   2.508  2.4764  0.2565  1.9764
 3012SOL     OW21013   5.228   1.674   5.949 -0.2101 -0.0561 -0.0694
 3012SOL    HW121014   5.245   1.603   5.886 -0.7822 -0.4562  0.2136
 3012SOL    HW221015   5.189   1.744   5.896 -0.1063 -0.1461 -0.2671
 3013SOL     OW21016   6.406   0.688   2.917 -0.6856  0.0508  0.2254
 3013SOL    HW121017   6.456   0.612   2.948  1.0087  1.4273  0.9849
 3013SOL    HW221018   6.351   0.653   2.847 -0.7547 -2.0862  1.2599
 3014SOL     OW21019   7.742   0.359   7.412 -0.9699  0.2073 -0.0172
 3014SOL    HW121020   7.766   0.441   7.455 -1.1493  0.2264  0.0470
 3014SOL    HW221021   7.782   0.291   7.467  1.2198  0.3171 -1.3604
 3015SOL     OW21022   9.654   2.788   7.823 -0.8113  0.3244  0.4258
 3015SOL    HW121023   9.682   2.869   7.866  1.9007  2.0492 -3.8817
 3015SOL    HW221024   9.597   2.817   7.751  0.2134 -1.4707 -1.2223
 3016SOL     OW21025   3.772   9.615   9.870  0.8308 -0.0224 -0.0602
 3016SOL    HW121026   3.811   9.535   9.836  1.5412 -0.3913  1.5269
 3016SOL    HW221027   3.678   9.604   9.856  1.0299 -0.5083 -1.1039
 3017SOL     OW21028   8.366   7.779   9.517 -0.1353  0.1839 -0.5347
 3017SOL    HW121029   8.296   7.715   9.509  1.1469 -1.3491 -0.1238
 3017SOL    HW221030   8.422   7.744   9.587 -0.0076  2.3796  0.5564
 3018SOL     OW21031   3.663   2.633   7.489 -0.5161 -0.1289 -0.0485
 3018SOL    HW121032   3.684   2.610   7.579 -2.3893 -1.7765  0.0295
 3018SOL    HW221033   3.729   2.588   7.436  1.2568  1.7118  0.4660
 3019SOL     OW21034   1.273   9.055  10.146  0.1349  0.0152  0.5046
 3019SOL    HW121035   1.216   8.983  10.119 -0.2808  0.2114  0.8372
 3019SOL    HW221036   1.213   9.129  10.156  0.4799  0.2689  0.6750
 3020SOL     OW21037   7.066   9.173   2.244  0.5163  0.0599  0.8701
 3020SOL    HW121038   7.131   9.119   2.289 -0.9189 -0.6733  2.1601
 3020SOL    HW221039   7.073   9.259   2.285  0.9652  0.1058  0.6987
 3021SOL     OW21040   5.039   4.224   7.369  0.0086  0.8912 -0.0613
 3021SOL    HW121041   5.131   4.204   7.351  0.1580  1.4374  0.0806
 3021SOL    HW221042   4.990   4.167   7.309  0.4576  1.6368 -1.1653
 3022SOL     OW21043   5.355   5.531   8.361 -0.4910 -0.1801 -0.1713
 3022SOL    HW121044   5.352   5.594   8.289  2.6075  0.5211  0.1702
 3022SOL    HW221045   5.268   5.491   8.362 -1.5985  1.9569 -2.3085
 3023SOL     OW21046  10.121   0.196   8.997  0.0293  0.2084  0.4287
 3023SOL    HW121047  10.101   0.265   8.933  1.1678  0.4497  0.3029
 3023SOL    HW221048  10.173   0.132   8.948  1.9646  0.9946  1.3615
 3024SOL     OW21049   3.149   7.732   9.173 -0.2626  0.1227  0.8076
 3024SOL    HW121050   3.065   7.773   9.150 -0.1614 -0.2036 -0.2022
 3024SOL    HW221051   3.128   7.639   9.183  0.0706 -0.0423  0.0231
 3025SOL     OW21052   3.913   3.919   9.654  0.4087  0.0726  0.1742
 3025SOL    HW121053   3.824   3.941   9.624 -0.1419 -0.7966  1.0797
 3025SOL    HW221054   3.954   4.004   9.671  0.3299  0.5528 -1.7957
 3026SOL     OW21055   9.424   8.299   7.398 -0.0226 -0.1000  0.7938
 3026SOL    HW121056   9.334   8.291   7.429 -0.8120 -0.0180 -1.2714
 3026SOL    HW221057   9.464   8.364   7.455 -2.0002  1.6078  0.3624
 3027SOL     OW21058   9.647   5.501   1.240 -0.3474 -0.2286 -0.5571
 3027SOL    HW121059   9.674   5.590   1.263 -0.0173 -0.6952  1.0048
 3027SOL    HW221060   9.664   5.494   1.146  2.2690  0.4519 -0.2226
 3028SOL     OW21061   7.913   0.866   9.383 -0.2333 -0.1588 -0.1026
 3028SOL    HW121062   7.873   0.805   9.444  0.8406 -0.5257  0.2499
 3028SOL    HW221063   7.958   0.810   9.319  0.8043  0.2464  0.2533
 3029SOL     OW21064   4.628   1.834   7.980 -0.7800 -1.1535 -0.3392
 3029SOL    HW121065   4.533   1.823   7.972 -0.8019 -0.5635 -1.0260
 3029SOL    HW221066   4.658   1.843   7.889 -0.2794  0.2960 -0.0497
 3030SOL     OW21067   7.112   5.867   4.488  0.0625  0.5830 -0.0813
 3030SOL    HW121068   7.081   5.777   4.481  1.1198  0.2295 -0.4964
 3030SOL    HW221069   7.126   5.881   4.582 -1.4877  0.8234  0.1394
 3031SOL     OW21070   4.285  10.207   3.704 -0.3481 -0.0441  0.4834
 3031SOL    HW121071   4.287  10.300   3.681  3.6149 -0.5696 -2.3031
 3031SOL    HW221072   4.371  10.189   3.742 -0.2553 -2.8341 -0.7318
 3032SOL     OW21073  10.091   0.033   3.407 -0.0404  0.6406 -0.0616
 3032SOL    HW121074  10.170   0.086   3.412 -0.3335  1.1930 -0.9877
 3032SOL    HW221075  10.093  -0.004   3.319 -1.0978  1.1265 -0.3033
 3033SOL     OW21076   1.343  10.152   1.878  0.4807  0.2434  0.0103
 3033SOL    HW121077   1.336  10.077   1.937 -1.7913 -0.3136 -0.8518
 3033SOL    HW221078   1.364  10.114   1.793 -0.5741  0.5603 -0.4107
 3034SOL     OW21079   5.617   2.170   6.698  0.1573  0.5655 -0.0161
 3034SOL    HW121080   5.530   2.131   6.706  0.6310 -0.6622 -0.5570
 3034SOL    HW221081   5.656   2.125   6.623  1.5646  0.4702  0.7386
 3035SOL     OW21082   2.682   0.566  10.267  0.4528 -0.4922 -0.5913
 3035SOL    HW121083   2.619   0.637  10.279 -0.9016 -1.8595  0.9802
 3035SOL    HW221084   2.629   0.487  10.268  2.2081 -1.7569  1.5022
 3036SOL     OW21085   4.442   1.577   5.259 -0.2243 -0.2518  0.1161
 3036SOL    HW121086   4.372   1.559   5.197 -0.2428 -1.4127  0.4595
 3036SOL    HW221087   4.480   1.660   5.229 -1.1710 -0.0617 -0.5782
 3037SOL     OW21088   2.487   8.244   4.244 -0.3971 -0.1719 -0.2521
 3037SOL    HW121089   2.480   8.222   4.151  0.9578 -0.3100 -0.3385
 3037SOL    HW221090   2.439   8.174   4.289 -0.1129 -0.7237 -0.7885
 3038SOL     OW21091   2.974   0.830   5.284  0.4424  0.3526  0.0686
 3038SOL    HW121092   2.947   0.744   5.253  2.4577 -0.2402 -0.2086
 3038SOL    HW221093   2.893   0.874   5.308 -0.8308 -0.8103 -1.8414
 3039SOL     OW21094   9.958   6.550   1.030  0.3951  0.4731 -0.1184
 3039SOL    HW121095  10.031   6.507   1.075  1.1003  1.2053 -0.5243
 3039SOL    HW221096   9.889   6.484   1.027  1.2007 -0.3909 -0.1167
 3040SOL     OW21097  10.380   4.245   6.925  0.1866  0.6269  0.6138
 3040SOL    HW121098  10.468   4.259   6.891 -0.1105  2.4611  0.5479
 3040SOL    HW221099  10.384   4.275   7.016 -0.7065  2.0852  0.1944
 3041SOL     OW21100   7.335   9.320   6.366 -0.8272 -0.2270  0.3179
 3041SOL    HW121101   7.281   9.253   6.407 -0.6583 -0.0221  0.8803
 3041SOL    HW221102   7.318   9.399   6.417  0.0453 -0.1723  0.5296
 3042SOL     OW21103   8.614   4.460   2.887  0.5632  0.3656 -0.5961
 3042SOL    HW121104   8.594   4.408   2.809  1.4506 -1.5395  0.3649
 3042SOL    HW221105   8.649   4.542   2.853  1.1648 -0.5129 -2.2170
 3043SOL     OW21106   3.667   3.491   0.897  0.5144 -0.3660 -0.0134
 3043SOL    HW121107   3.641   3.580   0.875  1.0771  0.4561  2.2924
 3043SOL    HW221108   3.632   3.436   0.827 -0.9745  1.5123 -0.7982
 3044SOL     OW21109   2.431   9.829   6.007 -0.5647  0.1798 -0.6379
 3044SOL    HW121110   2.495   9.896   5.983 -1.5072  0.6759 -1.8988
 3044SOL    HW221111   2.378   9.870   6.076 -0.3579  0.2776 -0.5370
 3045SOL     OW21112   8.720   8.480   8.046  0.2963 -0.8516  0.3734
 3045SOL    HW121113   8.646   8.497   8.105 -0.1063  0.1036 -0.3661
 3045SOL    HW221114   8.681   8.432   7.973 -0.4621  2.6799 -1.7881
 3046SOL     OW21115   7.878   0.681   6.397 -0.1944  0.1333  0.2828
 3046SOL    HW121116   7.879   0.676   6.493 -0.2344 -0.5700  0.2504
 3046SOL    HW221117   7.946   0.619   6.370 -0.5983 -0.1231 -0.1597
 3047SOL     OW21118   2.733   3.197   2.041 -0.1407 -0.0635  0.6698
 3047SOL    HW121119   2.702   3.270   1.986  2.9988  0.8440 -0.0963
 3047SOL    HW221120   2.659   3.179   2.100 -3.2597 -0.2462 -2.8690
 3048SOL     OW21121   9.518   0.669   5.544  0.4505 -0.2648 -0.1791
 3048SOL    HW121122   9.581   0.740   5.560 -1.6394  1.3157  1.5472
 3048SOL    HW221123   9.519   0.617   5.624 -1.4315  0.6515  0.4949
 3049SOL     OW21124   7.295   0.807   7.792  0.0968  0.0067  0.0889
 3049SOL    HW121125   7.206   0.843   7.799 -0.0111 -0.2813  0.2100
 3049SOL    HW221126   7.292   0.727   7.844  0.9806  1.0063  1.7411
 3050SOL     OW21127   6.692   4.378   6.531  0.2116 -0.3285  0.2298
 3050SOL    HW121128   6.623   4.333   6.482  0.2183  0.6600 -0.7318
 3050SOL    HW221129   6.657   4.466   6.545  0.4414 -0.4292  1.5536
 3051SOL     OW21130   8.191   6.707   2.241  0.1084  0.6834 -0.0435
 3051SOL    HW121131   8.260   6.764   2.275  0.1452 -0.0552  1.1672
 3051SOL    HW221132   8.236   6.646   2.183  0.1523  1.4819 -0.8848
 3052SOL     OW21133  10.295   6.693   7.469 -0.7219  0.5291 -0.1850
 3052SOL    HW121134  10.245   6.733   7.398  0.8898 -0.3088 -1.8929
 3052SOL    HW221135  10.380   6.738   7.466 -0.8464  0.9534  1.7068
 3053SOL     OW21136   6.680   3.368   2.634 -0.3136  0.6002  0.4329
 3053SOL    HW121137   6.739   3.390   2.706  0.1874  1.0927 -0.1137
 3053SOL    HW221138   6.593   3.366   2.673 -0.0482  0.9057  1.0426
 3054SOL     OW21139   9.135   4.745   8.551  0.1926 -0.1316  0.3106
 3054SOL    HW121140   9.082   4.759   8.473  1.1023  0.0034 -0.3040
 3054SOL    HW221141   9.113   4.818   8.609 -1.3566 -0.8669  0.6941
 3055SOL     OW21142   0.013   0.588   3.261 -0.3317 -0.2031 -0.2219
 3055SOL    HW121143   0.088   0.614   3.208 -0.1684  0.8526  0.4825
 3055SOL    HW221144   0.052   0.563   3.345 -0.8244  1.3665  0.5026
 3056SOL     OW21145   4.408   1.090   1.740 -0.1502 -0.0699  0.2101
 3056SOL    HW121146   4.424   1.040   1.820  2.4483 -0.0626 -0.2214
 3056SOL    HW221147   4.452   1.174   1.754 -1.0274  0.5684 -0.6354
 3057SOL     OW21148   2.855   1.665  10.364 -0.0097 -0.2181 -0.1249
 3057SOL    HW121149   2.788   1.719  10.322 -0.4551  0.2511  1.1505
 3057SOL    HW221150   2.900   1.622  10.291 -2.5976 -1.6539 -1.0101
 3058SOL     OW21151   5.814   4.284  10.137 -0.1984  0.0062  0.1700
 3058SOL    HW121152   5.856   4.327  10.063  0.7801  2.6348  2.1176
 3058SOL    HW221153   5.738   4.338  10.156 -2.8987 -2.9038 -1.2850
 3059SOL     OW21154  10.178   0.859   1.751 -0.5586  0.4559 -0.0612
 3059SOL    HW121155  10.095   0.841   1.706  0.5332 -0.2100 -1.9265
 3059SOL    HW221156  10.244   0.849   1.683  1.1235  0.3755  1.5183
 3060SOL     OW21157   8.468   9.966   0.483  0.0855 -0.0230 -0.2834
 3060SOL    HW121158   8.527  10.037   0.459  0.3750 -0.0853  0.2212
 3060SOL    HW221159   8.380  10.004   0.475  0.1143 -0.2665 -2.1512
 3061SOL     OW21160   3.306   8.009   2.482 -0.1472  0.0876  0.6453
 3061SOL    HW121161   3.304   8.087   2.538 -2.3256  1.6436 -1.4076
 3061SOL    HW221162   3.315   8.043   2.393 -0.6351 -2.0498 -0.2920
 3062SOL     OW21163   7.458   3.850   3.980 -0.0018 -0.0404 -0.1063
 3062SOL    HW121164   7.473   3.817   3.891 -0.1154 -0.9051  0.1876
 3062SOL    HW221165   7.532   3.908   3.997 -0.1331  0.3621 -0.8727
 3063SOL     OW21166   1.267   7.657   4.381 -0.1012 -0.7489  0.2723
 3063SOL    HW121167   1.272   7.751   4.393 -1.0760 -0.5327 -0.7858
 3063SOL    HW221168   1.357   7.629   4.368  0.0931  0.2226 -0.5535
 3064SOL     OW21169   4.438   8.489   0.551 -0.0399 -0.1229 -0.3417
 3064SOL    HW121170   4.383   8.511   0.626  0.6633  2.0309 -0.4017
 3064SOL    HW221171   4.507   8.434   0.586 -1.3226 -1.5978  0.0076
 3065SOL     OW21172   5.827   7.786   9.439 -0.1523 -0.4670 -0.0321
 3065SOL    HW121173   5.740   7.816   9.413 -0.9116 -1.5375  1.1324
 3065SOL    HW221174   5.856   7.730   9.367 -0.8253 -0.8170 -0.0385
 3066SOL     OW21175  10.192   6.943   1.667 -0.0784 -0.0548  0.6062
 3066SOL    HW121176  10.135   6.870   1.642  1.0618 -0.4347 -1.0183
 3066SOL    HW221177  10.274   6.901   1.692  1.1610  0.6706 -1.9270
 3067SOL     OW21178   6.977   1.040   7.871  0.4543 -0.3845 -0.5554
 3067SOL    HW121179   6.970   0.961   7.819 -2.0178 -0.0177 -0.8841
 3067SOL    HW221180   7.050   1.088   7.833  0.3963 -1.3641 -1.9578
 3068SOL     OW21181   0.500   1.290   2.940  0.3173  0.0498 -0.6512
 3068SOL    HW121182   0.535   1.343   2.869  1.9540  0.1851  0.2230
 3068SOL    HW221183   0.405   1.292   2.926  0.4442  1.8676 -1.5625
 3069SOL     OW21184   1.077   2.032   7.824  0.0293 -1.6132 -0.2961
 3069SOL    HW121185   1.111   1.973   7.891 -0.4972 -0.0033  1.4873
 3069SOL    HW221186   1.039   2.105   7.873  0.0655 -0.0896 -2.3700
 3070SOL     OW21187   3.548   1.585   8.389 -0.1805 -0.5251  0.5606
 3070SOL    HW121188   3.624   1.563   8.442  1.0574  1.2957 -0.3876
 3070SOL    HW221189   3.552   1.680   8.378 -1.8812 -0.5397 -0.5829
 3071SOL     OW21190   1.578   0.579   7.528 -0.4007  0.3483 -0.4374
 3071SOL    HW121191   1.654   0.626   7.495  1.2087 -0.6144  1.6822
 3071SOL    HW221192   1.563   0.510   7.464  2.9550 -1.8170  0.8495
 3072SOL     OW21193   6.182   9.089   4.155  0.4370  0.5678 -0.3391
 3072SOL    HW121194   6.217   9.077   4.066 -1.1632  0.6537 -1.0039
 3072SOL    HW221195   6.148   9.003   4.179  1.3474  0.4031  0.4358
 3073SOL     OW21196   0.147   4.592   9.172 -0.1309 -0.1420  0.1541
 3073SOL    HW121197   0.202   4.566   9.098  1.5916 -1.9896  1.9620
 3073SOL    HW221198   0.091   4.661   9.137  0.6631 -0.8770 -2.8226
 3074SOL     OW21199   1.936   1.992   4.701  0.7604 -0.0991  0.3414
 3074SOL    HW121200   1.850   1.954   4.682 -0.1684  0.4231  3.0685
 3074SOL    HW221201   1.975   2.007   4.615 -1.4882 -1.1863 -0.9641
 3075SOL     OW21202   5.983   0.698   8.866  0.1857  0.0812  0.1012
 3075SOL    HW121203   5.929   0.739   8.798  0.4764 -0.0988 -0.2396
 3075SOL    HW221204   6.057   0.661   8.819  0.4583  0.0683  0.5352
 3076SOL     OW21205   1.947   6.976   7.154 -0.2195 -0.2869  0.0033
 3076SOL    HW121206   1.992   6.958   7.236  1.3066  0.7871 -0.5373
 3076SOL    HW221207   2.010   7.028   7.104 -1.8768  0.8039 -1.0357
 3077SOL     OW21208   1.013   6.946   7.387  0.5717  0.2514 -0.2440
 3077SOL    HW121209   0.972   6.921   7.470 -2.0079 -1.1794 -1.8052
 3077SOL    HW221210   1.051   6.865   7.354  2.1774  0.9554 -0.2122
 3078SOL     OW21211   4.204   5.801   3.162 -0.1404 -0.0571  0.5529
 3078SOL    HW121212   4.254   5.743   3.104  0.1607  0.0686  0.6878
 3078SOL    HW221213   4.205   5.886   3.118 -1.7146 -0.4434 -0.3205
 3079SOL     OW21214   0.861  10.296   4.218  0.2385 -0.0276 -0.2162
 3079SOL    HW121215   0.861  10.205   4.249  0.9736  0.1530  0.3349
 3079SOL    HW221216   0.827  10.346   4.291 -0.5772  0.1084 -0.6719
 3080SOL     OW21217   4.687   1.926   2.741 -0.5022 -0.2819 -0.4290
 3080SOL    HW121218   4.659   2.016   2.728  0.6608 -0.0187 -1.2595
 3080SOL    HW221219   4.697   1.890   2.653  1.2251 -0.5055 -0.1908
 3081SOL     OW21220   9.051   8.581   1.975  0.3510  0.4218  0.0809
 3081SOL    HW121221   9.010   8.657   2.016 -2.4215  0.2779 -2.1694
 3081SOL    HW221222   9.112   8.618   1.911 -1.1169  0.8241 -1.1311
 3082SOL     OW21223   5.823   1.152   8.717  0.0252 -0.7964  0.4338
 3082SOL    HW121224   5.747   1.146   8.775 -1.1520  0.3460 -0.9087
 3082SOL    HW221225   5.802   1.092   8.645  1.8713 -2.8930  1.5200
 3083SOL     OW21226   6.316   6.534   3.389  0.2016 -0.6363 -0.0488
 3083SOL    HW121227   6.300   6.441   3.401  0.3045 -0.5699  0.6455
 3083SOL    HW221228   6.381   6.539   3.320 -0.4282 -1.0374 -0.6874
 3084SOL     OW21229   5.048   3.915   4.709  0.4150 -0.2225  0.0743
 3084SOL    HW121230   5.055   3.821   4.729  3.6408 -0.5064 -1.6741
 3084SOL    HW221231   5.004   3.918   4.624  1.1115 -0.2387 -0.2915
 3085SOL     OW21232   9.660   4.896   4.753 -0.0746  0.2965  0.7877
 3085SOL    HW121233   9.743   4.866   4.714 -0.7610 -0.8381  0.1652
 3085SOL    HW221234   9.628   4.822   4.803 -1.9892 -0.2388 -1.0805
 3086SOL     OW21235   6.284   9.188   5.501 -0.2913 -0.1274  0.1050
 3086SOL    HW121236   6.241   9.219   5.580  0.8283 -2.0503  1.5318
 3086SOL    HW221237   6.310   9.268   5.455 -2.0989  1.0306  1.0119
 3087SOL     OW21238   8.076   1.766   0.121  0.1460  0.4723  0.0738
 3087SOL    HW121239   8.047   1.854   0.095  0.2816 -0.0462 -2.0274
 3087SOL    HW221240   8.009   1.707   0.084  1.9778 -0.5144 -1.9033
 3088SOL     OW21241   7.804   5.246   6.993 -0.5010  0.9698 -0.2295
 3088SOL    HW121242   7.851   5.165   7.010 -1.0667  0.7628  0.4044
 3088SOL    HW221243   7.712   5.225   7.012 -0.4557  2.2249  1.6939
 3089SOL     OW21244   8.355   2.433   5.413 -0.0550 -0.4438 -0.0300
 3089SOL    HW121245   8.309   2.485   5.479 -0.0374  0.4432 -0.6951
 3089SOL    HW221246   8.325   2.469   5.329  0.5771 -0.9729 -0.4930
 3090SOL     OW21247   4.622   5.057   7.058  0.4597  0.2802 -0.0244
 3090SOL    HW121248   4.708   5.072   7.096 -0.2599  1.4812  1.2449
 3090SOL    HW221249   4.567   5.030   7.132 -0.0837 -1.3629 -0.9640
 3091SOL     OW21250   0.504   4.152   1.661 -0.1121 -0.5933 -0.0802
 3091SOL    HW121251   0.426   4.207   1.668  0.2797  0.0262 -0.4066
 3091SOL    HW221252   0.552   4.166   1.743  0.4034  0.2226 -0.5086
 3092SOL     OW21253   5.424   4.137   3.908 -0.1276  0.2620  0.2131
 3092SOL    HW121254   5.385   4.132   3.996 -0.6262  1.3847  0.0702
 3092SOL    HW221255   5.462   4.225   3.903  1.7866 -0.5234  0.0535
 3093SOL     OW21256   1.475   3.258   1.194 -0.4896 -0.3421  0.1975
 3093SOL    HW121257   1.509   3.261   1.283 -0.4342 -0.4892  0.1823
 3093SOL    HW221258   1.522   3.185   1.153 -0.3746 -0.1525 -0.0106
 3094SOL     OW21259  10.142   2.691   1.628  0.0119 -0.2091 -0.5242
 3094SOL    HW121260  10.189   2.666   1.549  0.7200 -0.7963  0.0738
 3094SOL    HW221261  10.123   2.609   1.672 -1.9398 -0.0173 -0.9342
 3095SOL     OW21262   5.005   1.076   2.849  0.0490  0.0210  0.6646
 3095SOL    HW121263   4.931   1.016   2.837 -0.5858  0.9517 -0.2518
 3095SOL    HW221264   5.073   1.042   2.790 -0.2065  0.0378  0.3591
 3096SOL     OW21265   0.237   2.258   6.027 -0.8013 -0.0181  0.1807
 3096SOL    HW121266   0.146   2.277   6.006 -0.2465  1.2672 -1.2493
 3096SOL    HW221267   0.256   2.176   5.983 -0.6322  0.9253 -1.6006
 3097SOL     OW21268   2.340   3.031   8.353  0.2290  0.2750  0.2149
 3097SOL    HW121269   2.278   3.096   8.321 -0.7459 -0.9611 -0.5016
 3097SOL    HW221270   2.426   3.064   8.326 -0.2899  1.0101 -0.5649
 3098SOL     OW21271   8.085   3.897   8.687  0.0328  0.2338  0.3167
 3098SOL    HW121272   8.072   3.898   8.592 -0.2214  1.6237  0.3466
 3098SOL    HW221273   8.163   3.843   8.700 -0.0167 -0.0921 -0.6606
 3099SOL     OW21274   8.319   6.329   4.154 -0.2006  0.4653  0.2360
 3099SOL    HW121275   8.298   6.402   4.097 -0.1465  2.1912  2.3093
 3099SOL    HW221276   8.369   6.269   4.099 -1.6772  1.1503 -1.9726
 3100SOL     OW21277   5.555   1.819   7.126 -0.0626  0.4436 -0.7356
 3100SOL    HW121278   5.556   1.856   7.038  2.8061 -0.6543 -1.2804
 3100SOL    HW221279   5.639   1.844   7.164  1.1570 -3.4757 -0.3679
 3101SOL     OW21280   2.768   6.838   7.128  0.2610  0.3833  0.1791
 3101SOL    HW121281   2.759   6.771   7.061  1.3312  1.1351 -0.7530
 3101SOL    HW221282   2.678   6.864   7.149 -0.0813  0.4134 -1.2534
 3102SOL     OW21283   4.645   2.625   9.487  0.1248  0.4923  0.3124
 3102SOL    HW121284   4.731   2.598   9.455 -0.5877 -2.5577  0.6775
 3102SOL    HW221285   4.659   2.649   9.578  0.6323  0.4310  0.2523
 3103SOL     OW21286   7.821   7.632   2.929  0.2385 -0.1749  0.0853
 3103SOL    HW121287   7.902   7.659   2.886 -0.1083 -0.7666 -0.9737
 3103SOL    HW221288   7.753   7.684   2.887 -0.1709 -1.1393 -0.4867
 3104SOL     OW21289   3.411   3.433   6.854 -0.3473 -0.1816 -0.0877
 3104SOL    HW121290   3.450   3.455   6.770 -3.6371 -0.1134 -1.7696
 3104SOL    HW221291   3.421   3.512   6.907  0.8560  0.1316 -0.7538
 3105SOL     OW21292   8.306   3.772   8.461 -0.0639 -0.2319  0.2651
 3105SOL    HW121293   8.394   3.806   8.443 -0.0562 -1.0802 -1.5207
 3105SOL    HW221294   8.300   3.771   8.557  1.3572  1.1025  0.4128
 3106SOL     OW21295   2.432  10.208   2.511 -0.6732 -0.0059 -0.3755
 3106SOL    HW121296   2.423  10.302   2.494  0.9225  0.1414 -0.6012
 3106SOL    HW221297   2.523  10.188   2.486  0.0906 -0.9234  2.7579
 3107SOL     OW21298   4.602   3.988   0.313  0.5645 -0.2082  0.1418
 3107SOL    HW121299   4.682   3.961   0.358  1.9531 -2.0369 -3.0875
 3107SOL    HW221300   4.633   4.036   0.237 -1.5409  0.5072 -0.3258
 3108SOL     OW21301   5.117   6.890   7.522 -0.1516  0.1029  0.1780
 3108SOL    HW121302   5.029   6.884   7.558 -0.9252  0.1653 -1.5786
 3108SOL    HW221303   5.139   6.800   7.499  0.1203  0.1294  0.3329
 3109SOL     OW21304   7.676   0.521   2.378  0.3688  0.7912  0.1033
 3109SOL    HW121305   7.649   0.429   2.375  0.4754  0.7753 -0.4541
 3109SOL    HW221306   7.671   0.544   2.470 -1.4989  0.7723  0.0479
 3110SOL     OW21307   5.311   5.333   4.862  0.2692 -0.2017 -0.4001
 3110SOL    HW121308   5.331   5.289   4.945 -1.2861  0.5827  0.4457
 3110SOL    HW221309   5.391   5.380   4.840  0.3398  0.5589  1.3270
 3111SOL     OW21310   8.758   2.331   5.519 -0.0181 -0.4562  0.2239
 3111SOL    HW121311   8.851   2.310   5.513  0.3609  0.8053  1.2967
 3111SOL    HW221312   8.746   2.364   5.608 -0.9780  1.6243 -0.5958
 3112SOL     OW21313  10.102   8.896   0.250 -1.1237 -0.6152 -0.1496
 3112SOL    HW121314  10.082   8.816   0.299 -0.6466 -0.9548 -0.4942
 3112SOL    HW221315  10.165   8.868   0.183 -2.3055 -0.3198 -1.4340
 3113SOL     OW21316   1.300   7.914   3.584 -0.2043  0.2142 -0.1494
 3113SOL    HW121317   1.214   7.954   3.595 -0.2448  0.0137  0.2981
 3113SOL    HW221318   1.343   7.926   3.669  1.0080  2.1334 -0.9793
 3114SOL     OW21319   3.239   7.464   6.142  0.3955 -0.1323  0.3259
 3114SOL    HW121320   3.299   7.533   6.170 -0.4729  1.0608 -0.6348
 3114SOL    HW221321   3.296   7.395   6.107  1.2184  0.9547 -0.5327
 3115SOL     OW21322   2.805   5.161   8.961 -0.2558 -0.3614  0.4906
 3115SOL    HW121323   2.853   5.093   9.007 -1.0746 -1.7763 -0.6363
 3115SOL    HW221324   2.741   5.193   9.025  1.5071  0.9192  1.7125
 3116SOL     OW21325   1.861   7.721   0.386 -0.1707 -0.6217 -0.3113
 3116SOL    HW121326   1.942   7.682   0.354 -1.4000 -2.6288 -1.1290
 3116SOL    HW221327   1.889   7.799   0.434  2.1789 -0.9675 -1.0333
 3117SOL     OW21328   0.752   0.941   2.750  0.4081 -0.0314  0.1596
 3117SOL    HW121329   0.795   0.883   2.688 -2.1875  0.5174 -2.4038
 3117SOL    HW221330   0.810   1.017   2.758  1.7088 -0.9831  0.0277
 3118SOL     OW21331   5.943   1.359  10.167 -0.4337 -0.1468 -0.3287
 3118SOL    HW121332   5.900   1.410  10.236  0.7809 -0.6761  0.8825
 3118SOL    HW221333   5.990   1.289  10.215  1.1802 -0.0083 -1.6034
 3119SOL     OW21334   3.424   6.815   3.170  0.3123 -0.2877  0.6962
 3119SOL    HW121335   3.467   6.831   3.254  0.7718  0.1389  0.3825
 3119SOL    HW221336   3.495   6.791   3.111  0.1792  0.8403  0.0611
 3120SOL     OW21337   5.340   3.227   4.855 -0.1032 -0.2167  0.0440
 3120SOL    HW121338   5.371   3.142   4.885  0.4828 -0.2963 -0.7395
 3120SOL    HW221339   5.291   3.262   4.928  1.7778 -0.1241  1.3333
 3121SOL     OW21340   6.094   5.933  10.126 -0.0241 -0.6328  0.3452
 3121SOL    HW121341   6.128   6.010  10.081 -0.1395 -1.6747 -1.6093
 3121SOL    HW221342   6.098   5.957  10.219 -1.3457  2.2432 -0.2238
 3122SOL     OW21343   0.373   6.662   7.310 -0.7682 -0.1188  0.3087
 3122SOL    HW121344   0.354   6.574   7.277 -1.6817  0.5240 -0.9875
 3122SOL    HW221345   0.380   6.716   7.231 -1.3262  1.1770  1.1132
 3123SOL     OW21346   1.090   3.142   3.448  0.4808 -0.5610 -0.1301
 3123SOL    HW121347   1.156   3.076   3.468  1.3628  0.3841  0.1938
 3123SOL    HW221348   1.116   3.218   3.500 -0.1860  0.2227 -0.9098
 3124SOL     OW21349   7.260   2.047   0.315  0.5319  0.2666 -0.1510
 3124SOL    HW121350   7.226   2.129   0.350 -0.9207 -0.4373  0.1490
 3124SOL    HW221351   7.295   2.070   0.229  2.7203  1.7178  1.0262
 3125SOL     OW21352   8.429   1.837   0.052 -0.2964 -0.5478 -0.3886
 3125SOL    HW121353   8.441   1.743   0.034 -1.2738 -0.8758  0.5831
 3125SOL    HW221354   8.392   1.871  -0.030  2.4836 -0.4275 -1.7263
 3126SOL     OW21355   6.150   0.155   7.927 -0.1287 -0.1251  0.3449
 3126SOL    HW121356   6.102   0.238   7.924  0.7451  0.3760 -1.5044
 3126SOL    HW221357   6.130   0.113   7.843  0.3686 -1.2471  0.7670
 3127SOL     OW21358  10.204   9.479   0.783  0.7265  0.1437  0.4682
 3127SOL    HW121359  10.109   9.474   0.790  0.7147  0.8863  0.9434
 3127SOL    HW221360  10.233   9.502   0.871  1.3786 -0.4381  0.4110
 3128SOL     OW21361   5.146   7.982   4.426  0.3031 -0.2991 -0.5035
 3128SOL    HW121362   5.084   8.053   4.441  1.3357  0.1993  1.8594
 3128SOL    HW221363   5.129   7.953   4.336 -1.5927  1.4835 -0.7765
 3129SOL     OW21364   4.458   5.688   2.689  0.1547 -0.1385 -0.0812
 3129SOL    HW121365   4.484   5.730   2.607 -1.8714  0.5866 -0.3997
 3129SOL    HW221366   4.461   5.594   2.669 -1.0052  0.0387 -1.2409
 3130SOL     OW21367   9.348   4.282   1.495 -0.1240  0.0875 -0.3084
 3130SOL    HW121368   9.348   4.347   1.564 -0.6242  1.5506 -1.6368
 3130SOL    HW221369   9.406   4.213   1.527  0.0612  0.9656  1.3241
 3131SOL     OW21370  10.078   1.288   2.545  0.4040  0.6447  0.1446
 3131SOL    HW121371  10.083   1.271   2.639  1.2140  0.2163  0.0281
 3131SOL    HW221372   9.996   1.336   2.534  0.7325  1.5033  1.1924
 3132SOL     OW21373   1.679   7.649   3.921  0.4497 -0.2549 -0.2329
 3132SOL    HW121374   1.654   7.737   3.894 -0.8487 -0.7273 -0.6904
 3132SOL    HW221375   1.628   7.592   3.863 -0.5170 -1.3106  1.5878
 3133SOL     OW21376   2.272   3.209   4.170  0.3232 -0.1008  0.7998
 3133SOL    HW121377   2.292   3.150   4.098  0.5270  0.5477  0.3193
 3133SOL    HW221378   2.192   3.254   4.143 -0.0639 -0.4420  1.3452
 3134SOL     OW21379   1.546   2.750   3.121  0.0346  0.1658 -0.7821
 3134SOL    HW121380   1.473   2.808   3.098  1.0738  1.3263 -1.2858
 3134SOL    HW221381   1.603   2.751   3.044  1.4711  0.7429  0.2335
 3135SOL     OW21382   4.501   2.996   8.803  0.2743 -0.7870  0.6379
 3135SOL    HW121383   4.525   2.905   8.820  2.5078 -0.3210  0.3827
 3135SOL    HW221384   4.585   3.039   8.786 -0.9244  0.1050 -5.1702
 3136SOL     OW21385   1.679   2.829   7.382 -0.0411 -1.1055 -0.1969
 3136SOL    HW121386   1.624   2.831   7.304 -2.0481 -1.2296  1.1303
 3136SOL    HW221387   1.673   2.739   7.413 -2.5204 -0.2794  2.1694
 3137SOL     OW21388   1.742   8.863   6.116  0.3426 -0.4865 -0.3292
 3137SOL    HW121389   1.686   8.914   6.175  0.4850  0.7751 -1.2393
 3137SOL    HW221390   1.698   8.869   6.031  0.5548 -1.6102 -0.5262
 3138SOL     OW21391   9.018   6.980   7.912  0.7028  0.3850  0.3357
 3138SOL    HW121392   9.032   7.024   7.828  0.5400  0.0617  0.1390
 3138SOL    HW221393   9.032   7.049   7.977  0.5163  0.7147  0.0325
 3139SOL     OW21394   9.599   4.065   7.612 -0.2715  0.1548 -0.1372
 3139SOL    HW121395   9.569   4.021   7.692  2.4697 -0.2292  0.7842
 3139SOL    HW221396   9.558   4.016   7.541 -1.4153 -0.5728  0.9735
 3140SOL     OW21397   9.374   5.618   4.219  0.3053 -0.4861 -0.1627
 3140SOL    HW121398   9.409   5.696   4.262 -0.6420 -0.4211  0.5175
 3140SOL    HW221399   9.368   5.552   4.289  0.6879 -1.0354 -0.6386
 3141SOL     OW21400   9.112   9.626   4.875 -0.3245 -0.3922 -0.2098
 3141SOL    HW121401   9.033   9.659   4.919  0.2056  2.0417 -0.9044
 3141SOL    HW221402   9.137   9.548   4.924 -4.1514 -2.3828 -1.0436
 3142SOL     OW21403   1.698   7.178   3.900 -0.1127 -0.3186  0.0675
 3142SOL    HW121404   1.642   7.160   3.975  1.1581  1.6698  1.5898
 3142SOL    HW221405   1.637   7.193   3.827 -1.4449 -0.5170  1.1147
 3143SOL     OW21406   6.914   0.983   2.960 -0.0657  0.2272  0.1919
 3143SOL    HW121407   6.903   0.990   3.055 -1.0428  0.8737  0.0401
 3143SOL    HW221408   6.920   0.889   2.943  3.0224  0.1229  1.1795
 3144SOL     OW21409   3.093   3.762   9.549  0.0899  0.1319  0.0356
 3144SOL    HW121410   3.143   3.835   9.513  1.4380 -0.1424  1.3073
 3144SOL    HW221411   3.021   3.750   9.486  0.3883  1.8948 -0.7108
 3145SOL     OW21412   6.149   3.531   7.903 -0.3274 -0.4049  0.4247
 3145SOL    HW121413   6.135   3.447   7.946 -1.4088 -0.6476 -0.3438
 3145SOL    HW221414   6.228   3.519   7.852 -1.0238 -1.3176 -0.4806
 3146SOL     OW21415   9.166   3.829   4.295  0.6024 -0.1425  0.0054
 3146SOL    HW121416   9.162   3.801   4.204  3.4194  0.8831 -0.5194
 3146SOL    HW221417   9.132   3.919   4.294  2.2627  0.5134 -0.4070
 3147SOL     OW21418   5.531   0.390   9.327  0.0158 -0.1889  0.1874
 3147SOL    HW121419   5.568   0.340   9.399 -1.2534 -0.8525  0.4152
 3147SOL    HW221420   5.572   0.353   9.248  1.9550  1.0341  0.5776
 3148SOL     OW21421   5.760   6.194   2.968  0.4559 -0.1118  0.3937
 3148SOL    HW121422   5.718   6.178   2.884 -0.0460 -0.9333  0.7852
 3148SOL    HW221423   5.688   6.215   3.027  0.7258 -0.2435  0.7759
 3149SOL     OW21424   1.072   1.434   1.547 -0.0343  0.6594  0.0779
 3149SOL    HW121425   1.028   1.361   1.590 -0.6789  1.0035  0.0145
 3149SOL    HW221426   1.075   1.408   1.454  0.9159  0.1378  0.2385
 3150SOL     OW21427   5.008   8.019   9.302  0.2638  0.0042 -0.5256
 3150SOL    HW121428   4.949   7.952   9.338  0.6865 -0.6653 -1.0651
 3150SOL    HW221429   5.095   7.981   9.309  0.8039  1.3860  1.2049
 3151SOL     OW21430   2.921   9.507   9.004 -0.6639  0.0729  0.0129
 3151SOL    HW121431   2.907   9.478   8.914  0.3172 -0.2695 -0.0403
 3151SOL    HW221432   2.992   9.571   8.999 -0.3224 -0.2461  0.5817
 3152SOL     OW21433   1.996   2.651   7.543  0.1741 -0.8705 -0.0641
 3152SOL    HW121434   2.025   2.678   7.630 -0.9014 -1.3797  0.4614
 3152SOL    HW221435   1.986   2.733   7.495 -0.6259 -0.4796  0.7420
 3153SOL     OW21436   5.552   8.495   9.429 -0.1069  0.1466 -0.0179
 3153SOL    HW121437   5.626   8.548   9.461 -1.0247  2.2207 -1.1393
 3153SOL    HW221438   5.586   8.452   9.351  1.3561 -2.9164  2.1198
 3154SOL     OW21439   1.598   4.333   9.059  0.0177 -0.0433  0.2410
 3154SOL    HW121440   1.526   4.386   9.026 -2.3213 -3.4565 -0.6825
 3154SOL    HW221441   1.574   4.312   9.149  1.1863  0.7902  0.7781
 3155SOL     OW21442   9.335   6.359   8.745  0.6144 -1.0577 -0.1210
 3155SOL    HW121443   9.357   6.272   8.709  0.1270 -1.0289 -0.5056
 3155SOL    HW221444   9.375   6.360   8.832  1.7116 -1.1836 -0.6104
 3156SOL     OW21445   8.843   1.708   9.678  0.0078 -0.3510  0.1945
 3156SOL    HW121446   8.822   1.730   9.769 -2.1155  0.2641 -0.3769
 3156SOL    HW221447   8.879   1.789   9.641  0.1735 -0.3784  0.2966
 3157SOL     OW21448   9.253   8.520   2.383  0.8431  0.6685 -0.1106
 3157SOL    HW121449   9.325   8.477   2.430  2.5077  1.2932 -1.9322
 3157SOL    HW221450   9.268   8.498   2.291 -0.1520  2.4105 -0.7462
 3158SOL     OW21451   4.766   9.678   3.224 -0.2226 -0.6416  0.3217
 3158SOL    HW121452   4.705   9.619   3.180 -1.1098  0.4629  0.0348
 3158SOL    HW221453   4.843   9.679   3.167 -1.0215  0.0834 -0.7756
 3159SOL     OW21454   1.220   9.133   8.885  0.3323  0.1420 -0.1464
 3159SOL    HW121455   1.192   9.063   8.944  1.3337 -0.9575 -0.9389
 3159SOL    HW221456   1.211   9.213   8.937 -1.6466 -0.4368  0.5110
 3160SOL     OW21457   7.581   9.906   3.758  0.1817 -0.4865  0.9049
 3160SOL    HW121458   7.612   9.839   3.819  0.2087 -0.5263  0.8479
 3160SOL    HW221459   7.661   9.942   3.719  0.2009 -0.0138  1.3579
 3161SOL     OW21460   5.441   8.773   4.352  0.8515 -0.3577 -0.5237
 3161SOL    HW121461   5.461   8.785   4.445 -0.8064  1.1656 -0.3163
 3161SOL    HW221462   5.349   8.748   4.349  0.1236  2.1168 -1.8135
 3162SOL     OW21463   3.938   8.757   0.474 -0.0532  0.0785 -0.6245
 3162SOL    HW121464   3.876   8.829   0.461 -0.1300  0.1020 -0.1438
 3162SOL    HW221465   3.935   8.707   0.392 -1.1881 -0.2847 -0.3782
 3163SOL     OW21466   0.227   9.598   0.253 -0.9409  0.1639 -0.2753
 3163SOL    HW121467   0.163   9.527   0.253 -0.3630 -0.4558 -2.8783
 3163SOL    HW221468   0.312   9.554   0.257 -0.5600  0.6099 -2.4036
 3164SOL     OW21469   3.538   9.694   5.564  0.2970  0.2708  0.4511
 3164SOL    HW121470   3.562   9.632   5.634  0.2005  0.0117  0.2544
 3164SOL    HW221471   3.565   9.649   5.483 -1.0392 -0.1156  0.2040
 3165SOL     OW21472   7.152   0.713   6.418 -0.1203 -0.4552 -0.2812
 3165SOL    HW121473   7.185   0.755   6.497  2.2883 -0.7863 -1.0198
 3165SOL    HW221474   7.113   0.631   6.448  1.2799 -0.8421  0.5446
 3166SOL     OW21475   3.939   8.276   0.342  0.1890  0.2895 -0.0177
 3166SOL    HW121476   4.005   8.343   0.359 -1.5612  2.2346 -0.4641
 3166SOL    HW221477   3.946   8.258   0.249  1.3961 -1.0338  0.2963
 3167SOL     OW21478   8.670   3.286   6.160 -0.3462 -0.6017  0.5045
 3167SOL    HW121479   8.628   3.354   6.108 -0.7807  0.3232  1.9785
 3167SOL    HW221480   8.597   3.232   6.192 -0.1478 -0.7714  0.6790
 3168SOL     OW21481   4.217   8.239   3.551 -0.5325  0.6501  0.4511
 3168SOL    HW121482   4.308   8.232   3.581  0.1373 -0.6945 -1.6723
 3168SOL    HW221483   4.170   8.273   3.627  1.5480  0.3686  1.9765
 3169SOL     OW21484   3.707   7.084   8.064  0.4510 -0.3935 -0.5065
 3169SOL    HW121485   3.773   7.143   8.101  1.2668 -1.0164 -0.9159
 3169SOL    HW221486   3.758   7.024   8.009 -0.5887 -0.2680 -1.6306
 3170SOL     OW21487   6.445   2.793   9.503  0.6806  0.3275 -0.3586
 3170SOL    HW121488   6.358   2.758   9.520  0.3294  1.0096 -0.7062
 3170SOL    HW221489   6.443   2.819   9.411  0.5764  2.2098  0.1369
 3171SOL     OW21490   4.086   8.951   3.663 -0.0612  0.3807 -0.1373
 3171SOL    HW121491   4.134   8.980   3.740 -1.4823  1.4583  0.4056
 3171SOL    HW221492   4.024   9.022   3.646 -1.3438 -0.8597 -0.8655
 3172SOL     OW21493   1.584   6.118   5.831 -0.2581 -0.2135 -0.1154
 3172SOL    HW121494   1.572   6.145   5.922 -0.5864  0.8417 -0.4693
 3172SOL    HW221495   1.655   6.054   5.836 -1.5234 -1.6192  1.1257
 3173SOL     OW21496   1.491   1.271   3.902 -0.1808 -0.3262  0.4110
 3173SOL    HW121497   1.512   1.313   3.986  0.0914 -3.1856  1.9116
 3173SOL    HW221498   1.509   1.178   3.918  1.7466 -0.7902 -3.4218
 3174SOL     OW21499   7.617   6.685   8.306 -0.1765 -0.2042  0.6026
 3174SOL    HW121500   7.590   6.607   8.354 -0.1797 -0.9284 -0.5565
 3174SOL    HW221501   7.548   6.749   8.322 -0.6540 -0.7609  0.7764
 3175SOL     OW21502   5.276   0.180   0.009  0.4779  0.3870  0.9142
 3175SOL    HW121503   5.281   0.126  -0.070  1.9578  0.3464  1.0101
 3175SOL    HW221504   5.185   0.173   0.037  0.4048 -1.2272  0.3524
 3176SOL     OW21505   2.028   0.013   5.057  0.5031 -0.4067 -0.0582
 3176SOL    HW121506   2.041   0.090   5.112 -1.2603  0.2353 -0.4747
 3176SOL    HW221507   1.935  -0.007   5.065  0.9540 -2.6445  0.2058
 3177SOL     OW21508   4.194   2.577   9.071 -0.1565 -0.4521  0.3749
 3177SOL    HW121509   4.168   2.486   9.056 -1.4221 -0.4026  2.0156
 3177SOL    HW221510   4.259   2.572   9.141 -0.3419 -0.0742  0.5758
 3178SOL     OW21511  10.345   5.652   3.211  0.7642 -0.3089 -0.5589
 3178SOL    HW121512  10.262   5.605   3.201  1.4106 -1.7872  0.5992
 3178SOL    HW221513  10.376   5.666   3.121 -1.3981  1.5719 -1.0758
 3179SOL     OW21514   1.134   9.980   8.911  0.6135  0.3859 -0.3810
 3179SOL    HW121515   1.203   9.920   8.881  0.3096 -0.6055  0.8233
 3179SOL    HW221516   1.158  10.065   8.873  1.7128 -0.2450 -1.1472
 3180SOL     OW21517   9.418   5.592   3.928  0.4787  0.2747 -0.0438
 3180SOL    HW121518   9.419   5.580   4.023  1.0126 -0.5800 -0.1433
 3180SOL    HW221519   9.492   5.540   3.897 -0.3125 -0.3115 -1.0190
 3181SOL     OW21520   9.671   2.979   1.831  0.3502  0.3088  0.2577
 3181SOL    HW121521   9.727   2.902   1.820 -1.1671 -0.9220  0.6272
 3181SOL    HW221522   9.582   2.945   1.817 -0.2211  2.6126 -2.7330
 3182SOL     OW21523   7.808   4.611   8.590 -0.0692 -0.1318 -0.4120
 3182SOL    HW121524   7.779   4.652   8.672 -0.6910  1.4080 -1.3514
 3182SOL    HW221525   7.761   4.659   8.521  1.2915 -0.6064 -1.7319
 3183SOL     OW21526   5.764   5.330   8.059  0.1584  0.5138  0.0370
 3183SOL    HW121527   5.751   5.423   8.078 -3.8813  0.3673 -1.2022
 3183SOL    HW221528   5.835   5.328   7.995 -0.5312  2.9150 -0.8898
 3184SOL     OW21529   2.449   8.868   7.964 -0.4210  0.3387 -0.2819
 3184SOL    HW121530   2.358   8.850   7.991 -0.1996  1.3132  1.2320
 3184SOL    HW221531   2.466   8.805   7.894 -2.0585 -0.2865 -0.1609
 3185SOL     OW21532   6.596   1.141   9.879 -0.1448 -0.7341  0.2274
 3185SOL    HW121533   6.611   1.215   9.821  0.7291  0.3036  1.7271
 3185SOL    HW221534   6.649   1.070   9.842 -0.4716 -0.4417 -0.8428
 3186SOL     OW21535   5.364   5.487   1.243  0.1147 -0.0608  0.3356
 3186SOL    HW121536   5.313   5.417   1.204 -0.4006 -0.4775  1.7103
 3186SOL    HW221537   5.345   5.564   1.189  0.1648 -0.8103 -0.7779
 3187SOL     OW21538   3.256   6.287   5.453  0.1200 -0.1853 -0.2796
 3187SOL    HW121539   3.173   6.326   5.426 -0.4816 -1.0837  0.2153
 3187SOL    HW221540   3.234   6.197   5.476  1.4113 -0.7366 -1.0647
 3188SOL     OW21541   7.572   7.743   5.287 -0.2906  0.1663 -0.3220
 3188SOL    HW121542   7.564   7.790   5.370 -0.6671 -1.6762  0.7218
 3188SOL    HW221543   7.519   7.665   5.298  2.7030 -2.1112 -0.8333
 3189SOL     OW21544   0.121   0.371   5.648  0.1086  0.1577  0.1470
 3189SOL    HW121545   0.108   0.409   5.735  0.1548 -0.5798  0.4804
 3189SOL    HW221546   0.204   0.324   5.654  0.8741  1.3367 -0.7420
 3190SOL     OW21547   8.701   1.012   1.882  0.2637  0.1126  0.0770
 3190SOL    HW121548   8.733   0.929   1.917 -1.3780 -0.9548 -0.7801
 3190SOL    HW221549   8.736   1.078   1.941  2.4897 -1.0769  0.1778
 3191SOL     OW21550   9.139   1.193   9.313  0.7105  0.1503 -0.1049
 3191SOL    HW121551   9.156   1.228   9.225 -0.9012 -0.7639 -0.8295
 3191SOL    HW221552   9.208   1.129   9.327  0.4424 -0.4080 -1.1529
 3192SOL     OW21553   7.261   0.420   2.421 -0.2118 -0.1568 -0.8654
 3192SOL    HW121554   7.320   0.346   2.407 -0.1340 -0.3994  0.5435
 3192SOL    HW221555   7.294   0.462   2.500 -1.9472 -0.3607  0.0266
 3193SOL     OW21556   9.273   3.841   8.265 -0.3204 -0.0330  0.3125
 3193SOL    HW121557   9.227   3.759   8.247  0.8967 -0.8922  0.9709
 3193SOL    HW221558   9.214   3.889   8.324 -1.2054 -0.2547 -0.3741
 3194SOL     OW21559   7.985  10.023   9.631 -0.1829  0.2296  0.1091
 3194SOL    HW121560   7.985   9.932   9.600  3.4867 -0.3753  1.3858
 3194SOL    HW221561   8.012  10.016   9.722  0.3778  2.6480  0.1704
 3195SOL     OW21562   4.987   6.361   7.199  0.3269  0.5103  0.1324
 3195SOL    HW121563   4.972   6.288   7.139 -1.0295  0.7098  0.1986
 3195SOL    HW221564   5.082   6.377   7.194  0.3613  0.0105 -1.3361
 3196SOL     OW21565   4.516   0.461   4.017  0.1743  0.0350 -0.1189
 3196SOL    HW121566   4.572   0.491   3.945 -0.6894 -0.3428 -0.9583
 3196SOL    HW221567   4.565   0.389   4.057  0.6953  0.2996 -0.2639
 3197SOL     OW21568   0.914   2.521   4.992 -0.1010 -0.3320  0.3982
 3197SOL    HW121569   0.868   2.438   4.975  0.6073 -0.5558 -0.4755
 3197SOL    HW221570   0.983   2.498   5.054 -0.9015 -0.0698  1.4110
 3198SOL     OW21571   4.998   9.996   1.138 -0.2665 -0.1710  0.2401
 3198SOL    HW121572   4.970   9.962   1.223  0.2092 -0.8863  0.1153
 3198SOL    HW221573   4.971   9.929   1.075 -0.1626  0.1188 -0.1161
 3199SOL     OW21574   0.391   0.865   6.721  0.5567 -0.3483  0.1732
 3199SOL    HW121575   0.300   0.834   6.723  0.3950 -0.1725 -1.9455
 3199SOL    HW221576   0.384   0.958   6.742  0.3036 -0.4192  0.4169
 3200SOL     OW21577   4.039   4.481   0.491 -0.5255  0.0385  0.9811
 3200SOL    HW121578   3.992   4.444   0.416 -1.4565  0.1809  1.4923
 3200SOL    HW221579   4.108   4.417   0.510 -1.5597 -1.0047  1.2965
 3201SOL     OW21580   0.980   4.560   8.453  0.1409 -0.3485 -0.0143
 3201SOL    HW121581   1.021   4.591   8.533 -0.0930  0.1505 -0.0853
 3201SOL    HW221582   1.053   4.542   8.393  0.3825 -1.7752  0.6706
 3202SOL     OW21583   5.340   5.323   6.088  0.4303 -1.0108 -0.0996
 3202SOL    HW121584   5.370   5.293   6.002  0.1070 -0.8917 -0.2540
 3202SOL    HW221585   5.406   5.387   6.115 -0.0274 -0.2443 -0.7381
 3203SOL     OW21586   1.217   9.141   1.404 -0.0441 -0.5484  0.0494
 3203SOL    HW121587   1.146   9.090   1.443  0.3146 -0.9142  0.2382
 3203SOL    HW221588   1.294   9.084   1.413 -0.0942 -1.0125 -1.9012
 3204SOL     OW21589   7.929   1.581   2.297  0.3298 -0.1875  0.4736
 3204SOL    HW121590   7.934   1.497   2.344 -0.1223 -0.2824  0.3547
 3204SOL    HW221591   8.015   1.621   2.312  0.3645 -0.4357  0.9720
 3205SOL     OW21592   3.142   7.488   1.184 -0.9824  0.6183  0.1081
 3205SOL    HW121593   3.062   7.529   1.217 -0.6362  1.3122  0.1031
 3205SOL    HW221594   3.155   7.527   1.098 -1.0952 -0.1237 -0.2592
 3206SOL     OW21595   7.893   2.734   3.154  0.1007  0.1360  0.3381
 3206SOL    HW121596   7.832   2.701   3.220  2.4599  1.1099  3.2331
 3206SOL    HW221597   7.928   2.656   3.112 -2.3070 -0.4632 -0.7472
 3207SOL     OW21598   1.925   1.183   4.430  0.0841 -0.0071 -0.9718
 3207SOL    HW121599   1.862   1.241   4.388 -0.0426  2.2116  1.9495
 3207SOL    HW221600   1.874   1.133   4.494  0.8311 -0.3034 -0.5882
 3208SOL     OW21601   8.179   0.393   6.113 -0.4117  0.1631 -0.2557
 3208SOL    HW121602   8.129   0.419   6.190 -1.0702 -0.5177 -0.4426
 3208SOL    HW221603   8.114   0.361   6.051  0.1031  0.7796 -1.1373
 3209SOL     OW21604   6.876   4.238   6.903 -0.1189  0.2333 -0.2942
 3209SOL    HW121605   6.839   4.206   6.820  0.7480 -0.9495 -0.2491
 3209SOL    HW221606   6.801   4.242   6.963 -0.5533  0.0064 -0.8109
 3210SOL     OW21607   1.437   2.259   2.422  0.2483  0.0382  0.2555
 3210SOL    HW121608   1.476   2.346   2.433  0.7188 -0.1438  0.0404
 3210SOL    HW221609   1.394   2.242   2.506  0.1434  0.4845  0.2952
 3211SOL     OW21610   9.976  10.240   5.493  0.2201 -0.4184 -0.0974
 3211SOL    HW121611   9.966  10.231   5.588  0.3999 -2.4863 -0.2228
 3211SOL    HW221612  10.055  10.293   5.481 -0.3433  0.6886  0.8719
 3212SOL     OW21613   9.050   0.320   2.115 -0.3724  0.6494  0.0129
 3212SOL    HW121614   9.024   0.376   2.043 -2.3164  1.1985  1.0800
 3212SOL    HW221615   9.066   0.380   2.188 -0.9253 -0.0459  0.7244
 3213SOL     OW21616   5.551   4.250   4.909  0.3519 -0.1626 -0.3034
 3213SOL    HW121617   5.470   4.206   4.938  0.1884 -0.1233 -0.6918
 3213SOL    HW221618   5.559   4.325   4.967 -0.1915  0.1409 -0.6076
 3214SOL     OW21619   3.408   4.867   2.773  0.2272  0.4152  0.6730
 3214SOL    HW121620   3.418   4.960   2.757  0.7630  0.1148 -0.9900
 3214SOL    HW221621   3.493   4.829   2.752 -0.3880 -0.5935 -0.1611
 3215SOL     OW21622   3.722   4.076   5.923 -0.0777 -0.0064  0.7802
 3215SOL    HW121623   3.732   4.167   5.951  1.5601  0.2992 -0.5955
 3215SOL    HW221624   3.633   4.052   5.948 -0.3849  1.8237  1.5821
 3216SOL     OW21625   0.511   9.125   6.351 -0.0533  0.7027  0.3050
 3216SOL    HW121626   0.486   9.194   6.413 -1.7281  0.5270 -0.1111
 3216SOL    HW221627   0.451   9.053   6.370  0.4668  0.0387 -0.4719
 3217SOL     OW21628   9.243   8.837   6.415  0.6684 -0.2467 -0.0048
 3217SOL    HW121629   9.320   8.892   6.401 -0.3503  0.7048 -2.3011
 3217SOL    HW221630   9.220   8.805   6.328 -3.1499  1.7922  0.0379
 3218SOL     OW21631   4.595   7.624   5.298 -0.0569 -0.2722 -0.0202
 3218SOL    HW121632   4.533   7.555   5.273 -1.0265  0.7010 -0.3572
 3218SOL    HW221633   4.589   7.688   5.227  3.6575 -1.5411 -1.7313
 3219SOL     OW21634   2.599   3.044   5.099 -0.0932 -0.3326  0.0608
 3219SOL    HW121635   2.689   3.033   5.068 -0.5431 -0.9871 -1.0330
 3219SOL    HW221636   2.558   3.101   5.034 -0.5079 -0.1136  0.5059
 3220SOL     OW21637   5.549   9.666   9.483  0.1818  0.7013 -0.5714
 3220SOL    HW121638   5.543   9.697   9.392  1.8990  1.2883 -0.5209
 3220SOL    HW221639   5.559   9.571   9.474 -1.0102  0.5983 -0.9223
 3221SOL     OW21640   9.552   1.600   4.369 -0.0796 -0.5735  0.1173
 3221SOL    HW121641   9.552   1.562   4.457  1.0600 -3.4047 -0.9730
 3221SOL    HW221642   9.462   1.591   4.339 -0.0651 -1.3904  0.3067
 3222SOL     OW21643   5.539   6.223   8.036 -0.4773  0.3177  0.7625
 3222SOL    HW121644   5.460   6.173   8.054 -0.0724 -1.0747 -1.0747
 3222SOL    HW221645   5.587   6.171   7.971  1.3187  1.7537  0.8425
 3223SOL     OW21646   8.887   2.491  10.108  0.3577  0.3963 -0.2059
 3223SOL    HW121647   8.796   2.515  10.094  0.2697 -0.4165 -1.0624
 3223SOL    HW221648   8.924   2.567  10.155 -0.5978  0.9773 -0.3608
 3224SOL     OW21649   1.417   6.702   6.678 -0.2674 -0.4328  0.6322
 3224SOL    HW121650   1.365   6.732   6.752 -1.6797 -1.8975  0.3050
 3224SOL    HW221651   1.355   6.700   6.605  0.6553 -0.7298 -0.1644
 3225SOL     OW21652   1.098   4.670   1.347 -0.1608 -0.3322 -0.5595
 3225SOL    HW121653   1.030   4.692   1.410 -2.2045 -1.7044 -2.1643
 3225SOL    HW221654   1.132   4.586   1.377  0.0756 -0.1765 -0.3802
 3226SOL     OW21655   8.417   2.183   6.932  0.0238 -0.1232  0.8724
 3226SOL    HW121656   8.479   2.202   6.862 -1.7416 -1.0615 -1.0547
 3226SOL    HW221657   8.420   2.088   6.942 -2.0178 -0.3632 -0.2453
 3227SOL     OW21658   3.353   1.652   1.256 -0.4802  0.5019 -0.2321
 3227SOL    HW121659   3.352   1.602   1.174 -1.3760 -0.6052  0.4166
 3227SOL    HW221660   3.266   1.638   1.293  0.5998 -0.9000  1.9908
 3228SOL     OW21661  10.369   1.444   6.634  0.0237 -0.5389 -0.3064
 3228SOL    HW121662  10.341   1.516   6.578  0.4413 -0.2665 -0.1681
 3228SOL    HW221663  10.451   1.474   6.674  0.0541 -0.9743 -0.0272
 3229SOL     OW21664   4.718   5.612   7.830  0.0854  0.3483 -0.4057
 3229SOL    HW121665   4.691   5.590   7.741  0.2283 -0.0941 -0.3455
 3229SOL    HW221666   4.811   5.589   7.833 -0.2151 -0.8792  0.2349
 3230SOL     OW21667   4.029   7.934   8.715  0.1809 -0.2801 -0.2806
 3230SOL    HW121668   3.960   7.869   8.727  0.6453 -0.7259  0.0566
 3230SOL    HW221669   4.085   7.923   8.792  0.3923  0.3621 -0.3398
 3231SOL     OW21670   7.078  10.297   7.170  0.1255 -0.2310 -0.4050
 3231SOL    HW121671   6.997  10.306   7.119  0.2984  0.1664 -0.6115
 3231SOL    HW221672   7.103  10.205   7.158  1.8196  0.5131 -3.5664
 3232SOL     OW21673   8.762   8.615   3.914  0.6558  0.2323 -0.3145
 3232SOL    HW121674   8.714   8.684   3.869 -1.5022 -0.8315  0.2248
 3232SOL    HW221675   8.830   8.661   3.964 -0.9179  2.0088  0.2859
 3233SOL     OW21676   6.721   3.547   8.071  0.1450 -0.1772  0.1632
 3233SOL    HW121677   6.629   3.566   8.088  0.1610 -1.5081  1.9362
 3233SOL    HW221678   6.767   3.628   8.093 -0.5294  0.3087 -0.1923
 3234SOL     OW21679   4.983   6.477   7.672  0.3839  0.1251  0.3183
 3234SOL    HW121680   4.928   6.483   7.595  0.0020 -1.6263  0.4176
 3234SOL    HW221681   5.046   6.407   7.652  0.8874  0.2968  1.2122
 3235SOL     OW21682   7.682   6.888   0.882 -0.8132 -0.1521 -0.4137
 3235SOL    HW121683   7.600   6.916   0.921 -0.8604 -1.3042  0.3562
 3235SOL    HW221684   7.735   6.858   0.956  0.9727  2.0973 -0.6807
 3236SOL     OW21685   3.494   3.807   1.885 -0.0619  0.7905  0.1253
 3236SOL    HW121686   3.419   3.851   1.846  0.4922  0.8767 -0.8775
 3236SOL    HW221687   3.462   3.775   1.969 -1.5979 -0.2718 -0.8016
 3237SOL     OW21688  10.055   5.297   1.529  0.0673  0.0394  0.0925
 3237SOL    HW121689  10.022   5.335   1.447 -0.5622 -0.9426 -0.1239
 3237SOL    HW221690  10.013   5.211   1.534 -0.1146  0.1863  1.5816
 3238SOL     OW21691   8.597   5.483   5.781 -0.2043  0.1486 -0.3797
 3238SOL    HW121692   8.620   5.391   5.795  3.7523  1.0216 -0.0801
 3238SOL    HW221693   8.666   5.532   5.825 -0.1242  3.2351 -3.5150
 3239SOL     OW21694   0.965   0.185   2.983  0.3956  0.3826 -0.3622
 3239SOL    HW121695   1.055   0.164   3.005 -0.5768 -4.1400  0.4231
 3239SOL    HW221696   0.944   0.128   2.909 -2.7277 -1.7169  1.8653
 3240SOL     OW21697   0.197   9.998   1.418 -0.3085 -0.2166 -0.1961
 3240SOL    HW121698   0.176   9.927   1.357 -0.7091 -1.3285  1.1754
 3240SOL    HW221699   0.245  10.062   1.366  1.2797 -2.1353 -1.1881
 3241SOL     OW21700   8.349   8.823   4.588  0.0672 -0.5925  0.3014
 3241SOL    HW121701   8.396   8.858   4.513 -1.4563  0.5853 -0.1445
 3241SOL    HW221702   8.261   8.859   4.581 -0.3493 -1.1075  2.2150
 3242SOL     OW21703   0.454   2.295   5.436  0.4495 -0.3038 -0.1255
 3242SOL    HW121704   0.439   2.353   5.362 -2.8220 -1.4282 -0.4953
 3242SOL    HW221705   0.424   2.209   5.405 -0.1695 -0.9812  2.2098
 3243SOL     OW21706   0.960  10.342   7.889 -0.0832  0.1150 -0.1193
 3243SOL    HW121707   1.052  10.362   7.902  0.6059 -2.2297 -0.8750
 3243SOL    HW221708   0.930  10.408   7.826  0.3312  2.4562  1.9871
 3244SOL     OW21709   4.063   4.467   3.840 -0.3060 -0.5512  0.7678
 3244SOL    HW121710   3.972   4.451   3.813 -0.3690  1.4790 -0.4540
 3244SOL    HW221711   4.105   4.503   3.762  0.2606  2.9983  2.4784
 3245SOL     OW21712   7.754   5.502   5.887  0.3860  0.0423 -0.0778
 3245SOL    HW121713   7.698   5.436   5.928  0.5110  0.4418  0.7635
 3245SOL    HW221714   7.788   5.460   5.809 -0.1395 -0.6232  0.0439
 3246SOL     OW21715   8.065   8.850   1.823  0.4326 -0.1580 -0.1245
 3246SOL    HW121716   7.990   8.890   1.779 -0.0369  0.6927  1.3784
 3246SOL    HW221717   8.141   8.897   1.788  0.3548 -1.3647 -2.0283
 3247SOL     OW21718   0.883  10.310   0.948 -0.0368 -0.0966  0.1294
 3247SOL    HW121719   0.837  10.390   0.971  0.8961  0.0110  1.7290
 3247SOL    HW221720   0.859  10.294   0.857 -0.1625  2.0397 -0.2613
 3248SOL     OW21721   1.089   8.723   1.170 -0.4064 -0.0260  0.1281
 3248SOL    HW121722   1.151   8.728   1.243 -0.2103 -2.0881  0.1667
 3248SOL    HW221723   1.019   8.665   1.201 -0.4495 -0.7378 -1.2042
 3249SOL     OW21724   6.182   9.211   8.281  0.5861 -0.1147 -0.1585
 3249SOL    HW121725   6.113   9.185   8.219 -0.6592 -0.3917  1.2781
 3249SOL    HW221726   6.233   9.276   8.234 -0.2291 -0.4264 -1.5317
 3250SOL     OW21727   1.627   5.901   4.865  0.0739  0.1300  0.6988
 3250SOL    HW121728   1.700   5.841   4.883  0.4745  0.6001  0.6413
 3250SOL    HW221729   1.573   5.854   4.801 -0.4548 -0.8392  1.8091
 3251SOL     OW21730   9.649   6.474   3.564  0.1055 -0.3043 -0.8267
 3251SOL    HW121731   9.555   6.469   3.545 -0.2126  0.9309  0.2579
 3251SOL    HW221732   9.657   6.436   3.652  0.3680  1.0276 -0.2620
 3252SOL     OW21733   9.485   9.571   8.165  0.3094 -0.6464 -0.5510
 3252SOL    HW121734   9.407   9.593   8.115 -0.2872 -2.1389 -0.3172
 3252SOL    HW221735   9.453   9.560   8.255  1.2090  1.0772  0.0283
 3253SOL     OW21736   2.551   0.223   7.850  0.3631  0.0603  0.4931
 3253SOL    HW121737   2.524   0.132   7.864 -0.8106  0.2546 -0.3499
 3253SOL    HW221738   2.519   0.269   7.928  0.0788 -0.0823  0.4631
 3254SOL     OW21739   4.072   9.132   4.303 -0.1685 -0.3831  0.1668
 3254SOL    HW121740   4.033   9.163   4.222  0.3413 -0.2348 -0.0264
 3254SOL    HW221741   4.137   9.067   4.276 -1.6586 -2.1271  0.5976
 3255SOL     OW21742   4.484   9.638   7.214  0.2678  0.3731 -0.3364
 3255SOL    HW121743   4.476   9.547   7.244 -2.0949  0.3677 -0.8089
 3255SOL    HW221744   4.485   9.631   7.118 -0.1632  0.8631 -0.3790
 3256SOL     OW21745   6.881   1.426   2.737 -0.3200 -0.0191 -0.0108
 3256SOL    HW121746   6.800   1.391   2.699 -0.1145 -1.3316  0.7201
 3256SOL    HW221747   6.886   1.386   2.824  0.7307  0.6441  0.2499
 3257SOL     OW21748   1.208   1.247   0.886  0.0865  0.5052 -0.3021
 3257SOL    HW121749   1.229   1.153   0.882 -1.3989  0.1086  0.4437
 3257SOL    HW221750   1.122   1.253   0.845  0.2995  1.6077 -0.6091
 3258SOL     OW21751   0.848   2.394   4.439 -0.4897 -0.0639  0.3749
 3258SOL    HW121752   0.912   2.367   4.505  1.0280  0.4802 -0.8215
 3258SOL    HW221753   0.786   2.448   4.487  1.2041  1.2586  1.1920
 3259SOL     OW21754   1.886   7.322   1.428  1.0626  0.4866  0.2352
 3259SOL    HW121755   1.935   7.396   1.391  2.3077  0.0444  0.9104
 3259SOL    HW221756   1.808   7.362   1.467  0.9440  1.2462 -0.7519
 3260SOL     OW21757   2.091   5.274   6.101  0.4644  0.0211 -0.7489
 3260SOL    HW121758   2.150   5.217   6.051  0.3525  0.5618 -1.4983
 3260SOL    HW221759   2.004   5.256   6.066  0.4738  0.9404 -1.2707
 3261SOL     OW21760   0.511   9.731   5.336 -0.3097 -0.4171 -0.2252
 3261SOL    HW121761   0.549   9.754   5.251 -0.7515  0.5386 -0.1872
 3261SOL    HW221762   0.538   9.803   5.394 -1.6594 -0.0042 -0.0669
 3262SOL     OW21763   4.276   1.168   2.321 -0.2324  0.2033 -0.2884
 3262SOL    HW121764   4.295   1.075   2.319 -1.1715 -0.0578  1.2046
 3262SOL    HW221765   4.259   1.188   2.413 -0.0037  1.8667 -0.5616
 3263SOL     OW21766   0.335   9.765   8.601 -0.5499 -0.6189 -0.3422
 3263SOL    HW121767   0.373   9.757   8.513 -0.4281  0.9849 -0.4671
 3263SOL    HW221768   0.323   9.675   8.630  2.7358 -1.2485 -0.5551
 3264SOL     OW21769   5.487   5.260   0.921  0.6697  0.4338  0.6851
 3264SOL    HW121770   5.395   5.253   0.949  0.4493  0.8846  0.0980
 3264SOL    HW221771   5.513   5.170   0.903  0.6221  0.2012  1.6941
 3265SOL     OW21772   2.082   8.468   5.486 -1.1583  0.3377  0.0899
 3265SOL    HW121773   2.038   8.504   5.409  0.0797  1.0204 -0.3116
 3265SOL    HW221774   2.138   8.398   5.451  0.0547  1.2129  0.2381
 3266SOL     OW21775   9.898   2.848   8.205 -0.4377 -0.1009 -0.2047
 3266SOL    HW121776   9.858   2.901   8.136 -0.7198 -0.9381 -0.6964
 3266SOL    HW221777   9.876   2.758   8.182  0.4417 -0.4712  0.3530
 3267SOL     OW21778   5.881   3.902   3.493 -0.0945 -0.1080  1.2796
 3267SOL    HW121779   5.897   3.818   3.450  0.5239 -0.6397  2.4729
 3267SOL    HW221780   5.794   3.929   3.463  0.5545 -0.1266 -0.7437
 3268SOL     OW21781   9.404   6.416   1.432 -0.0835  0.0834 -0.4652
 3268SOL    HW121782   9.318   6.453   1.409 -0.8803 -0.1288  1.8945
 3268SOL    HW221783   9.431   6.368   1.353 -1.1373  1.8576 -1.9930
 3269SOL     OW21784   8.783   9.550   7.133  0.2171  0.2764  0.0375
 3269SOL    HW121785   8.765   9.617   7.067  1.6167  0.3888 -0.2483
 3269SOL    HW221786   8.697   9.531   7.172 -0.4132  1.1864 -0.8696
 3270SOL     OW21787   8.012   2.909   6.350 -0.3669 -0.6276  0.2395
 3270SOL    HW121788   8.085   2.857   6.381 -0.7856 -1.5543 -0.3040
 3270SOL    HW221789   7.986   2.962   6.426 -1.1453 -2.5790  1.3949
 3271SOL     OW21790   6.878   3.209   6.773 -0.1846  0.2182 -0.3305
 3271SOL    HW121791   6.836   3.217   6.858  1.0080  0.7665  0.2238
 3271SOL    HW221792   6.834   3.135   6.731 -0.2046 -0.6068  1.1043
 3272SOL     OW21793   9.358   4.176   5.034  0.0089 -0.0433  0.2933
 3272SOL    HW121794   9.328   4.260   5.068 -1.3212  0.0505 -1.0383
 3272SOL    HW221795   9.435   4.198   4.981  0.2660  0.1846  0.7483
 3273SOL     OW21796   5.234  10.025   4.646 -0.3945 -0.5214  0.6455
 3273SOL    HW121797   5.146  10.008   4.612 -0.5596 -1.0510  1.3145
 3273SOL    HW221798   5.255   9.947   4.696  2.7806 -3.1669 -4.0677
 3274SOL     OW21799   6.985   7.166   3.616  0.3650 -0.0816 -0.0675
 3274SOL    HW121800   7.060   7.225   3.622  2.2497 -2.4782  2.4158
 3274SOL    HW221801   6.945   7.169   3.703  0.0062 -1.7448 -0.1352
 3275SOL     OW21802   9.686   2.567   9.387 -0.4384 -0.2958  0.1468
 3275SOL    HW121803   9.618   2.519   9.342 -1.3236  0.3883  0.7186
 3275SOL    HW221804   9.641   2.642   9.427  0.3933 -0.5406  1.6461
 3276SOL     OW21805   4.012   5.809   2.352  0.9402 -0.3442 -0.4512
 3276SOL    HW121806   3.927   5.852   2.349  1.6457  1.0642 -0.7368
 3276SOL    HW221807   3.996   5.727   2.399 -1.2370 -1.6657 -3.2359
 3277SOL     OW21808   7.646   5.170   0.554 -0.0499  0.5563 -0.0989
 3277SOL    HW121809   7.600   5.086   0.551  1.0136 -0.0519  0.3027
 3277SOL    HW221810   7.703   5.170   0.478  0.3759  0.6737  0.2170
 3278SOL     OW21811   6.338   5.289   7.157  0.0998  0.5299  0.6958
 3278SOL    HW121812   6.353   5.208   7.206  0.2383  1.4254  2.1739
 3278SOL    HW221813   6.419   5.339   7.168 -1.0022  2.0805  2.2326
 3279SOL     OW21814   8.111   4.966   4.393  0.1474  0.2918  0.0146
 3279SOL    HW121815   8.187   4.960   4.335  0.1090 -1.4002  0.0922
 3279SOL    HW221816   8.145   5.003   4.475  0.7299  0.2135 -0.1908
 3280SOL     OW21817  10.080   7.118   7.605  0.3849 -0.3892 -0.4967
 3280SOL    HW121818  10.138   7.190   7.629  0.0571 -0.9556  2.4052
 3280SOL    HW221819  10.029   7.152   7.532  2.8708  0.8685 -1.7653
 3281SOL     OW21820   9.692   5.409   3.803 -0.6423  0.2851  0.4814
 3281SOL    HW121821   9.785   5.397   3.821 -0.9268  0.4425  2.2047
 3281SOL    HW221822   9.690   5.458   3.720  0.8016  0.3381  0.4473
 3282SOL     OW21823   3.882   4.463   1.899  0.0680 -0.5165  0.0035
 3282SOL    HW121824   3.880   4.558   1.907 -0.9384 -0.4945 -0.3882
 3282SOL    HW221825   3.797   4.440   1.862 -0.5016 -1.7568  1.9443
 3283SOL     OW21826   5.523   2.401   8.623 -0.2015 -0.6044 -0.0316
 3283SOL    HW121827   5.475   2.439   8.697 -0.0975 -3.2197  1.5275
 3283SOL    HW221828   5.464   2.335   8.587  1.1118 -1.9431  0.1500
 3284SOL     OW21829   9.701   8.375   5.590  0.2537  0.4712  0.3094
 3284SOL    HW121830   9.778   8.347   5.540  0.4366  0.4157  0.6247
 3284SOL    HW221831   9.659   8.293   5.616 -1.1028  0.4723 -1.6816
 3285SOL     OW21832   6.655   2.146   8.044  0.2845  0.5026 -0.1775
 3285SOL    HW121833   6.692   2.074   7.993  0.7534  0.0729  0.7405
 3285SOL    HW221834   6.712   2.220   8.024  0.9849  0.1240  0.3510
 3286SOL     OW21835   6.435   3.508   8.285  0.2563  0.4592  0.6120
 3286SOL    HW121836   6.522   3.495   8.322 -0.1453  0.2336  1.4895
 3286SOL    HW221837   6.375   3.488   8.357 -0.5500 -0.3763 -0.2684
 3287SOL     OW21838   6.792  10.376   6.406  0.1566 -0.4055 -0.5747
 3287SOL    HW121839   6.839  10.458   6.418  0.0522 -0.5885  1.2788
 3287SOL    HW221840   6.848  10.309   6.446  0.3268 -1.3079 -2.2116
 3288SOL     OW21841   4.740   0.876   3.365  0.0263 -0.2926  0.4334
 3288SOL    HW121842   4.655   0.844   3.394  0.3542 -0.0036  1.8085
 3288SOL    HW221843   4.726   0.970   3.350  0.2405 -0.1128  1.3013
 3289SOL     OW21844   1.435   0.341  10.122  0.2633 -0.5447  0.5639
 3289SOL    HW121845   1.404   0.288  10.049  0.9135 -0.2041  0.0271
 3289SOL    HW221846   1.363   0.341  10.185 -0.2109 -1.0363  0.0251
 3290SOL     OW21847   2.536   2.532   2.617 -0.8831 -0.3797  0.5085
 3290SOL    HW121848   2.601   2.478   2.572  0.6680  0.9240  1.0750
 3290SOL    HW221849   2.453   2.488   2.601  0.2676 -2.8948  0.8801
 3291SOL     OW21850   3.279   9.298   7.515 -1.2702 -0.0431  0.3688
 3291SOL    HW121851   3.344   9.345   7.463 -0.3597 -1.3689  0.2847
 3291SOL    HW221852   3.203   9.291   7.458 -0.5983 -0.6915 -0.4725
 3292SOL     OW21853   5.512   9.918   3.407  0.0524  0.0821  0.1705
 3292SOL    HW121854   5.588   9.951   3.455  0.2244 -1.1409  0.7507
 3292SOL    HW221855   5.518   9.823   3.413 -0.9502 -0.0568 -0.6859
 3293SOL     OW21856   9.465   0.658   6.785 -0.3856 -0.0259  0.2261
 3293SOL    HW121857   9.527   0.670   6.713 -0.1249 -1.8974  0.0974
 3293SOL    HW221858   9.389   0.711   6.760  0.6418  1.2804 -0.2276
 3294SOL     OW21859   9.535   5.166   0.131  0.0414  0.1598  0.1494
 3294SOL    HW121860   9.586   5.090   0.160  1.3538  0.0215 -2.3465
 3294SOL    HW221861   9.538   5.226   0.206  0.3576 -1.5216  1.5711
 3295SOL     OW21862   4.386   2.506   2.595  0.2554  0.3998 -0.2283
 3295SOL    HW121863   4.461   2.458   2.558  1.3576  2.3971 -0.7325
 3295SOL    HW221864   4.410   2.598   2.586 -0.5176  1.0715  3.2495
 3296SOL     OW21865   0.860   5.269   9.871  0.3690  0.4465 -0.1202
 3296SOL    HW121866   0.861   5.173   9.880 -0.2558  0.4043 -0.4613
 3296SOL    HW221867   0.919   5.300   9.940  0.7472 -0.1937 -0.1430
 3297SOL     OW21868   9.616  10.286   1.783  0.1912 -0.2379 -0.6523
 3297SOL    HW121869   9.631  10.203   1.829 -0.6227 -0.8123 -1.3668
 3297SOL    HW221870   9.543  10.326   1.830 -1.3263 -1.3130 -2.0025
 3298SOL     OW21871   8.453   0.714   5.679  0.0135 -0.4493  0.3458
 3298SOL    HW121872   8.517   0.724   5.749  0.1617 -2.0234  0.4667
 3298SOL    HW221873   8.431   0.621   5.679 -0.3774 -0.3947 -1.3697
 3299SOL     OW21874   3.746   6.099   7.045 -0.1226 -0.0818  0.3222
 3299SOL    HW121875   3.793   6.022   7.013 -0.1040  0.3920 -0.8300
 3299SOL    HW221876   3.662   6.065   7.074  0.3496 -0.7163  0.9978
 3300SOL     OW21877   1.379   9.846   8.706 -0.2155 -0.0241 -0.1285
 3300SOL    HW121878   1.383   9.755   8.677  0.3014 -0.3150  0.8134
 3300SOL    HW221879   1.382   9.898   8.625 -0.8889 -0.8433 -0.6910
 3301SOL     OW21880   0.802   8.348   0.878  0.7113  0.1564 -0.0707
 3301SOL    HW121881   0.706   8.353   0.886  0.7140  0.2982 -0.1221
 3301SOL    HW221882   0.829   8.439   0.866  0.6318 -0.0662 -2.3852
 3302SOL     OW21883   9.654   4.046   6.454  0.1335 -0.7512  0.0826
 3302SOL    HW121884   9.663   4.028   6.360  0.5977 -0.8025  0.1345
 3302SOL    HW221885   9.720   4.113   6.471  0.5719 -1.2919  0.5278
 3303SOL     OW21886   6.908   9.254   6.850  0.4914  0.1209  0.0254
 3303SOL    HW121887   6.849   9.269   6.775  0.4242  0.6502  0.1752
 3303SOL    HW221888   6.853   9.269   6.927  0.9342  1.1241  0.1621
 3304SOL     OW21889   4.476   6.548   9.544 -0.3673 -0.3292 -0.4669
 3304SOL    HW121890   4.529   6.589   9.476  2.9672 -1.2637  1.3380
 3304SOL    HW221891   4.422   6.485   9.497  1.2620 -0.4032 -2.3822
 3305SOL     OW21892   6.001   4.554   1.361 -0.1482  0.1632  0.0809
 3305SOL    HW121893   6.042   4.567   1.275  0.1649  0.8296  0.3229
 3305SOL    HW221894   5.972   4.641   1.387  0.7077  0.1552  1.1231
 3306SOL     OW21895   3.134   5.818   2.183 -0.1652  0.4412  0.0400
 3306SOL    HW121896   3.098   5.819   2.271 -0.3271 -1.2822  0.0222
 3306SOL    HW221897   3.224   5.848   2.194  0.9252 -2.8710  1.3944
 3307SOL     OW21898   3.915   9.911  10.132 -0.5134 -0.2713  0.7504
 3307SOL    HW121899   4.002   9.932  10.165 -0.3318  1.0100 -0.4735
 3307SOL    HW221900   3.928   9.836  10.075 -0.4078 -0.8192  1.4883
 3308SOL     OW21901   9.615   6.726   6.842 -0.3122  0.4739  0.4863
 3308SOL    HW121902   9.622   6.631   6.850  0.5893  0.3460 -1.3578
 3308SOL    HW221903   9.534   6.748   6.888  0.6231 -0.8642  2.9512
 3309SOL     OW21904   0.470   9.819   0.040  0.3169 -0.9195 -0.0572
 3309SOL    HW121905   0.437   9.876   0.109 -1.8637 -0.8068 -1.1411
 3309SOL    HW221906   0.444   9.860  -0.041 -0.2357 -2.8017 -0.8940
 3310SOL     OW21907   3.729   0.361   0.789 -0.1700 -0.1615 -1.1020
 3310SOL    HW121908   3.741   0.277   0.745  0.3395 -0.7574  0.1206
 3310SOL    HW221909   3.635   0.378   0.785 -0.7652 -2.2903  1.2040
 3311SOL     OW21910   3.458   4.755   9.013 -0.2831  0.4289  0.1641
 3311SOL    HW121911   3.501   4.746   9.098  0.8342 -0.2101 -0.4497
 3311SOL    HW221912   3.376   4.707   9.022 -1.2367  2.1883  1.5506
 3312SOL     OW21913   7.872   2.424   4.732  0.0294 -0.2558  0.2679
 3312SOL    HW121914   7.832   2.338   4.743  0.6257 -0.6230 -0.3577
 3312SOL    HW221915   7.800   2.486   4.738 -0.5973 -0.8850 -0.6574
 3313SOL     OW21916   3.629   4.625   7.643 -0.1940 -0.9294 -0.9606
 3313SOL    HW121917   3.625   4.543   7.692  0.0318 -1.5113 -1.8935
 3313SOL    HW221918   3.593   4.604   7.557 -2.4338  0.5592 -0.4629
 3314SOL     OW21919   2.105   7.214   3.590 -0.2951 -0.2420  0.2014
 3314SOL    HW121920   2.170   7.156   3.549  0.0183 -0.8425  1.4972
 3314SOL    HW221921   2.152   7.296   3.605 -1.0782  0.8618 -2.7583
 3315SOL     OW21922   8.104   3.942   1.552  0.5028  0.0049 -0.2299
 3315SOL    HW121923   8.098   3.987   1.636 -0.6070  0.4578 -0.5321
 3315SOL    HW221924   8.127   4.010   1.490 -0.6293  0.0780 -0.5993
 3316SOL     OW21925   0.467   4.545   5.381 -0.4110 -0.1144  0.2963
 3316SOL    HW121926   0.402   4.576   5.444 -0.0307  0.5513  0.3705
 3316SOL    HW221927   0.420   4.479   5.330 -1.0109  0.0269  0.6458
 3317SOL     OW21928   4.604   4.327   0.885  0.3968 -0.2856 -0.0254
 3317SOL    HW121929   4.631   4.246   0.929  0.0529 -1.1317 -1.3150
 3317SOL    HW221930   4.508   4.322   0.883  0.4172 -0.4167 -1.1182
 3318SOL     OW21931   2.561   3.340   8.477 -0.4128 -0.2139 -0.0025
 3318SOL    HW121932   2.468   3.321   8.482 -0.4837  0.2967  0.7760
 3318SOL    HW221933   2.595   3.319   8.564  0.2589 -0.6681 -0.3616
 3319SOL     OW21934   5.132   9.912   5.136 -0.3035  0.3890  0.1362
 3319SOL    HW121935   5.186   9.844   5.096 -1.1592  0.3896 -1.0657
 3319SOL    HW221936   5.070   9.865   5.191  0.4377  0.3441  0.9523
 3320SOL     OW21937   5.555   9.848   9.193 -0.4895 -0.1077  0.4507
 3320SOL    HW121938   5.566   9.789   9.118  0.3038 -0.1147  0.5706
 3320SOL    HW221939   5.641   9.852   9.234 -0.2138  1.9630 -0.1870
 3321SOL     OW21940   1.426   1.375   5.306 -0.1882  0.1349  0.1465
 3321SOL    HW121941   1.499   1.420   5.350  0.4318 -0.0789 -0.6388
 3321SOL    HW221942   1.363   1.357   5.376  0.5496  0.2650  0.8583
 3322SOL     OW21943   3.206  10.282   8.599  0.4681  0.7328  0.2947
 3322SOL    HW121944   3.136  10.346   8.613 -0.4561  0.2827 -1.8658
 3322SOL    HW221945   3.279  10.334   8.566 -0.7773  0.6803 -2.9915
 3323SOL     OW21946  10.307   0.857   4.507 -0.7261 -0.0306  0.7740
 3323SOL    HW121947  10.348   0.776   4.476  0.5733  0.9270 -0.0714
 3323SOL    HW221948  10.232   0.869   4.449 -0.1803  0.0357  0.0674
 3324SOL     OW21949   2.882   4.257   5.851 -0.1629 -0.0375  0.4531
 3324SOL    HW121950   2.891   4.346   5.817 -1.7343  0.2873  0.8345
 3324SOL    HW221951   2.826   4.266   5.928  1.6775 -1.0280  1.9978
 3325SOL     OW21952   3.101  10.103   9.913  0.1476 -0.1099 -0.1919
 3325SOL    HW121953   3.111  10.083   9.820 -1.9106  0.9891 -0.7371
 3325SOL    HW221954   3.006  10.103   9.926  0.3942  0.1122  1.8331
 3326SOL     OW21955   5.679   9.286   1.691  0.2194 -0.4896 -0.5940
 3326SOL    HW121956   5.671   9.200   1.649 -0.7873 -0.8946  0.3777
 3326SOL    HW221957   5.770   9.292   1.717  0.2489 -1.3594 -0.4798
 3327SOL     OW21958   1.263   5.357   8.672  0.7233 -0.4438 -0.1623
 3327SOL    HW121959   1.253   5.262   8.678 -0.3436 -0.3083  0.2950
 3327SOL    HW221960   1.212   5.391   8.745  3.0026  0.4034  1.1556
 3328SOL     OW21961   1.662   8.967   7.129  0.0319  0.0149  0.2384
 3328SOL    HW121962   1.691   8.894   7.075  0.0164 -0.3921  0.7817
 3328SOL    HW221963   1.620   8.927   7.205 -2.3580  0.5611 -0.6967
 3329SOL     OW21964   7.799   3.262   5.293  0.3074  0.2642  0.1488
 3329SOL    HW121965   7.833   3.181   5.254  2.1097  2.0108 -2.2102
 3329SOL    HW221966   7.843   3.267   5.378 -0.6460 -1.6973  0.8167
 3330SOL     OW21967   6.802   6.776   5.056  0.2227 -0.2785 -0.7251
 3330SOL    HW121968   6.797   6.826   5.138 -0.2233 -1.1523 -0.2020
 3330SOL    HW221969   6.801   6.843   4.988 -0.7962  0.4273 -0.0647
 3331SOL     OW21970   4.321   1.878   8.225  0.0880 -0.0450 -0.4176
 3331SOL    HW121971   4.350   1.943   8.288 -0.7278  0.3567 -0.4448
 3331SOL    HW221972   4.293   1.803   8.279 -1.3288  0.5817 -0.2258
 3332SOL     OW21973   8.828   7.759   1.714 -0.2072  0.0719  0.5470
 3332SOL    HW121974   8.776   7.838   1.729  0.5744  0.7550 -0.2204
 3332SOL    HW221975   8.807   7.732   1.625  0.3587  0.0752  0.4048
 3333SOL     OW21976   2.461   6.835   5.129  0.2067 -0.4517  0.9573
 3333SOL    HW121977   2.497   6.796   5.209  0.8122 -0.6364  0.5988
 3333SOL    HW221978   2.537   6.870   5.082 -0.2708  0.7686  1.0435
 3334SOL     OW21979   3.053   5.746   2.831  0.4177  0.5034  0.2723
 3334SOL    HW121980   3.037   5.821   2.773 -1.0081  2.1303  2.5791
 3334SOL    HW221981   3.132   5.705   2.796  1.1851  3.0091 -1.1866
 3335SOL     OW21982   4.251   7.675   6.411 -0.3455  0.3697  0.2849
 3335SOL    HW121983   4.198   7.734   6.358  0.1177  0.0891 -0.5105
 3335SOL    HW221984   4.278   7.727   6.487 -2.0446  0.4090  0.8914
 3336SOL     OW21985   8.185   1.629   1.237 -0.2215  0.5048  0.5179
 3336SOL    HW121986   8.124   1.579   1.182  2.0918 -0.2861 -1.5164
 3336SOL    HW221987   8.270   1.587   1.222  1.4927  3.7580  0.3626
 3337SOL     OW21988   3.196   2.010   7.494 -0.0058 -0.3042 -0.2944
 3337SOL    HW121989   3.168   2.030   7.405  0.3762 -0.8652 -0.5458
 3337SOL    HW221990   3.195   2.095   7.539 -0.2709 -0.0289 -0.8087
 3338SOL     OW21991   3.942   1.484   5.728 -0.1699  0.6291 -0.2972
 3338SOL    HW121992   4.018   1.435   5.697  0.4200  2.3760 -1.7794
 3338SOL    HW221993   3.879   1.416   5.754  0.1345 -1.0321 -3.3564
 3339SOL     OW21994   4.516   5.620   9.084 -0.1423 -0.3400 -0.5317
 3339SOL    HW121995   4.493   5.606   8.992 -0.7516  0.6034 -0.5435
 3339SOL    HW221996   4.608   5.597   9.090  0.0318  0.0443 -1.4943
 3340SOL     OW21997   3.619   8.431   0.724 -0.1308 -0.2858  0.3713
 3340SOL    HW121998   3.614   8.343   0.686  0.8932  0.6076 -2.0591
 3340SOL    HW221999   3.546   8.478   0.686  0.0670  0.2627  0.6536
 3341SOL     OW22000   1.831   1.815   6.067 -0.2663 -0.1226 -0.3043
 3341SOL    HW122001   1.834   1.729   6.109 -1.4784  0.5769  1.3397
 3341SOL    HW222002   1.796   1.798   5.980 -0.6897 -1.2908  0.0726
 3342SOL     OW22003   9.174  10.164   7.027 -0.7350  0.0404 -0.2965
 3342SOL    HW122004   9.124  10.230   6.979 -1.4356 -1.1316 -1.2606
 3342SOL    HW222005   9.158  10.083   6.979 -1.0464 -1.1123  1.6205
 3343SOL     OW22006   6.914   8.935  10.168 -0.1506  0.0385  0.6997
 3343SOL    HW122007   7.007   8.913  10.164  0.1103  1.2689 -0.4764
 3343SOL    HW222008   6.871   8.866  10.117  0.1640 -0.2183  0.7797
 3344SOL     OW22009   2.131   8.171   2.097  0.7026  0.5115 -0.0710
 3344SOL    HW122010   2.220   8.184   2.129  0.5916  4.0698 -0.7466
 3344SOL    HW222011   2.111   8.252   2.050 -1.7691 -1.4537 -2.7637
 3345SOL     OW22012   5.158   4.431   8.370  0.1435  0.0784  0.4749
 3345SOL    HW122013   5.225   4.474   8.317 -0.1808  0.8543  0.6735
 3345SOL    HW222014   5.094   4.501   8.388  0.6390  0.0457  2.5542
 3346SOL     OW22015   1.675   5.540   0.685  0.0242 -0.3728 -0.4447
 3346SOL    HW122016   1.637   5.473   0.743 -0.9428 -0.7481 -1.4755
 3346SOL    HW222017   1.671   5.620   0.737 -3.7216 -0.0249 -0.9613
 3347SOL     OW22018   1.753   9.940  10.359 -0.5549 -0.5844 -0.0473
 3347SOL    HW122019   1.733   9.848  10.343  0.6137 -0.7227 -0.9074
 3347SOL    HW222020   1.678   9.988  10.323 -1.3885 -1.1995  0.8324
 3348SOL     OW22021   4.559   8.384   7.051  0.3729 -0.3963  0.8029
 3348SOL    HW122022   4.542   8.476   7.031 -1.0666 -0.2250  2.5613
 3348SOL    HW222023   4.494   8.336   7.000  2.1056 -0.6247 -1.3319
 3349SOL     OW22024   1.991   7.573   5.423  0.2235  0.5598 -0.1869
 3349SOL    HW122025   1.929   7.591   5.352  1.0998 -0.0561 -1.1264
 3349SOL    HW222026   2.012   7.480   5.413  0.3263  0.4497  0.9190
 3350SOL     OW22027   5.810   8.758   9.072 -0.4954  0.4825 -0.0093
 3350SOL    HW122028   5.902   8.784   9.070 -0.0314 -1.0487 -1.1388
 3350SOL    HW222029   5.798   8.719   9.159  0.3323 -0.5401 -0.3295
 3351SOL     OW22030   0.289  10.138   2.606 -0.2769  0.2734 -0.0623
 3351SOL    HW122031   0.358  10.109   2.546 -0.7024  0.5658 -0.7111
 3351SOL    HW222032   0.315  10.105   2.692  1.1222  1.1235 -0.1365
 3352SOL     OW22033   7.518   8.451   5.453  0.5565  1.0334 -0.1387
 3352SOL    HW122034   7.540   8.428   5.543  0.4313  0.3733 -0.2777
 3352SOL    HW222035   7.579   8.401   5.399 -0.9643 -0.5178 -0.5077
 3353SOL     OW22036   4.637   7.408   5.633  0.3418 -0.2542 -0.1836
 3353SOL    HW122037   4.681   7.360   5.562  3.2906  0.6223  0.8737
 3353SOL    HW222038   4.670   7.367   5.713  0.6006  1.5774  0.6984
 3354SOL     OW22039  10.253   4.440   6.573 -0.4294  0.3485 -0.5231
 3354SOL    HW122040  10.227   4.364   6.625 -0.3757  0.4425 -0.3585
 3354SOL    HW222041  10.186   4.506   6.594 -1.2417 -0.0797 -1.6686
 3355SOL     OW22042   5.662   0.756   0.914 -0.6605  0.3886 -0.5140
 3355SOL    HW122043   5.650   0.709   0.831 -1.8971  0.7753 -0.5737
 3355SOL    HW222044   5.664   0.688   0.981 -1.1992  0.1739 -0.7154
 3356SOL     OW22045   9.596   2.231   2.073 -0.5611 -0.4899 -0.0489
 3356SOL    HW122046   9.679   2.184   2.084  0.4757  1.4671  0.9922
 3356SOL    HW222047   9.603   2.273   1.987 -0.0979  0.3442  0.3883
 3357SOL     OW22048   0.276   6.690   1.822  0.2039 -0.0714 -0.0281
 3357SOL    HW122049   0.295   6.726   1.735  1.6211  0.8905  0.6318
 3357SOL    HW222050   0.240   6.764   1.871  0.4267 -0.3134  0.5105
 3358SOL     OW22051   8.517   4.332   4.459  0.8943  0.6039 -0.2678
 3358SOL    HW122052   8.539   4.371   4.544  2.7581  0.5078 -0.6540
 3358SOL    HW222053   8.527   4.404   4.396  0.7778  0.3770 -0.5481
 3359SOL     OW22054   1.831   5.244   1.320  0.4022  0.2423  0.6201
 3359SOL    HW122055   1.827   5.149   1.315  0.7412  0.3179 -2.1121
 3359SOL    HW222056   1.887   5.261   1.396  2.8485 -1.8016 -0.5979
 3360SOL     OW22057   2.849   3.731   6.471  0.0767 -0.5754 -0.3691
 3360SOL    HW122058   2.862   3.640   6.447  1.8593 -0.5780  0.4484
 3360SOL    HW222059   2.937   3.764   6.491 -0.4756  1.3986 -0.8854
 3361SOL     OW22060   6.523   9.914   1.137 -0.4025 -0.5351  0.0120
 3361SOL    HW122061   6.506   9.992   1.189 -0.4194 -0.8243  0.4446
 3361SOL    HW222062   6.439   9.867   1.136 -0.9488  0.3789 -1.8503
 3362SOL     OW22063   4.025   7.446   9.693 -0.5615 -0.2140  0.7070
 3362SOL    HW122064   4.027   7.405   9.607 -0.2113 -0.2823  0.7442
 3362SOL    HW222065   4.041   7.374   9.754 -0.7144 -0.1504  0.8219
 3363SOL     OW22066   8.602  10.176   3.011 -0.0213 -0.1845  0.1508
 3363SOL    HW122067   8.632  10.125   3.087  1.3826  0.1945 -0.1191
 3363SOL    HW222068   8.649  10.137   2.937  0.0465  0.6503 -0.2502
 3364SOL     OW22069   0.775   4.389   8.547 -0.0151 -0.2072  0.0230
 3364SOL    HW122070   0.838   4.458   8.525 -1.1392  0.9733  0.4256
 3364SOL    HW222071   0.785   4.377   8.642 -0.6486  0.2622  0.1570
 3365SOL     OW22072   7.178   0.369   7.004  0.2740 -0.3396 -0.3505
 3365SOL    HW122073   7.109   0.353   6.940 -0.0217 -0.6363  0.0429
 3365SOL    HW222074   7.180   0.291   7.059 -0.3994  0.4673  0.8546
 3366SOL     OW22075   8.036   0.993   2.572 -0.2563  0.0623 -0.8543
 3366SOL    HW122076   8.079   1.066   2.617  3.7323 -2.6112  0.1650
 3366SOL    HW222077   8.001   0.939   2.642 -0.6016 -0.4424 -1.4085
 3367SOL     OW22078   9.741   1.458   1.987  0.4526  0.7577  0.6308
 3367SOL    HW122079   9.664   1.506   2.017  0.0478 -0.0317  0.8744
 3367SOL    HW222080   9.812   1.523   1.990 -0.1289  1.4027  0.7164
 3368SOL     OW22081   0.946   0.267   1.802  0.0532 -0.6866 -0.4166
 3368SOL    HW122082   0.959   0.362   1.801 -1.7318 -0.3593  1.4139
 3368SOL    HW222083   1.029   0.232   1.837 -0.0654  0.4122  1.0657
 3369SOL     OW22084   7.813  10.390   7.387 -0.0464 -0.1811 -0.3839
 3369SOL    HW122085   7.815  10.304   7.428 -1.8860  0.1948  0.5605
 3369SOL    HW222086   7.861  10.447   7.448  0.5342 -0.3637 -0.6567
 3370SOL     OW22087   3.040   2.959   7.363 -0.0911  0.5045  0.4145
 3370SOL    HW122088   3.063   2.906   7.287 -1.8337 -0.2432  0.3378
 3370SOL    HW222089   2.997   3.036   7.327 -0.8177  0.2023  0.6073
 3371SOL     OW22090   9.488   1.774   9.961 -0.4711 -0.1986 -0.1241
 3371SOL    HW122091   9.508   1.863   9.930  0.7484 -1.0191 -1.8698
 3371SOL    HW222092   9.397   1.778   9.988 -0.1020  1.8819  1.0116
 3372SOL     OW22093   6.497   1.084   2.538  0.2018  0.3398  0.2387
 3372SOL    HW122094   6.588   1.102   2.513 -0.4826  1.9270 -1.3677
 3372SOL    HW222095   6.468   1.017   2.477 -0.1027  0.8490 -0.1849
 3373SOL     OW22096   2.677   4.063   9.095  0.4720  0.1438 -0.2485
 3373SOL    HW122097   2.673   4.059   9.190  1.1880 -0.0028 -0.2126
 3373SOL    HW222098   2.587   4.076   9.067  0.3439  0.8711  0.4768
 3374SOL     OW22099   9.887   9.169   2.937 -0.1526 -0.0657  0.0980
 3374SOL    HW122100   9.849   9.245   2.981  0.8126 -0.5886  1.9170
 3374SOL    HW222101   9.820   9.143   2.873 -1.0962  1.4314  0.4277
 3375SOL     OW22102   7.056   0.517   7.268  0.0913  0.7273 -0.3036
 3375SOL    HW122103   7.149   0.538   7.282  0.0395  0.1537  0.9856
 3375SOL    HW222104   7.057   0.452   7.197  0.6905  0.5424 -0.1345
 3376SOL     OW22105   8.060   2.085   0.139 -0.4162  0.3370  0.0537
 3376SOL    HW122106   7.966   2.077   0.153 -0.3700 -0.1381  0.1125
 3376SOL    HW222107   8.098   2.091   0.227 -0.3073 -0.5178  0.0746
 3377SOL     OW22108   4.828   1.051   8.138  0.9966 -0.4065 -0.3780
 3377SOL    HW122109   4.910   1.097   8.158  1.5662 -1.1544 -0.9181
 3377SOL    HW222110   4.839   0.965   8.176 -0.2415  0.0149  0.9852
 3378SOL     OW22111   7.424   9.832   6.501  0.0206 -0.4041  0.1522
 3378SOL    HW122112   7.457   9.916   6.469  0.4114 -1.4775 -2.5513
 3378SOL    HW222113   7.339   9.853   6.539  0.6806  1.3781  0.7882
 3379SOL     OW22114   1.952   6.827   7.929  0.2012  0.3760 -0.0101
 3379SOL    HW122115   2.020   6.775   7.886  0.1484  0.4935 -0.2350
 3379SOL    HW222116   1.980   6.831   8.021  0.4758  0.3875 -0.0922
 3380SOL     OW22117   9.699   3.533   5.984 -0.4677 -0.1557  0.5680
 3380SOL    HW122118   9.760   3.530   5.910  0.5070  0.1884  1.3319
 3380SOL    HW222119   9.620   3.573   5.949  0.8099  2.2365  0.2666
 3381SOL     OW22120   8.856   6.215   2.686 -0.2859 -0.2106 -0.6781
 3381SOL    HW122121   8.910   6.292   2.706 -1.2784  0.5718 -0.8919
 3381SOL    HW222122   8.878   6.192   2.596  1.3215 -1.3138 -0.0562
 3382SOL     OW22123   5.618   5.573   3.047  0.0965  0.2937 -0.4559
 3382SOL    HW122124   5.650   5.634   3.113 -1.8252 -0.7536  1.5714
 3382SOL    HW222125   5.689   5.509   3.038 -0.3661 -0.7025  2.2120
 3383SOL     OW22126   0.567   3.337   2.023  0.4359  0.8373 -0.1376
 3383SOL    HW122127   0.489   3.295   1.985 -0.1839  0.5401  1.3552
 3383SOL    HW222128   0.569   3.424   1.984 -0.1189  0.5260 -0.8895
 3384SOL     OW22129   5.114   2.684   1.628 -0.6592 -0.3441  0.3275
 3384SOL    HW122130   5.164   2.647   1.555  1.8330 -0.6865  2.0776
 3384SOL    HW222131   5.101   2.610   1.688  0.4652  0.6381  1.8300
 3385SOL     OW22132   0.699   3.794   8.822  0.4030  0.3840 -0.0528
 3385SOL    HW122133   0.611   3.786   8.860  1.1455 -0.0535  1.6525
 3385SOL    HW222134   0.741   3.863   8.873  1.7400 -0.8463  0.5886
 3386SOL     OW22135   5.782   8.721   1.577 -0.9373 -0.1723 -0.3188
 3386SOL    HW122136   5.760   8.713   1.670  0.7146 -0.0763  0.1078
 3386SOL    HW222137   5.875   8.700   1.573 -0.7410  0.8866 -1.8095
 3387SOL     OW22138   4.897   3.293   5.571 -0.3907  0.5937  1.2392
 3387SOL    HW122139   4.928   3.215   5.524 -1.7490  0.4224  0.5703
 3387SOL    HW222140   4.969   3.355   5.564  0.8073 -0.6614  1.9711
 3388SOL     OW22141  10.153   6.484   7.367  0.2766 -0.1064 -0.3731
 3388SOL    HW122142  10.148   6.509   7.275 -0.2108 -0.7065 -0.5148
 3388SOL    HW222143  10.230   6.529   7.400  0.2152  0.4449 -0.9719
 3389SOL     OW22144   6.135   3.202   9.996  0.0633  0.1475 -0.4410
 3389SOL    HW122145   6.122   3.293   9.970 -2.0905 -0.3877 -1.5345
 3389SOL    HW222146   6.198   3.167   9.933  0.6606  0.7876 -0.2032
 3390SOL     OW22147   3.941   9.773   6.989  0.3943  0.2253 -0.3176
 3390SOL    HW122148   3.967   9.849   6.936 -0.5075  1.2384  0.6442
 3390SOL    HW222149   4.014   9.759   7.049 -0.1394  1.4627  0.6682
 3391SOL     OW22150   3.508   8.788   0.473  0.1789 -0.3712  0.1181
 3391SOL    HW122151   3.442   8.848   0.439  1.1447 -0.0911 -1.3585
 3391SOL    HW222152   3.551   8.753   0.395  2.4934  0.3082  1.0011
 3392SOL     OW22153   5.556   3.045   4.855 -0.3543 -0.2621 -0.2411
 3392SOL    HW122154   5.570   2.961   4.812 -2.8068 -0.0001 -1.7554
 3392SOL    HW222155   5.604   3.108   4.802  0.3117 -0.5048  0.0645
 3393SOL     OW22156   4.025   1.041   6.631  0.3351 -0.1820 -0.1838
 3393SOL    HW122157   3.958   1.000   6.576 -0.5146  0.7182  0.1598
 3393SOL    HW222158   3.976   1.096   6.692  1.2554 -1.0112  1.3758
 3394SOL     OW22159   3.558   5.191   5.070  0.1557 -0.0493  0.0406
 3394SOL    HW122160   3.598   5.260   5.123  0.3649  0.6282 -0.9667
 3394SOL    HW222161   3.472   5.227   5.045  0.2070 -0.2018 -0.3664
 3395SOL     OW22162  10.306   3.745   8.438 -0.2361  0.2709  0.2105
 3395SOL    HW122163  10.396   3.755   8.407 -0.1226  0.8976  0.7123
 3395SOL    HW222164  10.301   3.654   8.468  0.4237  0.3954  0.7434
 3396SOL     OW22165   2.269   8.987   7.220 -0.3890 -0.5616  0.3525
 3396SOL    HW122166   2.240   9.048   7.152  1.8524  0.5668  0.3064
 3396SOL    HW222167   2.301   8.911   7.172  0.9569  0.1302  0.1014
 3397SOL     OW22168   6.404   5.221   6.298 -0.7539 -0.3160  0.1765
 3397SOL    HW122169   6.406   5.304   6.250 -1.0433 -0.4484 -0.0628
 3397SOL    HW222170   6.339   5.168   6.252 -0.5400 -0.6903  0.3075
 3398SOL     OW22171   7.018   1.533   7.025  0.0281  0.0722 -0.0956
 3398SOL    HW122172   6.929   1.533   6.989  0.4504 -0.7738 -1.1942
 3398SOL    HW222173   7.012   1.480   7.104 -0.4506  0.0820 -0.1181
 3399SOL     OW22174   5.352   8.551  10.351  0.1133 -0.3011 -0.1714
 3399SOL    HW122175   5.357   8.607  10.428 -1.3608  0.0641 -0.3168
 3399SOL    HW222176   5.396   8.470  10.377  1.8873  0.7172  0.1834
 3400SOL     OW22177   9.448   7.507   7.428 -0.0818 -0.2359 -0.3737
 3400SOL    HW122178   9.435   7.594   7.466  0.5526 -0.4299  0.3013
 3400SOL    HW222179   9.540   7.486   7.445 -0.4331 -1.3864  0.1960
 3401SOL     OW22180   4.142   1.345   7.737 -0.2712  0.1489  0.8813
 3401SOL    HW122181   4.053   1.311   7.735  0.4772 -1.9292  1.1027
 3401SOL    HW222182   4.179   1.320   7.652  0.1586  0.8797  0.8424
 3402SOL     OW22183   6.774   6.402   0.936 -0.3400  0.1832  0.7857
 3402SOL    HW122184   6.853   6.448   0.967  0.7960 -0.9909 -0.2518
 3402SOL    HW222185   6.787   6.311   0.965 -0.3402 -0.4464 -1.0573
 3403SOL     OW22186   1.610   8.952   3.165 -0.2596 -0.6061 -0.4375
 3403SOL    HW122187   1.554   8.890   3.120 -0.7078 -1.8251  1.6481
 3403SOL    HW222188   1.601   8.930   3.258  1.1459  1.2864  0.2289
 3404SOL     OW22189   4.373   3.714   7.991 -0.1244 -0.0554 -0.7379
 3404SOL    HW122190   4.335   3.735   7.905  0.3272 -1.2325 -1.2344
 3404SOL    HW222191   4.466   3.702   7.974  0.2766  1.4053  0.2378
 3405SOL     OW22192   4.010   7.744   5.583 -0.3430  0.1059 -0.5876
 3405SOL    HW122193   4.001   7.797   5.504  0.3369 -0.6348 -1.1834
 3405SOL    HW222194   3.988   7.803   5.655 -2.3195  0.4424 -1.3932
 3406SOL     OW22195   5.814   2.153   0.395  0.4545  0.1182 -0.1380
 3406SOL    HW122196   5.904   2.135   0.420  0.3820 -2.0703 -1.1405
 3406SOL    HW222197   5.765   2.076   0.424 -0.2834 -0.7709 -3.2709
 3407SOL     OW22198   9.546   7.045   1.104  0.1314  0.6566  0.1120
 3407SOL    HW122199   9.598   7.054   1.024 -1.6107 -2.8119 -1.6391
 3407SOL    HW222200   9.568   6.959   1.138 -0.7997  1.1656  2.1993
 3408SOL     OW22201   1.890   3.262   3.966  0.6282 -0.1612 -0.0173
 3408SOL    HW122202   1.978   3.274   3.930  0.1170  2.4366 -0.5692
 3408SOL    HW222203   1.839   3.334   3.930 -1.0858 -0.0763  2.3697
 3409SOL     OW22204   6.209   3.157   4.186 -0.4410 -0.3056  0.3100
 3409SOL    HW122205   6.144   3.224   4.162 -1.1428 -1.4819 -1.3186
 3409SOL    HW222206   6.289   3.184   4.142 -0.7599 -0.5836 -0.4571
 3410SOL     OW22207   3.977   2.481   8.417 -0.1442 -0.0066  0.1671
 3410SOL    HW122208   4.067   2.512   8.405 -0.7222  1.4677 -0.5974
 3410SOL    HW222209   3.979   2.390   8.389  1.2349 -0.1581  0.7122
 3411SOL     OW22210   9.610   6.739   3.444 -0.2374 -0.2003  0.0489
 3411SOL    HW122211   9.638   6.680   3.514 -0.2175  0.0523  0.2558
 3411SOL    HW222212   9.518   6.719   3.432  0.0343 -1.0763 -0.6746
 3412SOL     OW22213   1.791   8.273   9.190  0.1830  0.0398  0.4548
 3412SOL    HW122214   1.879   8.301   9.164 -0.3305  1.8978  0.5344
 3412SOL    HW222215   1.740   8.275   9.110  0.0352 -0.2590  0.5429
 3413SOL     OW22216   7.768   4.771   0.065  0.1543 -0.1559 -0.1944
 3413SOL    HW122217   7.787   4.734   0.151 -0.0617  1.4443  0.5849
 3413SOL    HW222218   7.680   4.738   0.044  0.5493 -1.2433 -0.2169
 3414SOL     OW22219   4.710   8.538   5.599 -0.4303  0.0282 -0.0587
 3414SOL    HW122220   4.787   8.502   5.642  0.6289  1.0133 -1.0495
 3414SOL    HW222221   4.673   8.465   5.550  0.1520 -0.3365  0.0405
 3415SOL     OW22222   0.217   4.189   8.258  0.0610  0.5372  0.4749
 3415SOL    HW122223   0.273   4.122   8.220 -0.6620  0.5555 -0.6708
 3415SOL    HW222224   0.129   4.169   8.224 -0.3792  1.3170  1.1225
 3416SOL     OW22225   8.842   0.572   5.398  0.1635  0.4497  0.2845
 3416SOL    HW122226   8.757   0.613   5.416  0.3577  0.7569  0.5182
 3416SOL    HW222227   8.874   0.617   5.320  0.3383  0.6898  0.4914
 3417SOL     OW22228   5.127   2.795   0.494 -0.2655  0.1914 -0.3439
 3417SOL    HW122229   5.100   2.704   0.484  0.4658 -0.2392  1.2035
 3417SOL    HW222230   5.063   2.845   0.444 -0.8251 -1.1512 -1.0215
 3418SOL     OW22231   5.354   0.780   3.491 -0.4265 -0.1013  0.4161
 3418SOL    HW122232   5.438   0.740   3.515  0.1990  1.6708  1.3801
 3418SOL    HW222233   5.297   0.761   3.566 -0.2699  0.3586  0.6597
 3419SOL     OW22234   2.868   2.095   4.926  0.0874 -1.0274  0.0787
 3419SOL    HW122235   2.820   2.060   4.851  0.5443 -1.9832  0.2147
 3419SOL    HW222236   2.933   2.154   4.887  0.1632 -1.3310 -0.2662
 3420SOL     OW22237   2.988   2.316   2.606  1.0169 -0.2688  0.4275
 3420SOL    HW122238   2.998   2.224   2.633  1.1093 -0.3241  0.2038
 3420SOL    HW222239   3.034   2.322   2.523 -0.5523 -0.4757 -0.5057
 3421SOL     OW22240   7.095   9.990   9.390  0.0265  0.6473  0.1374
 3421SOL    HW122241   7.147  10.060   9.429 -0.5466  1.5993 -0.7656
 3421SOL    HW222242   7.145   9.910   9.409  0.6001  1.2537  1.3348
 3422SOL     OW22243   5.422   1.421   6.591 -0.1442  0.3361 -0.0759
 3422SOL    HW122244   5.395   1.454   6.505 -0.4785  0.8084  0.2073
 3422SOL    HW222245   5.518   1.423   6.587 -0.1095 -1.1115 -0.9892
 3423SOL     OW22246   9.135   2.537   6.299 -0.6071 -0.6338 -0.1861
 3423SOL    HW122247   9.195   2.466   6.274  0.7745 -0.1123  1.4226
 3423SOL    HW222248   9.120   2.523   6.393 -2.4828 -0.3363 -0.4210
 3424SOL     OW22249   3.105   8.777   3.474 -0.1766  0.5086 -0.2744
 3424SOL    HW122250   3.166   8.842   3.510  2.4424 -0.5788 -2.4600
 3424SOL    HW222251   3.131   8.695   3.515 -0.3951  0.0746 -1.0054
 3425SOL     OW22252   6.615   9.221   1.645  0.3170  0.2950 -0.0856
 3425SOL    HW122253   6.679   9.160   1.608  0.6607 -0.2325  1.2994
 3425SOL    HW222254   6.621   9.298   1.590  1.9463  0.1404 -0.1757
 3426SOL     OW22255   3.377   4.268   5.343 -0.0508  0.5739  0.2267
 3426SOL    HW122256   3.424   4.188   5.366  1.6564  1.4896  0.1484
 3426SOL    HW222257   3.334   4.295   5.424  0.4537  0.2594  0.6101
 3427SOL     OW22258   8.722  10.310   1.014 -0.5539  0.0786  0.1277
 3427SOL    HW122259   8.729  10.226   1.060  1.3082  0.0727 -0.0508
 3427SOL    HW222260   8.813  10.335   0.997 -1.1197  1.1280 -1.6540
 3428SOL     OW22261   9.122   1.061   5.341  0.1690 -0.3269  0.2798
 3428SOL    HW122262   9.035   1.030   5.368 -0.0254  1.0720  1.4200
 3428SOL    HW222263   9.179   0.985   5.350 -0.4035 -0.5728  2.3287
 3429SOL     OW22264  10.314   2.277   8.064  0.7612 -1.0321 -0.0268
 3429SOL    HW122265  10.336   2.337   7.992 -1.2961  1.7008  1.4441
 3429SOL    HW222266  10.389   2.281   8.123  1.0267 -0.6073 -0.3865
 3430SOL     OW22267   1.034   5.135   8.678  0.0948  0.2115 -0.5845
 3430SOL    HW122268   0.957   5.091   8.714 -0.7275 -0.6572 -3.1926
 3430SOL    HW222269   1.044   5.213   8.733 -3.3157  0.9338 -0.7252
 3431SOL     OW22270   9.725   4.073   2.318  0.4507  0.2649  0.1434
 3431SOL    HW122271   9.706   4.022   2.239 -0.1677  0.4773  0.1452
 3431SOL    HW222272   9.768   4.011   2.377  0.8655  0.0904 -0.3347
 3432SOL     OW22273  10.309   0.074   3.701  0.1736  0.0024 -0.5429
 3432SOL    HW122274  10.288  -0.012   3.664  1.0262 -1.3079  1.7994
 3432SOL    HW222275  10.316   0.132   3.625 -0.5796 -1.9437 -2.1884
 3433SOL     OW22276   1.661   2.726   4.367  0.0661  0.1014 -0.7230
 3433SOL    HW122277   1.677   2.632   4.380  1.3642 -0.0255 -2.7849
 3433SOL    HW222278   1.584   2.744   4.421  0.7526 -1.7633  1.0407
 3434SOL     OW22279   9.100   2.307   2.974  0.4914  0.0007  0.4683
 3434SOL    HW122280   9.150   2.272   3.047 -1.2227  0.6776  2.0328
 3434SOL    HW222281   9.075   2.230   2.923  1.5531 -0.4940  0.6606
 3435SOL     OW22282   0.670   7.490   6.784  0.0067  0.6763 -0.0019
 3435SOL    HW122283   0.643   7.582   6.786 -0.1577  0.6540 -0.9221
 3435SOL    HW222284   0.596   7.442   6.820 -1.1686  0.6330 -2.3022
 3436SOL     OW22285   9.576   5.961   6.048  0.2026 -0.0306 -0.0228
 3436SOL    HW122286   9.558   5.910   5.969 -1.5193  1.1357 -0.4337
 3436SOL    HW222287   9.648   5.914   6.090 -1.6105 -3.1146 -0.0591
 3437SOL     OW22288   3.652   0.876  10.027 -0.0939 -0.4283  0.2643
 3437SOL    HW122289   3.744   0.900  10.022 -0.2105 -0.0641 -0.3757
 3437SOL    HW222290   3.609   0.954  10.063 -0.2461 -0.3187 -0.1507
 3438SOL     OW22291   7.774   9.699   8.545  0.0992  0.3917  0.1470
 3438SOL    HW122292   7.852   9.653   8.512 -0.5069  0.3125 -1.2641
 3438SOL    HW222293   7.705   9.633   8.543  0.0499  0.3721  1.7227
 3439SOL     OW22294   1.418   8.004   7.740  0.2223  0.4127  0.1492
 3439SOL    HW122295   1.415   7.926   7.797 -0.1522 -0.4435 -0.9992
 3439SOL    HW222296   1.345   8.058   7.770  1.7204  1.3817  2.3486
 3440SOL     OW22297   9.133   2.524   2.807 -0.3302  0.3324 -0.0329
 3440SOL    HW122298   9.181   2.595   2.850 -1.1116  0.6174  0.3770
 3440SOL    HW222299   9.157   2.446   2.856 -0.1673  0.4470  0.0741
 3441SOL     OW22300   4.684   3.009   9.126  0.0336  0.1588  0.5293
 3441SOL    HW122301   4.669   2.933   9.182  2.3138 -0.2802  0.6211
 3441SOL    HW222302   4.738   3.068   9.180  0.7901  0.5069 -0.5825
 3442SOL     OW22303   5.768   0.693   0.502 -0.9005  0.4140 -0.4043
 3442SOL    HW122304   5.766   0.788   0.512  1.0615  0.4184  0.5557
 3442SOL    HW222305   5.721   0.660   0.579 -0.4336  0.6255 -0.0169
 3443SOL     OW22306   9.466   9.068   9.858 -0.2798 -0.2024  0.4509
 3443SOL    HW122307   9.440   9.154   9.890 -0.9029  0.6942 -2.2088
 3443SOL    HW222308   9.513   9.028   9.931  0.1421  2.4417  1.7330
 3444SOL     OW22309   9.951   2.634   3.599 -0.3029 -0.2326  0.3783
 3444SOL    HW122310  10.040   2.667   3.608 -0.3957 -0.2837  1.6733
 3444SOL    HW222311   9.901   2.680   3.666 -1.4516  0.3938 -0.8427
 3445SOL     OW22312   9.433   7.484   2.513  0.1479  0.1934 -0.0660
 3445SOL    HW122313   9.344   7.476   2.478  0.0159  0.4390  0.2077
 3445SOL    HW222314   9.470   7.396   2.504  0.4791  0.4750 -1.7438
 3446SOL     OW22315   5.049   0.886   4.814 -0.2505  0.4546  0.0722
 3446SOL    HW122316   5.062   0.861   4.906 -0.9922 -0.6216 -0.0936
 3446SOL    HW222317   5.012   0.808   4.773  0.0468  0.9282 -1.1473
 3447SOL     OW22318   0.747   5.492   0.518 -0.2941 -0.0167  0.6452
 3447SOL    HW122319   0.680   5.536   0.466  1.3876 -0.9630 -2.5849
 3447SOL    HW222320   0.790   5.433   0.457  1.9111 -1.2663  3.1832
 3448SOL     OW22321   5.786   1.703   7.753 -0.1135 -0.1879  0.2547
 3448SOL    HW122322   5.733   1.782   7.741  0.5244  0.0045 -1.6120
 3448SOL    HW222323   5.722   1.631   7.756 -0.7690  0.4289  2.9406
 3449SOL     OW22324   6.714   9.758   2.151 -0.7210  0.3080 -0.5913
 3449SOL    HW122325   6.699   9.790   2.240  2.1619  0.7100 -0.1534
 3449SOL    HW222326   6.745   9.668   2.163  1.4549  0.9575 -0.9781
 3450SOL     OW22327   0.488   3.226   7.688  0.1456 -0.1228  0.3726
 3450SOL    HW122328   0.400   3.238   7.725 -0.2121  0.3501 -0.5904
 3450SOL    HW222329   0.517   3.141   7.722 -0.2466  0.1902  1.5474
 3451SOL     OW22330   4.347   7.675   8.523 -0.2180 -0.0212  0.4884
 3451SOL    HW122331   4.292   7.752   8.513 -0.7286 -0.5263 -0.6898
 3451SOL    HW222332   4.303   7.623   8.591 -0.7656 -0.0502  0.1142
 3452SOL     OW22333   0.607   1.100   2.433 -0.9037  0.6751 -0.0267
 3452SOL    HW122334   0.701   1.113   2.423 -0.8383 -0.8773 -2.0245
 3452SOL    HW222335   0.572   1.187   2.451  0.9677  1.1472  1.6846
 3453SOL     OW22336  10.206   8.147   6.094  0.0586  0.1625 -0.2613
 3453SOL    HW122337  10.256   8.202   6.154  0.5735 -1.1281  0.5398
 3453SOL    HW222338  10.250   8.062   6.096 -0.3818 -0.1513 -1.8759
 3454SOL     OW22339   1.285   5.817   7.368  0.1989  0.0578  0.3310
 3454SOL    HW122340   1.338   5.791   7.293  1.1399  1.1813  0.5796
 3454SOL    HW222341   1.277   5.737   7.420  2.4256  0.0362  0.7256
 3455SOL     OW22342   7.442   2.541   6.840 -0.1013 -0.4845  0.0415
 3455SOL    HW122343   7.435   2.455   6.798 -0.2626 -0.9499  0.9766
 3455SOL    HW222344   7.484   2.523   6.924  0.5599  0.4667 -0.0725
 3456SOL     OW22345   0.938   0.357   2.772 -0.0765 -0.0417 -0.8781
 3456SOL    HW122346   1.016   0.411   2.777 -1.6821  2.3091  1.2793
 3456SOL    HW222347   0.932   0.316   2.858 -1.6734  0.5500 -0.6792
 3457SOL     OW22348  10.120   3.802   8.657  0.0415 -0.0139 -0.3297
 3457SOL    HW122349  10.175   3.787   8.580 -1.2939  0.9688 -1.5133
 3457SOL    HW222350  10.113   3.716   8.698  1.0454 -0.4936 -1.1030
 3458SOL     OW22351   5.765   3.539   6.760  0.1341  0.0561 -0.2561
 3458SOL    HW122352   5.695   3.568   6.701 -0.3425 -1.0833 -0.2851
 3458SOL    HW222353   5.764   3.603   6.831 -0.1302  0.7314 -0.8539
 3459SOL     OW22354   4.249   3.445   5.292  0.2731 -0.3277 -0.2560
 3459SOL    HW122355   4.332   3.428   5.337  0.7830  2.5976  0.1464
 3459SOL    HW222356   4.188   3.469   5.362 -0.2103 -0.1273 -0.7383
 3460SOL     OW22357   4.408   8.698   5.429 -0.1537  0.0745  0.2267
 3460SOL    HW122358   4.502   8.701   5.448 -0.3121  1.2539  0.9266
 3460SOL    HW222359   4.403   8.681   5.335  0.7150 -1.9357  0.5001
 3461SOL     OW22360   6.253   6.871   1.445  0.1749 -0.3534  0.1944
 3461SOL    HW122361   6.303   6.849   1.366  1.0909 -0.4329  0.7830
 3461SOL    HW222362   6.205   6.951   1.421  0.1773 -0.5628 -0.5478
 3462SOL     OW22363   2.180   8.884   1.061 -0.7190  0.3226  0.0471
 3462SOL    HW122364   2.193   8.790   1.055 -0.3468  0.3202  0.7629
 3462SOL    HW222365   2.229   8.910   1.139  1.6702  1.5502 -1.7047
 3463SOL     OW22366   0.574   1.876   4.890 -0.3123  0.2346 -0.0667
 3463SOL    HW122367   0.585   1.836   4.976 -3.4858  0.0741  0.4033
 3463SOL    HW222368   0.480   1.896   4.885 -0.1850  0.5626 -3.3609
 3464SOL     OW22369   1.043   2.744   4.833  0.0643  0.6654  0.4205
 3464SOL    HW122370   1.087   2.818   4.876 -0.3699  1.6540 -0.7827
 3464SOL    HW222371   1.008   2.691   4.905  1.6794  0.8115  1.3399
 3465SOL     OW22372   0.477   8.264   6.414 -0.1081 -0.1898 -0.5672
 3465SOL    HW122373   0.563   8.296   6.386 -0.3200  0.5655 -0.3675
 3465SOL    HW222374   0.496   8.183   6.462  0.4107 -0.5066 -1.2940
 3466SOL     OW22375   1.343   1.258   9.515  0.2268 -0.5512  0.7762
 3466SOL    HW122376   1.425   1.212   9.533  0.6946 -0.0023  0.0975
 3466SOL    HW222377   1.361   1.349   9.540  0.5856  0.0466 -1.4540
 3467SOL     OW22378   8.798   2.683   5.484  0.2475  0.4760  0.5623
 3467SOL    HW122379   8.851   2.606   5.507  0.1161  0.1055 -0.3366
 3467SOL    HW222380   8.712   2.647   5.463  0.6920  0.6019 -1.7801
 3468SOL     OW22381  10.370   9.803   1.793 -0.6900  0.0171 -0.1863
 3468SOL    HW122382  10.325   9.888   1.791 -0.7125  0.0036 -0.2347
 3468SOL    HW222383  10.352   9.769   1.881 -1.5301 -0.4003 -0.5134
 3469SOL     OW22384   3.587   7.185   4.543  0.1935 -0.6944  0.0451
 3469SOL    HW122385   3.673   7.228   4.542 -0.0779 -0.1359  0.2690
 3469SOL    HW222386   3.583   7.137   4.460  0.3432  0.0428 -0.4052
 3470SOL     OW22387   5.433   9.223   8.629  0.2176 -0.4551  0.3054
 3470SOL    HW122388   5.413   9.129   8.629  0.6867 -0.5629 -0.3725
 3470SOL    HW222389   5.466   9.241   8.717  0.2741 -0.9639  0.3895
 3471SOL     OW22390   7.826   2.719   0.240  0.6475  0.0570 -0.2543
 3471SOL    HW122391   7.746   2.730   0.291  0.6402 -0.2664 -0.1965
 3471SOL    HW222392   7.896   2.740   0.303  0.6285 -0.1019 -0.1800
 3472SOL     OW22393   5.192   4.401   4.046  0.0186  0.1003 -0.1066
 3472SOL    HW122394   5.267   4.345   4.065 -1.0163 -1.5221 -0.5932
 3472SOL    HW222395   5.135   4.391   4.123 -0.3547  0.1576 -0.3731
 3473SOL     OW22396   1.249   2.788   7.786 -0.0928  0.3634  0.2481
 3473SOL    HW122397   1.222   2.792   7.694  0.0059 -1.0874  0.1368
 3473SOL    HW222398   1.343   2.770   7.783 -0.0193  0.6420  0.6492
 3474SOL     OW22399   1.296   1.550   6.830 -0.4265  0.0969 -0.0826
 3474SOL    HW122400   1.221   1.533   6.887  0.8001 -1.2778  1.2136
 3474SOL    HW222401   1.338   1.627   6.868 -0.3440 -0.0277  0.0773
 3475SOL     OW22402   6.761   9.439  10.075  0.0628 -0.2655  0.3817
 3475SOL    HW122403   6.776   9.345  10.083 -1.3192 -0.4790  0.8179
 3475SOL    HW222404   6.666   9.449  10.084  0.3111  1.3038  1.9752
 3476SOL     OW22405   2.659   1.227   0.728 -0.2057 -0.2016 -0.5631
 3476SOL    HW122406   2.702   1.295   0.779 -0.4588  0.3723 -1.1098
 3476SOL    HW222407   2.718   1.152   0.734  0.0335  0.0314  0.1085
 3477SOL     OW22408   3.250   3.077   8.019  0.0300  0.0960 -0.0213
 3477SOL    HW122409   3.205   3.022   7.954  0.5316  0.9020 -1.0758
 3477SOL    HW222410   3.182   3.099   8.083 -1.2499  1.6500 -1.8115
 3478SOL     OW22411   6.549   5.967   8.953  0.0524  0.3410  1.1977
 3478SOL    HW122412   6.556   5.965   8.858  0.8154  0.2340  1.2499
 3478SOL    HW222413   6.510   6.052   8.972 -0.6416  0.1254  0.7622
 3479SOL     OW22414   2.033   5.694   6.414 -0.2759 -0.2638  0.2223
 3479SOL    HW122415   1.956   5.693   6.357  0.9402 -0.9568 -1.4667
 3479SOL    HW222416   2.089   5.624   6.381 -0.0951 -1.6682  3.1308
 3480SOL     OW22417   3.547   2.852   0.571  0.2266  0.7336  0.6139
 3480SOL    HW122418   3.615   2.841   0.638  0.1898  0.7484  0.6540
 3480SOL    HW222419   3.538   2.947   0.562  0.4031  0.7305  0.4127
 3481SOL     OW22420  10.037   0.476   0.232  0.1464  0.4517  0.0294
 3481SOL    HW122421   9.985   0.418   0.287 -0.9826  1.1669 -0.2459
 3481SOL    HW222422  10.092   0.418   0.179 -1.4982 -0.4236 -0.7750
 3482SOL     OW22423   5.249   6.952   6.643  0.0834  0.0358  0.3878
 3482SOL    HW122424   5.218   6.946   6.553  0.3142 -2.3941  0.4032
 3482SOL    HW222425   5.344   6.945   6.636  0.0422 -1.3823  0.8398
 3483SOL     OW22426   9.982   6.281   2.367 -0.6874  0.4647 -0.1553
 3483SOL    HW122427   9.941   6.313   2.447  0.3235  1.3228  0.0469
 3483SOL    HW222428   9.912   6.277   2.303 -1.8559 -1.6841  1.1416
 3484SOL     OW22429   5.900   4.576   2.089 -0.2308  0.7682 -0.1504
 3484SOL    HW122430   5.917   4.591   2.182  0.0781 -0.6954  0.0530
 3484SOL    HW222431   5.824   4.630   2.069 -1.3644 -0.1926  1.3914
 3485SOL     OW22432   0.938   0.139   8.914 -0.4926 -0.3064  0.0654
 3485SOL    HW122433   0.969   0.155   8.825  1.8735  2.2638  1.2098
 3485SOL    HW222434   0.860   0.193   8.923 -0.3868 -0.0930 -0.2810
 3486SOL     OW22435   3.216   1.020   9.037 -0.9787  0.3485  0.4752
 3486SOL    HW122436   3.223   0.981   9.124 -0.9670  1.1438  0.8365
 3486SOL    HW222437   3.137   1.075   9.041 -0.6771  0.8130  0.1608
 3487SOL     OW22438   0.358   7.488   7.520  0.0525 -0.0849  0.4379
 3487SOL    HW122439   0.324   7.431   7.450  0.7056  0.4390 -0.3302
 3487SOL    HW222440   0.396   7.427   7.583  1.7865 -0.5086 -0.9296
 3488SOL     OW22441   7.729   9.198   9.525  0.0086 -0.0873  0.2797
 3488SOL    HW122442   7.634   9.205   9.540  0.2491  0.5601  1.6989
 3488SOL    HW222443   7.757   9.125   9.579  0.7885  1.8123  2.6351
 3489SOL     OW22444   2.483   4.665   7.799  0.0695 -0.2329  0.1189
 3489SOL    HW122445   2.542   4.612   7.744  1.0687 -0.4336  1.3426
 3489SOL    HW222446   2.447   4.603   7.862  0.3550  0.3305  0.8446
 3490SOL     OW22447   8.962  10.055   4.683 -0.1971 -0.1851 -0.0824
 3490SOL    HW122448   8.895   9.998   4.644  0.7138 -0.8806 -0.6757
 3490SOL    HW222449   8.913  10.127   4.721 -1.3164 -0.8875 -0.1549
 3491SOL     OW22450   3.998   1.340   5.399  0.1367 -0.6503 -0.4666
 3491SOL    HW122451   4.063   1.360   5.332  0.2041 -1.6317 -0.7206
 3491SOL    HW222452   4.046   1.291   5.466 -0.0418 -0.1349  0.0549
 3492SOL     OW22453   3.209   8.267   8.926 -0.0261 -0.3876  0.6429
 3492SOL    HW122454   3.300   8.245   8.945  0.4045 -1.5178 -2.2692
 3492SOL    HW222455   3.215   8.341   8.866 -0.8775 -1.7163 -1.1621
 3493SOL     OW22456   8.567   0.892   5.001 -0.1836  0.1186 -0.2661
 3493SOL    HW122457   8.580   0.983   4.976 -1.4800  0.7278  1.1228
 3493SOL    HW222458   8.557   0.894   5.096 -3.7310 -0.9459 -0.4634
 3494SOL     OW22459   1.413   0.203   9.895  0.4645 -0.7625  0.4966
 3494SOL    HW122460   1.413   0.112   9.923  2.3255 -0.8294  0.3970
 3494SOL    HW222461   1.397   0.199   9.801 -1.4075 -0.8175  0.7749
 3495SOL     OW22462   3.622   7.458   6.000  0.2747 -0.1272  0.0334
 3495SOL    HW122463   3.583   7.397   5.937  0.3542  1.3508 -1.5084
 3495SOL    HW222464   3.632   7.540   5.951  1.0213  0.8665  1.7722
 3496SOL     OW22465   1.733   2.996   3.927 -0.4282  0.0526  0.4573
 3496SOL    HW122466   1.723   2.958   4.015 -0.5015  0.6319  0.7053
 3496SOL    HW222467   1.754   3.088   3.943  0.9063 -0.1230 -0.1166
 3497SOL     OW22468   0.728   4.302   5.325 -0.8456  0.2776 -0.1221
 3497SOL    HW122469   0.815   4.269   5.346 -0.7028  0.9644  0.3938
 3497SOL    HW222470   0.683   4.227   5.286 -0.1782 -0.2127  0.0316
 3498SOL     OW22471   0.600   5.201   4.367 -0.0371 -0.0770 -0.4143
 3498SOL    HW122472   0.585   5.129   4.306  0.7700 -1.5044  0.9785
 3498SOL    HW222473   0.610   5.278   4.312  0.3498 -1.2443 -2.0428
 3499SOL     OW22474   7.033   5.407   6.324  0.1520  0.3145  0.0286
 3499SOL    HW122475   6.955   5.463   6.330  0.5675  0.8995 -0.0108
 3499SOL    HW222476   7.007   5.326   6.368 -0.3968  0.5981  0.2372
 3500SOL     OW22477   0.874   1.825   0.950  0.1497 -0.3180  0.5778
 3500SOL    HW122478   0.926   1.825   1.030  0.8777  1.2989  0.1401
 3500SOL    HW222479   0.897   1.742   0.907  1.2895 -0.2769  1.0671
 3501SOL     OW22480   5.560   9.826   4.761 -0.3593 -0.6679  0.3004
 3501SOL    HW122481   5.528   9.902   4.811 -1.2900 -0.4641 -0.5608
 3501SOL    HW222482   5.647   9.808   4.797 -1.4290 -1.2692  2.7836
 3502SOL     OW22483   8.530   1.379   4.894 -0.1729  0.5256 -0.4699
 3502SOL    HW122484   8.471   1.304   4.883  0.3028  0.2870 -1.5250
 3502SOL    HW222485   8.531   1.394   4.988 -1.6741  0.3484 -0.3893
 3503SOL     OW22486   3.807   9.600   2.565 -0.2645 -0.2651 -0.1124
 3503SOL    HW122487   3.723   9.597   2.519  0.6325  0.5750 -1.9051
 3503SOL    HW222488   3.865   9.544   2.514  1.0313  1.4567 -0.6170
 3504SOL     OW22489   6.238   4.180   6.654  0.0519  0.1240  0.4160
 3504SOL    HW122490   6.162   4.180   6.712 -0.1100  0.0005  0.2068
 3504SOL    HW222491   6.233   4.096   6.607 -0.0571  0.4078 -0.0866
 3505SOL     OW22492   9.635   8.073   3.522  0.3224 -0.7249  0.4269
 3505SOL    HW122493   9.557   8.078   3.577  0.1309  1.3159  0.0424
 3505SOL    HW222494   9.625   8.145   3.459  2.0214 -1.0494 -0.2708
 3506SOL     OW22495  10.053   8.426   3.855 -0.1760 -0.5042  0.0240
 3506SOL    HW122496  10.117   8.390   3.916  0.7486  1.6015  0.3505
 3506SOL    HW222497  10.075   8.518   3.847 -2.4930  0.0517 -0.7558
 3507SOL     OW22498   9.751   9.316   9.494 -0.8634  0.5436 -0.0256
 3507SOL    HW122499   9.785   9.404   9.479 -0.0084  0.3109  0.4919
 3507SOL    HW222500   9.752   9.305   9.589  0.4281 -0.5354 -0.1238
 3508SOL     OW22501   0.452   9.550   2.528 -0.7966  0.0689 -0.0139
 3508SOL    HW122502   0.512   9.624   2.520  0.5381 -1.0445 -0.7908
 3508SOL    HW222503   0.478   9.506   2.609  1.1947 -1.8135 -1.5357
 3509SOL     OW22504   5.412   8.437   3.352 -0.2123  0.0826 -0.6200
 3509SOL    HW122505   5.409   8.419   3.258  1.6129 -0.0872 -0.6885
 3509SOL    HW222506   5.332   8.485   3.370 -1.8250 -1.9819 -1.7930
 3510SOL     OW22507   9.906   3.497   0.783 -0.3538  0.2147 -0.1944
 3510SOL    HW122508   9.927   3.581   0.824  0.8922 -0.2853  0.2529
 3510SOL    HW222509   9.979   3.481   0.723 -0.5065 -0.6004 -0.1791
 3511SOL     OW22510   0.223   6.214   1.884  0.3631 -0.6669  0.0486
 3511SOL    HW122511   0.266   6.291   1.846 -0.8136  0.4255  0.8379
 3511SOL    HW222512   0.212   6.154   1.810 -1.3336  1.1553 -1.2953
 3512SOL     OW22513  10.180   9.563   5.205  0.1506 -0.1219  0.0855
 3512SOL    HW122514  10.121   9.603   5.142 -0.5752 -0.7669  0.3441
 3512SOL    HW222515  10.266   9.567   5.163 -0.1058  0.6074 -0.3941
 3513SOL     OW22516   4.082   5.378   3.624 -0.6437  0.0787  0.2863
 3513SOL    HW122517   4.060   5.297   3.670  1.1667  0.5544  2.1780
 3513SOL    HW222518   4.178   5.378   3.621 -0.6524  1.4922 -0.9307
 3514SOL     OW22519   7.922   8.307   3.078 -0.5652  0.2385  0.5001
 3514SOL    HW122520   7.910   8.275   3.167  0.8752 -0.6393  0.4143
 3514SOL    HW222521   7.995   8.256   3.044 -0.0182  1.6979 -0.6337
 3515SOL     OW22522   0.410   8.035   2.201  0.2041  0.3504  0.0091
 3515SOL    HW122523   0.422   7.942   2.218 -0.1426 -0.2988 -2.7066
 3515SOL    HW222524   0.498   8.069   2.190  0.3165 -0.6129 -2.8805
 3516SOL     OW22525   5.438   1.185   5.926  0.3649 -0.0038 -0.5627
 3516SOL    HW122526   5.405   1.209   5.839 -0.0050  1.0709 -0.1510
 3516SOL    HW222527   5.453   1.269   5.969  0.9610 -0.5210  0.2626
 3517SOL     OW22528   0.559   3.947   4.905  0.0236  0.1253 -0.7972
 3517SOL    HW122529   0.470   3.981   4.902 -0.4838 -1.1769 -0.9598
 3517SOL    HW222530   0.591   3.953   4.815 -0.0508  0.2012 -0.8183
 3518SOL     OW22531   9.270  10.191   5.441  0.1412  0.5619  0.3633
 3518SOL    HW122532   9.350  10.230   5.406  1.1149 -1.6652 -0.0689
 3518SOL    HW222533   9.297  10.153   5.525 -0.3106 -0.6723 -0.0327
 3519SOL     OW22534  10.305   2.111   1.039  0.7828  0.2020 -0.4113
 3519SOL    HW122535  10.282   2.179   0.976  0.0836  0.5077  0.1549
 3519SOL    HW222536  10.225   2.098   1.091  0.5132 -1.9194 -1.2771
 3520SOL     OW22537   0.576   1.865   8.411  0.6438 -0.1901 -1.1171
 3520SOL    HW122538   0.669   1.888   8.408  1.0578 -1.4698  0.3425
 3520SOL    HW222539   0.564   1.805   8.337  0.9661  0.0097 -1.3364
 3521SOL     OW22540   6.993   2.753   0.893 -1.0867  0.4371  0.6717
 3521SOL    HW122541   6.907   2.727   0.926 -0.7102 -2.5630 -0.4325
 3521SOL    HW222542   6.974   2.829   0.838 -3.4295 -1.2687 -1.0997
 3522SOL     OW22543   6.207   0.980   5.025  0.4161  0.2511  0.0072
 3522SOL    HW122544   6.146   1.014   5.091  0.2422 -0.5428  0.2697
 3522SOL    HW222545   6.167   0.898   4.996  0.7652  0.3231 -0.6995
 3523SOL     OW22546   7.858   7.755   0.040  0.5232  0.1733 -0.2831
 3523SOL    HW122547   7.813   7.795   0.115  0.7527 -2.1989  1.2329
 3523SOL    HW222548   7.803   7.777  -0.035 -0.5814  1.3165  0.8119
 3524SOL     OW22549   5.404   9.763   9.689  0.7051  0.1046 -0.1327
 3524SOL    HW122550   5.321   9.772   9.643  1.6903 -0.3899 -2.1480
 3524SOL    HW222551   5.461   9.719   9.626  2.2020 -0.5016  1.5614
 3525SOL     OW22552   7.401   8.554   8.990 -0.3211  0.3902 -0.3687
 3525SOL    HW122553   7.335   8.564   8.921 -0.5763  0.9426 -0.0574
 3525SOL    HW222554   7.443   8.470   8.972 -1.1348  0.0142 -0.5522
 3526SOL     OW22555   7.982   8.662   4.519  0.1661 -0.2412  0.1795
 3526SOL    HW122556   7.931   8.630   4.593  0.6817 -4.5531 -1.0317
 3526SOL    HW222557   7.928   8.641   4.442  1.1812  0.7417 -0.8462
 3527SOL     OW22558   0.536   3.298   0.265 -0.3481 -0.6161  0.1546
 3527SOL    HW122559   0.553   3.389   0.240  1.8014 -1.2169 -0.9037
 3527SOL    HW222560   0.480   3.304   0.342  2.3480  1.7868  2.2033
 3528SOL     OW22561   7.661   0.460   6.745  0.4324  0.5103 -0.2616
 3528SOL    HW122562   7.713   0.523   6.695 -0.7390  0.6855 -1.3098
 3528SOL    HW222563   7.723   0.391   6.769  1.4552  1.4236 -0.1952
 3529SOL     OW22564   5.738   4.067   0.163 -0.0689  0.1031 -0.2977
 3529SOL    HW122565   5.770   4.050   0.074  0.4401 -0.0932 -0.0877
 3529SOL    HW222566   5.779   3.998   0.216  0.0753  0.5481  0.1797
 3530SOL     OW22567   0.578   8.319   1.071  0.0212 -0.6171  0.5685
 3530SOL    HW122568   0.636   8.286   1.140 -0.0864 -1.3314  0.3262
 3530SOL    HW222569   0.553   8.407   1.101  0.6272 -0.5996  1.0380
 3531SOL     OW22570  10.296   8.734  10.148 -0.2837 -0.0886 -0.0909
 3531SOL    HW122571  10.255   8.819  10.164  0.4945  0.5071 -1.1105
 3531SOL    HW222572  10.330   8.707  10.234 -0.7133  0.5382  0.2814
 3532SOL     OW22573   7.899   6.017   2.533  0.3608  0.3463 -0.1616
 3532SOL    HW122574   7.831   5.980   2.476 -0.4768  0.7640  0.5355
 3532SOL    HW222575   7.922   6.101   2.491 -0.0562  0.5262 -0.0344
 3533SOL     OW22576   3.662   5.775   4.429  0.2083  0.0962 -0.0787
 3533SOL    HW122577   3.633   5.827   4.354  0.8966 -0.0668 -0.4624
 3533SOL    HW222578   3.705   5.839   4.486 -1.7370  0.5305  0.9709
 3534SOL     OW22579   5.672   4.125   7.313  0.0313  0.2402 -0.3437
 3534SOL    HW122580   5.707   4.165   7.234 -0.3521  2.3178  0.4780
 3534SOL    HW222581   5.583   4.161   7.321 -0.5844 -1.2806  0.1213
 3535SOL     OW22582   9.932   3.303   4.129  0.1159 -0.2853  0.2117
 3535SOL    HW122583  10.026   3.298   4.116  0.4557 -2.6043  2.6438
 3535SOL    HW222584   9.920   3.372   4.194  0.0970 -0.0315 -0.0542
 3536SOL     OW22585   1.217   5.828   2.841 -0.3808 -0.0143  0.2279
 3536SOL    HW122586   1.228   5.777   2.761  1.5921  1.5645 -0.5975
 3536SOL    HW222587   1.248   5.770   2.911  1.1853 -0.2426 -0.6079
 3537SOL     OW22588   2.400   6.164   5.658  0.1407 -0.0166  0.2300
 3537SOL    HW122589   2.472   6.217   5.692  0.3209  0.9130 -1.4474
 3537SOL    HW222590   2.404   6.178   5.563 -2.2929  0.1286  0.0982
 3538SOL     OW22591  10.072   7.690   7.441  0.3474  0.5312 -0.2443
 3538SOL    HW122592  10.099   7.603   7.410  0.0989 -0.7715  2.8699
 3538SOL    HW222593  10.141   7.716   7.502 -1.5731  0.5530  2.0535
 3539SOL     OW22594   3.103   9.481   7.166 -0.1023  0.2247  0.0217
 3539SOL    HW122595   3.149   9.549   7.215  0.3314  0.6691 -0.9733
 3539SOL    HW222596   3.173   9.434   7.119 -0.1701 -2.0350  1.9550
 3540SOL     OW22597   3.268   0.054   9.054 -0.4534  0.3556  0.4765
 3540SOL    HW122598   3.348   0.105   9.043 -0.7068  0.2909 -2.4744
 3540SOL    HW222599   3.234   0.081   9.139  1.2420  2.4842  0.5703
 3541SOL     OW22600   8.734   0.666   4.909  0.1967  0.4954  0.3511
 3541SOL    HW122601   8.740   0.692   4.817  0.7891 -0.5689  0.0728
 3541SOL    HW222602   8.720   0.748   4.957  0.0075  1.0702 -0.6732
 3542SOL     OW22603   0.466   4.958   2.557  0.0834  0.1643  0.5944
 3542SOL    HW122604   0.554   4.935   2.587  0.3392  0.7543  0.3117
 3542SOL    HW222605   0.417   4.974   2.638  0.3802  0.3477  0.7410
 3543SOL     OW22606   0.165   7.157   6.354  0.1836 -0.1181 -0.0176
 3543SOL    HW122607   0.195   7.247   6.367  0.2422 -0.0012 -0.9070
 3543SOL    HW222608   0.215   7.105   6.417  2.3326  0.0579 -1.4886
 3544SOL     OW22609   4.384   8.040   3.335 -0.5163 -0.3420  0.1500
 3544SOL    HW122610   4.382   8.105   3.405 -0.7288  0.1817 -0.3398
 3544SOL    HW222611   4.410   8.088   3.257  1.2416 -1.2069  0.1485
 3545SOL     OW22612   9.172   8.686   4.862 -0.6142  0.1563 -0.0408
 3545SOL    HW122613   9.225   8.612   4.893 -0.3723  0.2355 -0.2555
 3545SOL    HW222614   9.224   8.724   4.791 -1.1759 -0.0568 -0.5730
 3546SOL     OW22615   0.394   2.838   0.184  0.3129  0.1632  0.2185
 3546SOL    HW122616   0.402   2.754   0.139  0.3287  0.6038 -0.6187
 3546SOL    HW222617   0.377   2.901   0.114  0.8745  0.9489  0.7732
 3547SOL     OW22618   5.443   3.875   6.699  0.0047  0.2863  0.7096
 3547SOL    HW122619   5.514   3.876   6.635 -0.2498 -0.9286  0.3756
 3547SOL    HW222620   5.455   3.793   6.747 -0.4533  0.6620  1.4856
 3548SOL     OW22621  10.331   2.921   4.213  0.3101 -0.0926 -0.6028
 3548SOL    HW122622  10.334   2.861   4.138  1.1549  0.0881 -0.7206
 3548SOL    HW222623  10.237   2.938   4.226 -0.0986 -2.6461  0.4025
 3549SOL     OW22624   5.110   5.190   6.257  0.0725  0.2191 -0.3033
 3549SOL    HW122625   5.169   5.232   6.195  1.3507 -0.4945  0.3965
 3549SOL    HW222626   5.142   5.215   6.343 -2.0551  1.7096  0.1526
 3550SOL     OW22627   4.210   0.226   7.534  0.0374 -0.8841 -0.7711
 3550SOL    HW122628   4.296   0.266   7.530  0.3134 -1.5084 -1.1261
 3550SOL    HW222629   4.224   0.144   7.582 -0.4134 -0.8382 -0.5560
 3551SOL     OW22630   1.007   8.782   1.888 -0.0502  0.2912 -0.8033
 3551SOL    HW122631   0.914   8.762   1.874  0.5704 -2.2510 -1.8810
 3551SOL    HW222632   1.045   8.783   1.800  0.9679  1.3566 -0.3771
 3552SOL     OW22633   4.102   7.656   3.816  0.0350  0.0340  0.1383
 3552SOL    HW122634   4.196   7.642   3.818 -0.0623 -2.8286 -3.4897
 3552SOL    HW222635   4.065   7.573   3.845 -1.1554 -0.6449 -2.9433
 3553SOL     OW22636   2.257   3.953   4.173 -0.1273  0.0032  0.8459
 3553SOL    HW122637   2.288   3.965   4.263 -1.9085  0.0645  1.4920
 3553SOL    HW222638   2.171   3.996   4.171  0.9772  2.4134 -1.6387
 3554SOL     OW22639   1.950   4.616   4.480 -0.1669 -0.3750  0.2459
 3554SOL    HW122640   1.883   4.661   4.429 -1.0538 -0.6500  1.1255
 3554SOL    HW222641   2.023   4.604   4.419 -0.9647 -0.1833 -0.7774
 3555SOL     OW22642   0.485  10.241   7.180  0.1323  0.4010  0.0183
 3555SOL    HW122643   0.408  10.295   7.199 -0.9588 -1.0322 -0.1383
 3555SOL    HW222644   0.463  10.194   7.100  1.4022  0.3572 -0.3301
 3556SOL     OW22645   3.778   2.683   6.188  0.0871 -0.3213  0.0466
 3556SOL    HW122646   3.822   2.649   6.266  0.5190  0.4121  0.1332
 3556SOL    HW222647   3.815   2.634   6.115  2.1249  1.2281 -0.0368
 3557SOL     OW22648   7.559   2.186   6.088  0.0222  0.6126 -0.2921
 3557SOL    HW122649   7.556   2.134   6.169 -0.0402 -1.2658 -1.4364
 3557SOL    HW222650   7.651   2.187   6.063  0.0871  1.4712 -0.0344
 3558SOL     OW22651   6.685   0.096   3.564 -1.0588  0.3383  0.3929
 3558SOL    HW122652   6.764   0.052   3.595 -0.9141  1.0324  1.0326
 3558SOL    HW222653   6.717   0.169   3.511 -1.2688  0.5951  0.6184
 3559SOL     OW22654   5.900   0.196   6.873 -0.2982  0.3392 -0.9104
 3559SOL    HW122655   5.991   0.227   6.875 -0.1269 -0.1635 -0.7702
 3559SOL    HW222656   5.907   0.102   6.854 -0.8051  0.3647 -1.2456
 3560SOL     OW22657   4.487   7.261   0.750 -0.1217  0.0954  0.3919
 3560SOL    HW122658   4.524   7.307   0.826  1.4773 -0.3937 -0.0557
 3560SOL    HW222659   4.508   7.169   0.765  1.2887  0.1139 -1.1861
 3561SOL     OW22660   3.721   0.277   7.301 -0.1824  0.3555  0.2015
 3561SOL    HW122661   3.782   0.222   7.349  0.2544 -0.3074 -1.0576
 3561SOL    HW222662   3.636   0.237   7.315  0.1012 -0.5309 -0.5039
 3562SOL     OW22663  10.163   8.890   5.308  0.1426 -0.1351  0.5794
 3562SOL    HW122664  10.215   8.822   5.351  0.3932 -0.7824 -0.6905
 3562SOL    HW222665  10.109   8.926   5.377 -1.2543 -2.8170  1.0293
 3563SOL     OW22666   4.519   8.591   0.198 -0.0011  0.2865 -0.4099
 3563SOL    HW122667   4.581   8.651   0.157  1.2358 -0.3004  0.5424
 3563SOL    HW222668   4.573   8.522   0.236 -1.2879 -0.6114 -0.1306
 3564SOL     OW22669   9.133   6.604   9.037  0.0627  0.0800 -0.4075
 3564SOL    HW122670   9.102   6.574   9.123 -0.4617 -0.2518 -0.7034
 3564SOL    HW222671   9.105   6.535   8.977  1.5870 -0.3293 -0.6640
 3565SOL     OW22672   1.502   0.967   3.889 -0.2523  0.0631  0.1764
 3565SOL    HW122673   1.451   0.966   3.808 -0.7993  0.9308  0.4959
 3565SOL    HW222674   1.576   0.908   3.872 -1.6092 -1.6444 -0.1321
 3566SOL     OW22675   1.272   6.356   6.059  0.6145  0.2592  0.0047
 3566SOL    HW122676   1.367   6.362   6.045  0.8429  1.3508  1.7007
 3566SOL    HW222677   1.258   6.401   6.142 -1.3894 -0.0368 -0.1405
 3567SOL     OW22678   0.028   6.634   2.860  0.5977  0.5325  0.3244
 3567SOL    HW122679  -0.064   6.607   2.860 -0.5389  3.7667 -1.2873
 3567SOL    HW222680   0.040   6.681   2.942  0.5156  0.8529  0.1570
 3568SOL     OW22681  10.369   1.606   5.892  0.2237  0.0646  0.1863
 3568SOL    HW122682  10.339   1.697   5.892  2.2146  0.7806  0.3459
 3568SOL    HW222683  10.455   1.609   5.935  0.3002 -1.9130  0.2775
 3569SOL     OW22684  10.261  10.244   7.517 -0.1167  0.4190  0.1323
 3569SOL    HW122685  10.213  10.326   7.527 -2.6366 -1.2227  4.3434
 3569SOL    HW222686  10.345  10.260   7.561 -0.9252  0.5964  1.6795
 3570SOL     OW22687   7.150   9.642   3.788 -0.1509  0.3698  0.6366
 3570SOL    HW122688   7.116   9.726   3.819  2.1621  1.0530  1.5430
 3570SOL    HW222689   7.204   9.664   3.713 -2.2605 -0.7956 -1.3456
 3571SOL     OW22690   5.271   1.988   0.951 -0.1773  0.3863  0.1239
 3571SOL    HW122691   5.201   2.039   0.910  0.0423 -0.1878 -1.0048
 3571SOL    HW222692   5.237   1.899   0.954  1.2603 -0.3444 -2.4221
 3572SOL     OW22693   9.610   0.456   9.933  0.2239  0.1423 -0.0820
 3572SOL    HW122694   9.524   0.457   9.976 -0.0956  0.2612 -0.7112
 3572SOL    HW222695   9.673   0.457  10.005 -0.2983 -1.0634  0.4223
 3573SOL     OW22696   6.698   5.386   0.333 -0.0521  0.9542 -0.1066
 3573SOL    HW122697   6.619   5.358   0.378 -0.0900  3.5889  1.6716
 3573SOL    HW222698   6.710   5.478   0.359  2.0969  1.4695 -2.4685
 3574SOL     OW22699   9.007   3.012   0.326  0.3647 -0.3012  0.1740
 3574SOL    HW122700   8.974   2.961   0.252 -0.8669 -1.6975  1.5793
 3574SOL    HW222701   9.093   2.974   0.345  0.6058 -0.0585 -0.4219
 3575SOL     OW22702   0.283   5.942   9.678 -0.3651 -0.1851 -0.6351
 3575SOL    HW122703   0.347   6.006   9.709 -0.2691 -0.1991 -0.7990
 3575SOL    HW222704   0.335   5.875   9.633 -0.3148 -1.2018  0.8745
 3576SOL     OW22705   0.431   5.155   7.286 -0.0883  0.3211  0.4055
 3576SOL    HW122706   0.526   5.147   7.274 -0.1744 -0.5782  0.3182
 3576SOL    HW222707   0.422   5.201   7.369  0.4247  0.1875  0.5397
 3577SOL     OW22708   3.472   1.102   2.033  0.1869  0.0406  0.1971
 3577SOL    HW122709   3.441   1.034   1.974 -0.6658  0.9096 -0.3983
 3577SOL    HW222710   3.422   1.180   2.008  2.5224  1.4154 -0.4934
 3578SOL     OW22711   0.991   8.663   4.389  0.0292  0.4299  0.2177
 3578SOL    HW122712   1.032   8.741   4.427  0.7912  0.5688 -0.8378
 3578SOL    HW222713   1.052   8.592   4.410 -0.0134  0.3490  0.0677
 3579SOL     OW22714   1.118   7.875   9.843  0.2954 -0.2170  0.1305
 3579SOL    HW122715   1.191   7.935   9.854  1.0454 -1.0496 -0.1933
 3579SOL    HW222716   1.051   7.907   9.904  0.8853  0.6091  0.3601
 3580SOL     OW22717   3.437   9.828   0.675  0.1192 -0.0348  0.7848
 3580SOL    HW122718   3.353   9.866   0.649 -0.7889 -2.5252 -0.1981
 3580SOL    HW222719   3.487   9.822   0.593  0.3905 -0.6020  0.9882
 3581SOL     OW22720   7.715   9.119   5.169 -0.2206 -0.6593 -0.3016
 3581SOL    HW122721   7.642   9.078   5.124  0.1130 -1.8297  0.1995
 3581SOL    HW222722   7.786   9.056   5.164 -0.2404 -0.9787  2.0596
 3582SOL     OW22723   1.760   1.674   6.373 -0.3689 -0.5319  0.2398
 3582SOL    HW122724   1.799   1.613   6.435 -2.4681 -0.8640  1.3175
 3582SOL    HW222725   1.791   1.643   6.287  3.0588  0.2996  1.0395
 3583SOL     OW22726   4.668   3.832   1.724  0.4332  0.1903  0.1079
 3583SOL    HW122727   4.667   3.863   1.633  1.9172  0.5526  0.1851
 3583SOL    HW222728   4.740   3.769   1.726  0.5879  0.3946  1.0969
 3584SOL     OW22729   5.827   7.149  10.088  0.6794 -0.0080  0.3663
 3584SOL    HW122730   5.806   7.151   9.995  0.1708 -1.2792  0.4460
 3584SOL    HW222731   5.921   7.170  10.092  0.7706 -0.2424 -0.4466
 3585SOL     OW22732   1.347   5.010   9.292 -0.2066  0.0598  0.3363
 3585SOL    HW122733   1.338   5.011   9.197 -0.4542  0.8952  0.3651
 3585SOL    HW222734   1.414   5.076   9.311  1.4712 -1.6060  0.5968
 3586SOL     OW22735   2.560   1.195  10.145 -0.1767  0.4663  0.1365
 3586SOL    HW122736   2.510   1.177  10.225 -0.8182 -0.4330 -0.4498
 3586SOL    HW222737   2.520   1.275  10.109  0.0692  0.8332  0.6604
 3587SOL     OW22738   1.682   0.863   5.658 -0.0440  0.1687  0.1329
 3587SOL    HW122739   1.646   0.784   5.619 -1.0511  0.5142  0.3447
 3587SOL    HW222740   1.606   0.919   5.674  0.7090  1.5546 -0.8486
 3588SOL     OW22741   7.215   8.787   6.626 -0.1043 -0.1311 -1.0114
 3588SOL    HW122742   7.175   8.820   6.706 -0.0049 -1.0478 -0.5650
 3588SOL    HW222743   7.140   8.757   6.573 -0.0924 -1.0668 -0.5338
 3589SOL     OW22744   4.917   5.215   6.950 -0.3840  0.1706  0.1887
 3589SOL    HW122745   4.977   5.289   6.959 -1.3636  1.2205 -1.4157
 3589SOL    HW222746   4.833   5.255   6.931 -0.7475 -1.3619 -1.7006
 3590SOL     OW22747   7.267   3.179   4.864  0.3777  0.1714 -0.2143
 3590SOL    HW122748   7.346   3.232   4.870  0.0575  0.5085  1.5261
 3590SOL    HW222749   7.295   3.091   4.890  0.5901 -0.1936 -1.6173
 3591SOL     OW22750   8.571   7.596   7.044 -0.3575  0.0409  0.0273
 3591SOL    HW122751   8.497   7.539   7.066 -0.8829  0.8301  0.3079
 3591SOL    HW222752   8.572   7.663   7.112  0.1261  0.4980 -0.4178
 3592SOL     OW22753   8.838   6.495   2.924 -0.3162 -0.1263 -0.6181
 3592SOL    HW122754   8.776   6.431   2.959 -0.7359  0.1546 -0.8281
 3592SOL    HW222755   8.916   6.486   2.978 -0.0248 -1.4648 -1.2387
 3593SOL     OW22756   9.241   1.454   0.563  0.2462 -0.4079 -0.5392
 3593SOL    HW122757   9.236   1.538   0.517 -1.7871  0.9194  1.8584
 3593SOL    HW222758   9.274   1.476   0.650 -0.4760 -2.0660  0.1910
 3594SOL     OW22759   1.600   8.182   8.954 -0.2151 -0.0699 -0.0926
 3594SOL    HW122760   1.565   8.157   9.039  2.8751 -0.1679  1.3148
 3594SOL    HW222761   1.583   8.107   8.897  0.3758 -1.3314  1.3403
 3595SOL     OW22762   9.655   1.872   8.164 -0.5908  0.2044 -0.2779
 3595SOL    HW122763   9.682   1.813   8.093  0.1077 -0.6019  0.6235
 3595SOL    HW222764   9.668   1.820   8.243 -1.4305  1.0669  0.4349
 3596SOL     OW22765   0.869  10.254   5.816 -0.4872 -0.7569  0.0908
 3596SOL    HW122766   0.849  10.251   5.909 -1.5599 -1.5690 -0.1371
 3596SOL    HW222767   0.902  10.167   5.795  0.0579 -0.4800 -0.2356
 3597SOL     OW22768   7.530   4.706   6.147 -0.1740  0.5687  0.5259
 3597SOL    HW122769   7.572   4.788   6.171 -1.3636  1.5268 -0.5600
 3597SOL    HW222770   7.454   4.701   6.206 -0.4859  0.5929  0.1252
 3598SOL     OW22771   1.743   2.496   6.515  0.8139 -0.4607 -0.2101
 3598SOL    HW122772   1.794   2.543   6.581  1.5566 -1.1888 -0.2531
 3598SOL    HW222773   1.654   2.492   6.551  0.0807  3.0227 -1.2089
 3599SOL     OW22774   1.101   6.482   8.887  0.4339  0.8237  0.0238
 3599SOL    HW122775   1.007   6.467   8.877  0.4588  1.7917 -2.3237
 3599SOL    HW222776   1.107   6.572   8.918  0.5952  0.3643  1.3893
 3600SOL     OW22777   6.322   8.734   8.013 -0.0413  0.1532 -0.5465
 3600SOL    HW122778   6.305   8.694   8.098  1.7266  0.5670  0.0520
 3600SOL    HW222779   6.291   8.824   8.021  0.3787  0.2723 -0.2368
 3601SOL     OW22780   3.231   6.385   6.100  0.6194  0.6869 -0.0373
 3601SOL    HW122781   3.144   6.407   6.132  0.8748  1.0055  0.4532
 3601SOL    HW222782   3.253   6.457   6.040  1.5014  1.8836  1.6547
 3602SOL     OW22783   4.627   1.760   2.456  0.5182  0.2005 -0.0501
 3602SOL    HW122784   4.709   1.714   2.473  0.6786  0.7765  0.8103
 3602SOL    HW222785   4.649   1.826   2.391  0.8472  0.6228  0.4764
 3603SOL     OW22786   8.746   3.723   2.161 -0.1759 -0.5236  0.0035
 3603SOL    HW122787   8.742   3.771   2.078  2.1487 -1.1343 -0.5269
 3603SOL    HW222788   8.720   3.787   2.227 -0.4518  0.4529 -1.0140
 3604SOL     OW22789   9.367   6.268   7.639  0.1804  0.0205 -0.5170
 3604SOL    HW122790   9.300   6.200   7.642  0.7765 -0.6302 -1.3081
 3604SOL    HW222791   9.359   6.314   7.723 -0.9145 -0.3581 -0.4049
 3605SOL     OW22792   1.750   8.399   0.509 -0.3607  0.0629  0.1805
 3605SOL    HW122793   1.790   8.314   0.527 -0.7444 -0.0500  0.4978
 3605SOL    HW222794   1.806   8.437   0.440  1.0793  0.4611  1.5073
 3606SOL     OW22795   6.764   1.180   7.786 -0.2212  0.4478  0.6290
 3606SOL    HW122796   6.792   1.204   7.698  0.5872  0.6003  0.9221
 3606SOL    HW222797   6.836   1.128   7.822 -0.5980  0.2698  1.1509
 3607SOL     OW22798   6.938   1.137   2.564  0.2852 -0.3026  0.0780
 3607SOL    HW122799   6.885   1.087   2.626  1.4158 -1.6137  0.0272
 3607SOL    HW222800   6.994   1.072   2.522 -0.1880  0.5947 -2.1022
 3608SOL     OW22801  10.103   1.801   3.501 -0.0701 -0.3690  0.0180
 3608SOL    HW122802  10.090   1.893   3.481  0.4727 -0.6420 -1.7567
 3608SOL    HW222803  10.017   1.761   3.491  0.2192 -0.5350 -2.1750
 3609SOL     OW22804   5.123   9.785   9.691 -0.8283 -0.1006  0.3093
 3609SOL    HW122805   5.147   9.756   9.779  1.0439  0.9049  0.1887
 3609SOL    HW222806   5.056   9.852   9.705 -0.2092  0.3818  0.9995
 3610SOL     OW22807   6.061   8.998   5.462 -0.2962 -0.4773 -0.3380
 3610SOL    HW122808   6.132   9.062   5.476 -0.9670 -0.1076  1.5716
 3610SOL    HW222809   6.056   8.990   5.366  0.3645  1.7218 -0.6257
 3611SOL     OW22810   3.653   7.856   1.102  0.2931 -0.3792  0.5089
 3611SOL    HW122811   3.587   7.879   1.167 -0.3902  0.7013 -0.5416
 3611SOL    HW222812   3.736   7.858   1.151 -0.2243  0.1767  1.3961
 3612SOL     OW22813   6.183   9.519   8.747  0.1342 -0.5375  0.1370
 3612SOL    HW122814   6.120   9.538   8.817  1.4525  0.1458  1.1817
 3612SOL    HW222815   6.213   9.431   8.766  0.5619 -0.3163  0.4953
 3613SOL     OW22816   6.222   0.874   2.975 -0.0312  0.7655 -0.3077
 3613SOL    HW122817   6.158   0.836   3.035 -0.3214  0.1571 -0.9873
 3613SOL    HW222818   6.292   0.809   2.971  1.0512  1.7879  1.0707
 3614SOL     OW22819   6.527   6.141   7.448  0.2755  0.0070  0.3761
 3614SOL    HW122820   6.571   6.161   7.531  0.7222 -0.4707  0.2617
 3614SOL    HW222821   6.473   6.064   7.468 -0.1501  0.3102  0.3973
 3615SOL     OW22822   1.541   3.448   8.050 -0.0579 -0.7192  0.3000
 3615SOL    HW122823   1.453   3.448   8.011 -0.2742  0.2880  0.7643
 3615SOL    HW222824   1.576   3.535   8.030  0.6244 -0.9206  0.6036
 3616SOL     OW22825   2.154   7.240   0.158  0.2639 -0.5520  0.0236
 3616SOL    HW122826   2.063   7.263   0.177 -0.0211 -0.9187 -0.8433
 3616SOL    HW222827   2.197   7.239   0.243 -0.7161 -1.1035  0.5260
 3617SOL     OW22828   1.274   3.056   7.558  0.1623 -0.0991  0.1283
 3617SOL    HW122829   1.247   2.987   7.497 -0.6190 -0.0934  0.4487
 3617SOL    HW222830   1.192   3.087   7.597  0.4436  1.4043 -0.4082
 3618SOL     OW22831   3.803   2.114   5.060  0.0664 -0.1178 -0.2920
 3618SOL    HW122832   3.825   2.030   5.020 -0.3703  0.0611 -0.9317
 3618SOL    HW222833   3.873   2.173   5.033  0.0253 -0.1170 -0.3985
 3619SOL     OW22834   3.648   1.558   8.658 -0.6060  0.4706 -0.0603
 3619SOL    HW122835   3.654   1.622   8.728 -0.2919  0.4596 -0.0767
 3619SOL    HW222836   3.557   1.529   8.659 -0.1767 -1.0065  1.6609
 3620SOL     OW22837  10.041   0.193   8.444  0.5688  0.6641 -0.1035
 3620SOL    HW122838  10.083   0.254   8.504  0.6337  0.2105  0.3160
 3620SOL    HW222839  10.113   0.156   8.393  0.4628  1.4804 -0.8847
 3621SOL     OW22840   9.284   0.558   9.742  0.1945 -0.0988  0.4552
 3621SOL    HW122841   9.316   0.527   9.657 -1.0351  0.6960 -0.3365
 3621SOL    HW222842   9.240   0.482   9.780 -0.6331 -0.0442 -0.3545
 3622SOL     OW22843  10.130   5.255   5.207  0.4022 -0.0249  0.0129
 3622SOL    HW122844  10.191   5.308   5.155 -0.9955  1.0831 -0.6002
 3622SOL    HW222845  10.052   5.248   5.151  0.8782 -3.7376 -0.4231
 3623SOL     OW22846   4.824   1.127   7.877 -0.3784 -0.3571  0.3679
 3623SOL    HW122847   4.821   1.089   7.965  1.3449 -0.1314  0.5545
 3623SOL    HW222848   4.810   1.052   7.818  0.0763 -0.7853  0.7940
 3624SOL     OW22849   4.376   8.387   5.215 -0.3229 -0.2919  0.0936
 3624SOL    HW122850   4.449   8.380   5.153 -0.1154 -1.8034  0.4634
 3624SOL    HW222851   4.418   8.385   5.301 -0.6116  1.7321  0.3255
 3625SOL     OW22852   3.396   2.488   4.610 -0.0925 -0.1740  0.4824
 3625SOL    HW122853   3.391   2.452   4.699  1.3656  1.1759  1.1708
 3625SOL    HW222854   3.480   2.533   4.608 -0.8031  1.1628 -1.0966
 3626SOL     OW22855   5.845   2.497   7.776  0.1741  0.1335  0.1437
 3626SOL    HW122856   5.764   2.476   7.728  0.4366  0.7990 -0.6009
 3626SOL    HW222857   5.915   2.467   7.719  0.4671 -1.2310  1.1645
 3627SOL     OW22858   6.012   5.162   9.530 -0.0045 -0.2977 -0.2154
 3627SOL    HW122859   5.942   5.208   9.484  0.4855 -1.2627 -1.9945
 3627SOL    HW222860   5.968   5.089   9.574 -0.1684 -0.7683 -1.1400
 3628SOL     OW22861   3.983   9.309   0.821 -0.0031  0.2109 -0.3356
 3628SOL    HW122862   3.897   9.294   0.781  0.1406  1.4374 -1.1365
 3628SOL    HW222863   3.969   9.289   0.914 -0.0219 -3.9300 -1.0239
 3629SOL     OW22864   2.482   0.351   6.962  0.4522 -0.2052  0.0892
 3629SOL    HW122865   2.524   0.429   6.998 -0.2656  0.4949 -0.5408
 3629SOL    HW222866   2.555   0.295   6.935  1.0502 -0.9851  2.9455
 3630SOL     OW22867   2.758   8.479   2.827 -0.0047 -0.7449 -0.7029
 3630SOL    HW122868   2.703   8.556   2.816 -0.6215 -0.9323  0.8646
 3630SOL    HW222869   2.770   8.471   2.922  0.7445 -2.0946 -0.8882
 3631SOL     OW22870   6.941  10.145   3.111 -0.1702  0.1631  0.3034
 3631SOL    HW122871   6.846  10.160   3.115  0.1483  2.1816  1.5680
 3631SOL    HW222872   6.959  10.134   3.018 -1.7175 -0.9363  0.0868
 3632SOL     OW22873   1.159   9.091   5.468 -0.3046 -0.1188  0.3514
 3632SOL    HW122874   1.088   9.086   5.532 -0.0956 -0.0333  0.5881
 3632SOL    HW222875   1.237   9.062   5.515 -0.0350  0.5374  0.3115
 3633SOL     OW22876   8.443   7.228   9.733 -0.3699  0.6327 -0.1351
 3633SOL    HW122877   8.479   7.312   9.761 -0.4315  0.8606 -0.7353
 3633SOL    HW222878   8.349   7.237   9.744 -0.4190  0.8331 -0.7044
 3634SOL     OW22879   4.330  10.000   6.319 -0.3761  0.0543 -0.4995
 3634SOL    HW122880   4.418  10.007   6.284  0.1503 -0.3614  0.7068
 3634SOL    HW222881   4.304   9.909   6.303  1.3370 -1.3268  3.3962
 3635SOL     OW22882   6.812   9.161   4.627  0.4192 -0.1433 -0.5707
 3635SOL    HW122883   6.738   9.200   4.581  0.8507  0.4130 -0.8003
 3635SOL    HW222884   6.886   9.169   4.566  1.1869  1.2826  0.4894
 3636SOL     OW22885  10.081   5.518   6.694 -0.6687  0.1775  0.1511
 3636SOL    HW122886   9.996   5.515   6.651 -0.6838 -1.0063  0.2439
 3636SOL    HW222887  10.113   5.429   6.690  0.7095  0.6675 -0.1266
 3637SOL     OW22888   3.506   8.897  10.327  0.4808  0.1348 -0.8704
 3637SOL    HW122889   3.484   8.843  10.251  1.9256 -1.4921 -0.2167
 3637SOL    HW222890   3.548   8.836  10.388  1.0334  1.7640  0.4590
 3638SOL     OW22891   3.954   7.859   5.352 -0.0274  0.1434  0.3179
 3638SOL    HW122892   3.879   7.909   5.318  0.9197  1.6192  0.3307
 3638SOL    HW222893   4.030   7.912   5.329  1.0141 -1.2386  0.4839
 3639SOL     OW22894  10.036   9.708   3.634  0.2295  0.0214 -0.0045
 3639SOL    HW122895   9.956   9.718   3.582  0.1359  0.6419  0.2525
 3639SOL    HW222896  10.107   9.710   3.570  0.0684 -0.0278 -0.1862
 3640SOL     OW22897   4.573   2.363  10.381  0.1740  0.5430  0.0636
 3640SOL    HW122898   4.667   2.363  10.400  0.3823 -2.2876 -0.4206
 3640SOL    HW222899   4.568   2.333  10.290 -1.2122  0.2641  0.2208
 3641SOL     OW22900   5.688   5.569   8.241 -0.1841 -0.2089 -0.5972
 3641SOL    HW122901   5.748   5.602   8.308 -0.4274  0.9086 -0.9120
 3641SOL    HW222902   5.647   5.492   8.281  2.3792 -1.8239 -0.8257
 3642SOL     OW22903   0.144   7.452   3.371  0.1224 -0.3825  0.0460
 3642SOL    HW122904   0.074   7.389   3.354 -0.7880 -0.0134  2.0960
 3642SOL    HW222905   0.115   7.532   3.328 -1.3653  0.1002  1.7990
 3643SOL     OW22906   5.592   5.804   3.447 -0.1124 -0.0084  0.8482
 3643SOL    HW122907   5.637   5.817   3.364 -2.1487  2.2563 -0.0081
 3643SOL    HW222908   5.662   5.790   3.510  1.5504 -0.5101 -1.0244
 3644SOL     OW22909   6.942   8.724   4.793  0.2478  0.9257 -0.0237
 3644SOL    HW122910   6.973   8.649   4.844  2.0682  1.4045 -0.3341
 3644SOL    HW222911   6.868   8.759   4.842  1.0077  0.4622  1.4899
 3645SOL     OW22912   1.131   6.974   1.936  0.5015 -0.5279 -0.5149
 3645SOL    HW122913   1.215   7.011   1.909  0.3691 -0.9097 -1.4796
 3645SOL    HW222914   1.066   7.030   1.894  0.2812 -0.8516 -0.6089
 3646SOL     OW22915   0.047   2.557   1.958  0.0596  0.5785  0.5017
 3646SOL    HW122916   0.115   2.502   1.998 -1.3324 -1.2863  0.4535
 3646SOL    HW222917   0.093   2.607   1.890  1.1943 -1.6246 -0.4612
 3647SOL     OW22918   2.094   9.782   4.648  0.5628 -0.6789  0.2185
 3647SOL    HW122919   2.151   9.715   4.610 -0.2890 -0.9000 -0.6918
 3647SOL    HW222920   2.012   9.737   4.667  0.2924 -0.0992  0.4682
 3648SOL     OW22921   6.542   0.018   9.926 -0.5676  0.1188  0.2517
 3648SOL    HW122922   6.540  -0.071   9.891 -1.6044  0.3258 -0.2410
 3648SOL    HW222923   6.565   0.073   9.852 -1.3717  0.4071  0.2063
 3649SOL     OW22924   9.175   9.400   5.056 -0.0857 -0.0413  0.2524
 3649SOL    HW122925   9.120   9.333   5.014 -0.4858 -0.8894  2.0307
 3649SOL    HW222926   9.247   9.350   5.096  0.1388  0.6982  0.7839
 3650SOL     OW22927  10.191   7.500   1.838 -0.0903 -0.5892  0.3448
 3650SOL    HW122928  10.249   7.431   1.808 -1.2609 -0.0376 -3.7040
 3650SOL    HW222929  10.111   7.489   1.787 -1.1649  2.4321  1.1334
 3651SOL     OW22930   9.636  10.318   5.746 -0.1166  0.5626  0.5182
 3651SOL    HW122931   9.614  10.310   5.839 -0.9707 -0.8712  0.2265
 3651SOL    HW222932   9.643  10.228   5.715 -0.7315  0.9985 -1.0033
 3652SOL     OW22933   2.939   8.740   9.311 -1.0457 -0.6373 -0.3681
 3652SOL    HW122934   2.871   8.790   9.356 -0.9811  0.2065 -1.1850
 3652SOL    HW222935   2.924   8.649   9.339 -1.8304 -0.3144  0.2991
 3653SOL     OW22936   6.828   2.609   9.064 -0.3216 -0.3471 -0.3642
 3653SOL    HW122937   6.821   2.524   9.107 -1.3148  0.1029  0.3887
 3653SOL    HW222938   6.917   2.639   9.085 -0.3677 -0.6850  0.3491
 3654SOL     OW22939   7.358   0.299   5.546  0.1909  0.2597  0.0077
 3654SOL    HW122940   7.432   0.357   5.525 -0.2867  1.0567  0.4657
 3654SOL    HW222941   7.309   0.346   5.614 -0.8671 -0.1642 -0.4412
 3655SOL     OW22942   4.109   0.442   5.399  0.6251 -0.0651  0.6930
 3655SOL    HW122943   4.169   0.512   5.372 -0.6215  0.7966  0.0371
 3655SOL    HW222944   4.094   0.458   5.492  2.0200 -0.7902  1.0739
 3656SOL     OW22945   6.178   2.928   6.271 -0.2217  0.0745 -0.3289
 3656SOL    HW122946   6.105   2.960   6.218 -0.1069  0.4367 -0.2740
 3656SOL    HW222947   6.180   2.987   6.346 -0.2791 -0.3358 -0.0006
 3657SOL     OW22948   0.241   3.448   2.526 -0.0722  0.4009  0.3529
 3657SOL    HW122949   0.227   3.540   2.503 -0.9155  0.3500  0.6140
 3657SOL    HW222950   0.227   3.400   2.445  0.8378  0.5345  0.1088
 3658SOL     OW22951   0.268   5.205   6.445 -0.8395  0.3021 -0.1511
 3658SOL    HW122952   0.260   5.301   6.448  1.7655  0.5861 -0.0852
 3658SOL    HW222953   0.356   5.189   6.412 -1.7024 -2.1365 -1.5404
 3659SOL     OW22954   0.499   9.727   4.175 -0.6365  0.2756  0.0405
 3659SOL    HW122955   0.407   9.749   4.158 -1.0270  1.4871  3.0408
 3659SOL    HW222956   0.537   9.807   4.211  1.5462 -0.3047 -0.7973
 3660SOL     OW22957   2.583   6.590   8.480  0.3843  0.7129 -0.6083
 3660SOL    HW122958   2.608   6.503   8.448 -1.8752  0.0463 -0.7382
 3660SOL    HW222959   2.501   6.609   8.435  0.3217  2.4809  0.1912
 3661SOL     OW22960   5.917   7.454   7.498  0.0600  0.4663  0.1231
 3661SOL    HW122961   5.970   7.408   7.432 -0.9290 -0.3348 -0.1332
 3661SOL    HW222962   5.841   7.397   7.512  1.1872 -0.3978  3.4754
 3662SOL     OW22963   6.496   0.261   0.717 -0.4569  0.3941  0.2171
 3662SOL    HW122964   6.587   0.291   0.721 -0.6157  0.9804 -0.4181
 3662SOL    HW222965   6.483   0.216   0.800  0.1750  1.0165  0.6745
 3663SOL     OW22966   7.568   2.236   2.097 -0.2542 -0.2734 -0.0965
 3663SOL    HW122967   7.648   2.224   2.147  0.7919  0.2766 -1.5909
 3663SOL    HW222968   7.568   2.165   2.033 -2.0791 -1.5695  1.2159
 3664SOL     OW22969   5.774   7.337   1.414  0.1117  0.2706  0.3160
 3664SOL    HW122970   5.850   7.377   1.456 -0.9195 -1.0194  3.7844
 3664SOL    HW222971   5.747   7.400   1.348  2.0652  2.4311  1.4353
 3665SOL     OW22972   8.424   0.171   8.438 -0.0651 -0.1809 -0.0814
 3665SOL    HW122973   8.501   0.223   8.415  0.1448 -1.3004 -2.1610
 3665SOL    HW222974   8.450   0.123   8.516  1.3896 -0.5869 -0.7900
 3666SOL     OW22975   0.544   1.599   7.922 -0.0410 -0.4949 -0.5730
 3666SOL    HW122976   0.480   1.669   7.939  0.6829  0.5322 -1.8517
 3666SOL    HW222977   0.599   1.598   8.000 -1.0309 -0.7284  0.1300
 3667SOL     OW22978   4.884   7.868   3.217  0.1986 -0.1194 -0.3483
 3667SOL    HW122979   4.928   7.944   3.178  0.3163 -1.2735 -2.6741
 3667SOL    HW222980   4.791   7.892   3.219  0.5432  1.2729  2.0063
 3668SOL     OW22981   2.232   9.330  10.298 -0.0473 -0.3240  0.2747
 3668SOL    HW122982   2.249   9.360  10.387  0.1356  1.2511 -0.2449
 3668SOL    HW222983   2.318   9.304  10.264 -0.1319 -1.0133  0.5790
 3669SOL     OW22984   5.071   7.695   3.210 -0.5684  0.9661 -0.0271
 3669SOL    HW122985   5.004   7.763   3.215 -0.2917  1.2239  0.2216
 3669SOL    HW222986   5.091   7.674   3.301 -0.1316  1.0702 -0.0943
 3670SOL     OW22987   1.389   9.651   5.217 -0.0902 -0.8296 -0.1111
 3670SOL    HW122988   1.301   9.683   5.200 -0.1784 -1.1157 -0.1946
 3670SOL    HW222989   1.417   9.700   5.295 -0.8395 -1.7035  0.7311
 3671SOL     OW22990   2.064   6.521   4.665 -0.4510  0.6282  0.0416
 3671SOL    HW122991   2.046   6.529   4.758  1.1960 -1.2215  0.6007
 3671SOL    HW222992   2.129   6.589   4.647  0.4491 -0.0424  0.6599
 3672SOL     OW22993   4.436   4.993   7.337 -0.5564 -0.1903 -0.3835
 3672SOL    HW122994   4.528   4.970   7.347 -0.8686 -1.5929 -0.6172
 3672SOL    HW222995   4.405   5.009   7.426  0.0072  0.7105 -0.3421
 3673SOL     OW22996   5.486   7.443   7.614 -0.6080  0.2303 -0.1208
 3673SOL    HW122997   5.557   7.503   7.637 -0.7780  0.8800 -1.2006
 3673SOL    HW222998   5.435   7.433   7.694  0.8650 -0.5009  0.7589
 3674SOL     OW22999   9.123   3.033  10.383  0.4794  0.2674 -0.2566
 3674SOL    HW123000   9.189   3.023  10.315  0.3160  1.2994 -0.5789
 3674SOL    HW223001   9.139   3.119  10.421  0.3345 -0.1411  0.7684
 3675SOL     OW23002   2.439   4.520   4.923  0.8215 -0.7283  0.1934
 3675SOL    HW123003   2.499   4.593   4.909  0.9386 -0.8054  0.2985
 3675SOL    HW223004   2.476   4.447   4.873  0.5224 -0.6204 -0.1940
 3676SOL     OW23005   3.185   4.496   6.253  0.1591 -0.0004  0.1288
 3676SOL    HW123006   3.194   4.442   6.331 -0.0038  0.9346  0.8163
 3676SOL    HW223007   3.098   4.475   6.218 -0.4443  0.7397  1.1301
 3677SOL     OW23008   9.187   5.402   0.447 -0.4578 -0.6504  0.0011
 3677SOL    HW123009   9.140   5.484   0.463  2.0135  0.9449 -0.2674
 3677SOL    HW223010   9.123   5.334   0.464 -3.6147  1.3036 -2.7500
 3678SOL     OW23011   9.652   7.646  10.048  0.4057 -0.0074  0.4008
 3678SOL    HW123012   9.703   7.606  10.119  0.5950  1.8843  1.3863
 3678SOL    HW223013   9.562   7.646  10.081  0.2072 -0.6819 -0.1131
 3679SOL     OW23014   5.392   0.891   1.334 -0.0342  0.5929 -0.3014
 3679SOL    HW123015   5.435   0.809   1.310 -0.7469  0.5685 -1.5309
 3679SOL    HW223016   5.438   0.918   1.414 -1.0399 -1.9841  1.2847
 3680SOL     OW23017   3.649   7.301   7.119  0.0445 -0.0820  0.4904
 3680SOL    HW123018   3.611   7.224   7.160  0.9283 -0.3728  0.7797
 3680SOL    HW223019   3.626   7.293   7.026 -1.7728  0.4682  0.8463
 3681SOL     OW23020   1.165   9.706   4.811  0.1652 -0.2989 -0.4196
 3681SOL    HW123021   1.123   9.764   4.748 -3.5526 -0.8003  1.2957
 3681SOL    HW223022   1.189   9.764   4.884  0.4200 -0.3084 -0.4971
 3682SOL     OW23023  10.059   4.232   8.155  0.6096  0.2727 -0.3335
 3682SOL    HW123024   9.972   4.264   8.131  0.6315 -0.7520 -1.9115
 3682SOL    HW223025  10.116   4.264   8.085  1.1621 -0.6500 -0.3190
 3683SOL     OW23026   0.741   1.924   4.640  0.4036 -0.6185  0.3122
 3683SOL    HW123027   0.699   1.908   4.725 -0.3035  1.0170  0.2915
 3683SOL    HW223028   0.669   1.923   4.577  0.7310 -0.2601 -0.0673
 3684SOL     OW23029   4.364   8.275   1.885  0.0798 -0.2016 -0.0668
 3684SOL    HW123030   4.290   8.296   1.828 -0.5040  3.8706  1.8155
 3684SOL    HW223031   4.439   8.319   1.845  0.8055 -1.5568 -0.2488
 3685SOL     OW23032   5.504   9.428   1.260  0.1536  0.7373 -0.7308
 3685SOL    HW123033   5.517   9.439   1.354 -0.5202  0.4585 -0.5999
 3685SOL    HW223034   5.579   9.471   1.220 -0.3628  2.2602 -0.1180
 3686SOL     OW23035   9.745   1.724   9.891  0.0565 -0.6526 -0.1443
 3686SOL    HW123036   9.759   1.638   9.930  1.0182  0.5607  2.3532
 3686SOL    HW223037   9.664   1.756   9.932 -0.5565 -0.5034 -1.4060
 3687SOL     OW23038   5.235   4.150   2.997  0.2288 -0.9111 -0.5845
 3687SOL    HW123039   5.166   4.179   2.936  1.5305  0.5130 -1.4481
 3687SOL    HW223040   5.223   4.205   3.075 -2.5636 -3.9246  1.3619
 3688SOL     OW23041   4.860   9.952   6.976 -0.6059  0.0849 -0.3878
 3688SOL    HW123042   4.893   9.863   6.965  1.1807  0.5141  1.0090
 3688SOL    HW223043   4.811   9.970   6.895 -2.0222 -2.5416 -0.2164
 3689SOL     OW23044   1.368   6.808   5.348 -0.3233 -0.5125 -0.3175
 3689SOL    HW123045   1.460   6.784   5.357 -0.0443  0.6180 -0.0462
 3689SOL    HW223046   1.360   6.842   5.258 -0.2782  0.1789 -0.0672
 3690SOL     OW23047   5.618   7.696   9.925  0.2951  0.0078 -0.6919
 3690SOL    HW123048   5.640   7.734   9.840 -2.5301 -1.1253 -2.0672
 3690SOL    HW223049   5.658   7.609   9.924  1.2951  0.4440 -0.2884
 3691SOL     OW23050   8.457   5.009   7.961 -0.6917  0.5760  0.9196
 3691SOL    HW123051   8.402   4.931   7.963 -1.5228  1.1064 -0.2615
 3691SOL    HW223052   8.397   5.081   7.941  0.5139  1.0301 -1.4437
 3692SOL     OW23053   9.764   0.051  10.193 -0.4785  0.0548  0.7159
 3692SOL    HW123054   9.845   0.068  10.144 -1.2995  2.3791  0.0476
 3692SOL    HW223055   9.783  -0.029  10.243  2.2305  0.5380  0.6174
 3693SOL     OW23056   4.306   4.474   6.802 -0.1345 -0.0350  0.4394
 3693SOL    HW123057   4.384   4.520   6.771  0.0725 -0.4579  0.3164
 3693SOL    HW223058   4.266   4.534   6.865 -0.6245  0.8908 -0.7146
 3694SOL     OW23059   4.452   0.812   0.558 -0.2284 -0.0570  0.2678
 3694SOL    HW123060   4.495   0.857   0.485  0.6017  0.6994  1.1769
 3694SOL    HW223061   4.400   0.743   0.518  1.5345 -0.7453 -0.9274
 3695SOL     OW23062   0.915   5.961   1.063  0.1483  0.4406 -0.1157
 3695SOL    HW123063   0.847   5.909   1.106  1.0614  0.3397  1.2535
 3695SOL    HW223064   0.966   5.897   1.014  0.1961  0.2933  0.1251
 3696SOL     OW23065   3.065   0.418   0.303 -0.0360  0.0092  0.7394
 3696SOL    HW123066   2.976   0.399   0.334 -0.2771 -1.0359 -0.5227
 3696SOL    HW223067   3.052   0.478   0.230  0.3554  0.3427  0.9384
 3697SOL     OW23068   3.028   5.344   4.375 -0.2787 -0.4299 -0.2572
 3697SOL    HW123069   2.981   5.425   4.352  0.9490  0.7262  1.1593
 3697SOL    HW223070   3.115   5.354   4.337 -0.0705 -1.0394  0.0363
 3698SOL     OW23071   0.391   9.053   0.748 -0.4661 -0.1115 -0.2399
 3698SOL    HW123072   0.435   9.044   0.832 -1.3811  0.0621  0.2722
 3698SOL    HW223073   0.353   8.966   0.732 -0.7740  0.0123 -0.1902
 3699SOL     OW23074   6.588   8.300   7.648 -0.2393  0.5108 -0.1875
 3699SOL    HW123075   6.639   8.275   7.571  2.3458  0.6055  1.3880
 3699SOL    HW223076   6.568   8.393   7.634  1.7541  1.0045  0.0199
 3700SOL     OW23077   3.933   7.864   5.866  0.0611 -0.0995  0.2982
 3700SOL    HW123078   3.895   7.811   5.936  0.6986  2.5154  2.8503
 3700SOL    HW223079   3.864   7.927   5.844  0.3715 -0.0019 -0.4372
 3701SOL     OW23080   7.728   0.051   2.575 -0.7080  0.4125 -0.2511
 3701SOL    HW123081   7.820   0.072   2.559 -0.3128 -0.8728  0.1763
 3701SOL    HW223082   7.731  -0.032   2.621 -2.0683  0.6908  0.3831
 3702SOL     OW23083   8.438   7.225   3.362 -0.1348  0.0378 -0.5178
 3702SOL    HW123084   8.343   7.211   3.361  0.0297 -1.6018  1.1994
 3702SOL    HW223085   8.453   7.282   3.438  0.3691 -0.9105  0.1088
 3703SOL     OW23086   9.611   8.266   4.889  0.4332 -0.3600 -0.4366
 3703SOL    HW123087   9.595   8.315   4.808  0.8879 -0.3390 -0.5126
 3703SOL    HW223088   9.653   8.328   4.947  1.8107 -0.8878 -0.8348
 3704SOL     OW23089   5.764   6.120   9.244  0.2257  0.2997  0.6490
 3704SOL    HW123090   5.853   6.151   9.230 -0.0026  0.8563  0.3903
 3704SOL    HW223091   5.764   6.089   9.335  0.5858  0.6394  0.7693
 3705SOL     OW23092   2.166   4.754   5.264 -0.5448 -0.2782 -0.1334
 3705SOL    HW123093   2.108   4.805   5.320 -1.0906 -0.2805 -0.6831
 3705SOL    HW223094   2.125   4.758   5.177  1.2223  1.2792 -0.9700
 3706SOL     OW23095   2.898   7.283   8.694 -0.1665 -0.4591  0.0691
 3706SOL    HW123096   2.867   7.358   8.643 -0.5848 -1.1656 -0.7345
 3706SOL    HW223097   2.992   7.297   8.703 -0.1864 -0.0123 -0.3666
 3707SOL     OW23098   5.522   4.227   0.167 -0.3567 -0.1708 -0.8873
 3707SOL    HW123099   5.548   4.313   0.199 -0.4795 -0.6116  0.4839
 3707SOL    HW223100   5.599   4.171   0.182 -0.8174 -0.6527 -0.2131
 3708SOL     OW23101   9.440   0.066   7.221  0.5616 -0.1221 -0.1079
 3708SOL    HW123102   9.480   0.066   7.134  2.5912 -0.2220  0.7594
 3708SOL    HW223103   9.387  -0.014   7.224  0.6474 -0.2274 -1.1590
 3709SOL     OW23104   0.300  10.234   9.609  0.2711 -0.9370  0.0915
 3709SOL    HW123105   0.349  10.224   9.691  0.7548 -1.3476 -0.2389
 3709SOL    HW223106   0.209  10.217   9.633  0.5507 -2.1555  0.3435
 3710SOL     OW23107   4.976   3.360   6.197 -0.3770 -0.2969 -0.3808
 3710SOL    HW123108   4.995   3.268   6.217 -0.4223 -0.4924 -1.1996
 3710SOL    HW223109   4.890   3.375   6.236 -1.0638 -1.0573 -1.5634
 3711SOL     OW23110   7.094   1.791   6.977  0.1399 -0.0235  0.0332
 3711SOL    HW123111   7.063   1.701   6.964 -0.6229  0.5282 -2.4293
 3711SOL    HW223112   7.018   1.838   7.010  0.2209 -0.0304  0.2321
 3712SOL     OW23113   8.231   8.069   7.024 -0.2145  0.3544 -0.3550
 3712SOL    HW123114   8.279   7.986   7.035 -1.2432 -0.1792  0.3377
 3712SOL    HW223115   8.292   8.136   7.055 -0.7502 -0.5477  3.0789
 3713SOL     OW23116   9.208  10.307   6.126 -1.2309  0.2804 -0.2688
 3713SOL    HW123117   9.236  10.238   6.066 -0.7303 -0.0816  0.3722
 3713SOL    HW223118   9.138  10.352   6.079 -1.0731 -0.2030 -0.9893
 3714SOL     OW23119   9.905   9.151   0.997  0.0275 -0.4483 -0.4309
 3714SOL    HW123120   9.994   9.163   1.028 -0.0767 -1.0911  0.1459
 3714SOL    HW223121   9.913   9.093   0.921 -0.0587 -2.2540  0.8814
 3715SOL     OW23122   4.182   4.478   7.220 -0.3907 -0.3953 -0.1644
 3715SOL    HW123123   4.184   4.516   7.308 -1.6508 -0.7215  0.0263
 3715SOL    HW223124   4.200   4.552   7.162  0.3967 -0.1628  0.3618
 3716SOL     OW23125   0.179   6.464   2.678  0.5378  0.0609 -0.2940
 3716SOL    HW123126   0.243   6.505   2.620  0.9873 -0.7785 -0.4028
 3716SOL    HW223127   0.151   6.535   2.736  0.5450  0.7634 -1.1215
 3717SOL     OW23128   2.928   3.670   1.544 -1.2071  0.5896  0.2939
 3717SOL    HW123129   2.898   3.616   1.617 -0.7382  1.0383  0.8296
 3717SOL    HW223130   3.016   3.638   1.525 -1.4099  0.3350 -0.2146
 3718SOL     OW23131  10.290   6.660   8.994 -0.2248 -0.4538 -0.6696
 3718SOL    HW123132  10.363   6.608   8.962  0.9099  1.2940 -1.0307
 3718SOL    HW223133  10.287   6.736   8.936 -1.8396 -0.0885 -0.1640
 3719SOL     OW23134   9.257   1.273   9.597  0.7711  0.2261 -0.4339
 3719SOL    HW123135   9.233   1.214   9.668  0.8693  1.5003  0.6995
 3719SOL    HW223136   9.193   1.256   9.528 -0.2340  0.0024  0.5338
 3720SOL     OW23137   9.154   7.001   7.410  0.1271  0.0230  0.4947
 3720SOL    HW123138   9.235   7.049   7.394  0.6550 -1.1395 -0.4774
 3720SOL    HW223139   9.183   6.913   7.434 -0.8112  0.2205  2.5964
 3721SOL     OW23140   3.115   3.626   6.235 -0.3445 -1.4297 -0.5337
 3721SOL    HW123141   3.186   3.599   6.294 -0.2429  1.6043  0.9314
 3721SOL    HW223142   3.036   3.587   6.272  0.1028 -1.9093 -0.0718
 3722SOL     OW23143   2.164   2.089   6.928 -0.6508  0.0301 -0.0196
 3722SOL    HW123144   2.098   2.048   6.985 -1.6171  0.4875 -0.7885
 3722SOL    HW223145   2.244   2.089   6.981 -0.9835 -1.5054  0.5452
 3723SOL     OW23146   1.134   8.311   6.945 -0.5155 -0.4623 -0.3480
 3723SOL    HW123147   1.042   8.312   6.917 -1.4294  0.5139  2.3005
 3723SOL    HW223148   1.132   8.266   7.029  0.8797  2.0661  1.1734
 3724SOL     OW23149   4.656   9.422   5.609  0.1580  0.0539 -0.0864
 3724SOL    HW123150   4.584   9.470   5.650 -0.9587 -1.1788 -0.5269
 3724SOL    HW223151   4.704   9.384   5.682 -0.4277 -0.1888  0.1833
 3725SOL     OW23152   6.723   7.863   0.679 -0.4575 -0.3179  0.1392
 3725SOL    HW123153   6.720   7.854   0.583 -1.8580  0.9961  0.0293
 3725SOL    HW223154   6.667   7.792   0.711  0.2384 -0.9365  0.0222
 3726SOL     OW23155   4.109   1.629   0.231 -0.2670  0.3032  0.0227
 3726SOL    HW123156   4.094   1.724   0.227 -0.9212  0.1542 -2.6342
 3726SOL    HW223157   4.203   1.620   0.218 -0.3888  0.5644 -1.1592
 3727SOL     OW23158   4.882   3.864   1.256 -0.3366  0.2443  0.5928
 3727SOL    HW123159   4.818   3.825   1.196  1.6443 -1.2835 -0.6731
 3727SOL    HW223160   4.915   3.941   1.209  1.7798 -1.3863 -0.7684
 3728SOL     OW23161   9.874   4.115  10.080  0.4891 -0.2566  0.3582
 3728SOL    HW123162   9.801   4.150  10.132 -0.2575  0.6601 -1.2343
 3728SOL    HW223163   9.953   4.148  10.122  0.0084 -1.0446  1.9590
 3729SOL     OW23164   6.439   0.810   1.915  0.0628 -0.5203 -0.3427
 3729SOL    HW123165   6.428   0.890   1.864  1.3481  0.5177  0.9429
 3729SOL    HW223166   6.509   0.830   1.977  0.5869 -2.7237 -0.1448
 3730SOL     OW23167   1.970   1.535   6.838 -0.1455  0.3931  0.3847
 3730SOL    HW123168   1.876   1.528   6.853 -0.9490  0.0506 -3.5943
 3730SOL    HW223169   2.006   1.451   6.869 -1.4726 -0.2243  0.3200
 3731SOL     OW23170   2.819   3.591   9.925 -0.2461  0.3471 -0.1859
 3731SOL    HW123171   2.731   3.625   9.939 -0.4869  0.8060 -2.4758
 3731SOL    HW223172   2.839   3.543  10.006 -1.5628  2.3136  1.4257
 3732SOL     OW23173   6.850   8.436   9.676 -0.3500  0.6721 -0.4192
 3732SOL    HW123174   6.827   8.435   9.584 -1.2275 -1.3610 -0.2438
 3732SOL    HW223175   6.767   8.422   9.722  0.3004 -0.1229  0.5696
 3733SOL     OW23176   2.127   1.918   1.590 -1.0367 -0.1482  0.7844
 3733SOL    HW123177   2.040   1.879   1.580 -0.7299 -0.4573 -1.3542
 3733SOL    HW223178   2.171   1.897   1.508  0.3679  1.7131  0.9978
 3734SOL     OW23179   5.545   9.639   0.283 -0.1295 -0.2353  0.1227
 3734SOL    HW123180   5.612   9.634   0.214 -0.1060 -0.3553  0.1543
 3734SOL    HW223181   5.464   9.654   0.235  0.0115  0.5902  0.1245
 3735SOL     OW23182   6.213   3.139   4.632  0.3028 -0.1698  0.1581
 3735SOL    HW123183   6.148   3.087   4.680 -2.0147  2.3273 -0.0236
 3735SOL    HW223184   6.189   3.128   4.540  0.0363  0.8093  0.0925
 3736SOL     OW23185   0.186   0.416   4.494 -0.5652  0.0887  0.2467
 3736SOL    HW123186   0.244   0.477   4.448 -0.1020 -0.0803  0.6036
 3736SOL    HW223187   0.157   0.356   4.426 -0.7200  0.4707 -0.0319
 3737SOL     OW23188   2.225   4.156   6.090  0.3715 -0.4715 -0.2707
 3737SOL    HW123189   2.318   4.146   6.069  0.5489  0.2166  0.1622
 3737SOL    HW223190   2.192   4.066   6.094  1.3134 -0.7985  0.8790
 3738SOL     OW23191   3.299   4.204   6.914  0.5692 -0.3596  0.2249
 3738SOL    HW123192   3.204   4.202   6.906  0.6931 -0.5499 -1.9584
 3738SOL    HW223193   3.325   4.112   6.916  0.7702 -0.3364 -0.7675
 3739SOL     OW23194   6.950   4.453   3.375  0.1379 -0.2288 -0.5223
 3739SOL    HW123195   7.004   4.515   3.424 -1.9166  1.9904 -0.8938
 3739SOL    HW223196   6.981   4.461   3.285  0.0821  0.0169 -0.5202
 3740SOL     OW23197   1.992   7.887   7.631 -0.2384  0.2710 -0.4999
 3740SOL    HW123198   1.917   7.832   7.651 -0.0329  0.6535  1.4882
 3740SOL    HW223199   2.050   7.831   7.579 -0.9983 -0.6589 -0.3715
 3741SOL     OW23200   8.183   9.834   2.501  0.4759  0.2810  0.2836
 3741SOL    HW123201   8.256   9.893   2.519 -0.2163  1.0041  0.7699
 3741SOL    HW223202   8.107   9.891   2.495 -0.0266 -0.4340 -0.4585
 3742SOL     OW23203   3.673   0.105   1.008  0.3482 -0.0818  0.3499
 3742SOL    HW123204   3.702   0.032   0.954  3.2627 -0.0029  1.6469
 3742SOL    HW223205   3.740   0.173   0.996 -1.1349  1.5596  0.8578
 3743SOL     OW23206   2.473   8.505   8.839 -0.2579 -0.2346  0.3325
 3743SOL    HW123207   2.469   8.542   8.751 -1.7889  0.0163  0.4839
 3743SOL    HW223208   2.491   8.412   8.826  0.4118 -0.0339 -0.2012
 3744SOL     OW23209   9.696   6.453   2.812  0.1618 -0.2425  0.0537
 3744SOL    HW123210   9.694   6.357   2.818  0.1774 -0.1909  1.0455
 3744SOL    HW223211   9.612   6.481   2.847  0.0970  0.1160 -0.3703
 3745SOL     OW23212   5.197   0.910   3.963 -0.1022  0.4538  0.1405
 3745SOL    HW123213   5.164   0.937   4.048  0.1092  1.5911 -0.1225
 3745SOL    HW223214   5.172   0.981   3.903  1.9478  0.9140 -0.2405
 3746SOL     OW23215   9.895   2.148   3.997 -0.1707 -0.3731 -0.5583
 3746SOL    HW123216   9.924   2.070   4.045 -0.8308  1.1736  2.6543
 3746SOL    HW223217   9.801   2.136   3.985 -0.2117 -0.2372 -0.3794
 3747SOL     OW23218   9.011   2.407   2.598 -0.2618  0.4247  0.1649
 3747SOL    HW123219   9.091   2.369   2.561  1.1479  1.8986  1.5098
 3747SOL    HW223220   9.043   2.465   2.668 -2.5789  0.2663  1.4407
 3748SOL     OW23221   9.951   1.824   7.782  0.0545 -0.5507  0.2015
 3748SOL    HW123222   9.898   1.766   7.838 -1.0027 -0.0136 -0.2195
 3748SOL    HW223223  10.011   1.765   7.738  0.6518 -1.0389  1.6001
 3749SOL     OW23224   3.063   4.476   2.907  0.4099  0.5609 -0.3145
 3749SOL    HW123225   3.149   4.516   2.890  0.5787  0.0076 -0.8288
 3749SOL    HW223226   3.071   4.387   2.872 -0.3376  0.4648 -0.2605
 3750SOL     OW23227  10.222   1.068   2.489  0.0441  0.4660 -0.3204
 3750SOL    HW123228  10.197   1.059   2.397 -1.6652  1.5541 -0.0112
 3750SOL    HW223229  10.201   1.159   2.511 -1.0354 -0.1720  1.5189
 3751SOL     OW23230   9.387   3.800   4.756 -0.1264 -0.1179  0.2507
 3751SOL    HW123231   9.378   3.720   4.808 -2.2146  0.4856  0.9031
 3751SOL    HW223232   9.369   3.871   4.817 -0.5521  0.7301 -0.8161
 3752SOL     OW23233   5.553   3.228   7.071  0.1089  0.2954 -0.5456
 3752SOL    HW123234   5.648   3.234   7.076  0.1643  0.6471 -1.6742
 3752SOL    HW223235   5.536   3.140   7.039  0.1004  0.4961 -1.1079
 3753SOL     OW23236   9.494   1.330   6.764  0.0452  0.3718  0.2765
 3753SOL    HW123237   9.519   1.359   6.852  2.6690  0.5043 -0.4331
 3753SOL    HW223238   9.548   1.383   6.705 -0.8561 -0.4853 -1.3913
 3754SOL     OW23239   8.006   4.335   6.878  0.0145 -0.4102  0.5594
 3754SOL    HW123240   8.019   4.344   6.783  1.7585 -1.2718  0.6814
 3754SOL    HW223241   8.004   4.425   6.910  0.7143 -0.1301 -0.1468
 3755SOL     OW23242   6.075   2.812   0.046  0.6441 -0.3190 -0.2170
 3755SOL    HW123243   6.026   2.883   0.005  0.4215 -0.8445 -0.8812
 3755SOL    HW223244   6.011   2.742   0.056  0.7837 -0.3260  0.7133
 3756SOL     OW23245   6.228   8.702   3.589 -0.0351  0.4752 -0.1335
 3756SOL    HW123246   6.147   8.752   3.603 -0.6390 -0.8054  1.1518
 3756SOL    HW223247   6.235   8.694   3.493 -2.5692 -1.1315 -0.2889
 3757SOL     OW23248   9.252   9.759   1.823 -0.5478 -0.6956 -0.0522
 3757SOL    HW123249   9.247   9.762   1.728 -0.9879 -0.2710 -0.0241
 3757SOL    HW223250   9.161   9.750   1.852 -0.5910  0.7723  0.3610
 3758SOL     OW23251   4.148  10.317   9.249  0.4014  0.0677 -0.7818
 3758SOL    HW123252   4.095  10.328   9.328 -1.1876  1.6963 -1.9667
 3758SOL    HW223253   4.237  10.307   9.280 -0.3109 -0.4497  1.2393
 3759SOL     OW23254   6.283   3.182   0.123  0.3546  0.2270  0.1713
 3759SOL    HW123255   6.228   3.168   0.046 -1.2713  0.1108  1.2878
 3759SOL    HW223256   6.287   3.096   0.165  0.1184  0.5475  0.8775
 3760SOL     OW23257   8.226   4.849   5.471 -0.0589 -0.2800 -0.7937
 3760SOL    HW123258   8.305   4.873   5.519 -1.7427  1.5838  1.3003
 3760SOL    HW223259   8.256   4.828   5.383  2.7387  0.3266 -0.0729
 3761SOL     OW23260   8.021   7.462   9.795 -0.0774  0.2435 -0.5188
 3761SOL    HW123261   8.100   7.515   9.797  1.0636 -1.3854 -0.6575
 3761SOL    HW223262   7.978   7.480   9.879 -0.0600  1.8060 -0.7996
 3762SOL     OW23263   2.160   8.490   6.854 -0.2280 -0.4443 -0.4215
 3762SOL    HW123264   2.159   8.428   6.927  0.2121  0.1866  0.1249
 3762SOL    HW223265   2.075   8.534   6.858 -0.4636 -0.8678 -0.6928
 3763SOL     OW23266   4.370   9.187   7.848  0.2524 -0.2798  0.3202
 3763SOL    HW123267   4.457   9.225   7.836 -0.0690  0.5381  0.5361
 3763SOL    HW223268   4.364   9.169   7.942 -0.2894  0.8761  0.5234
 3764SOL     OW23269   0.280   6.625   0.114 -0.2493  0.4201 -0.4197
 3764SOL    HW123270   0.185   6.616   0.119 -0.1562  0.1444  1.4948
 3764SOL    HW223271   0.304   6.573   0.037 -1.5813 -0.1675 -0.4759
 3765SOL     OW23272   4.618   2.396   4.554 -0.2522  0.0330 -0.5089
 3765SOL    HW123273   4.616   2.491   4.560 -2.1218 -0.0342  1.2537
 3765SOL    HW223274   4.535   2.373   4.513 -0.0096 -0.8414 -0.5257
 3766SOL     OW23275   4.909   9.064   1.670  0.0008 -0.3018  0.4985
 3766SOL    HW123276   4.996   9.090   1.639 -0.1711 -1.2642 -0.8396
 3766SOL    HW223277   4.920   9.054   1.765  0.7727  1.7499  0.6870
 3767SOL     OW23278   7.561   0.295   0.138 -0.6372 -0.5038  0.0528
 3767SOL    HW123279   7.554   0.267   0.046 -0.6767 -2.1110  0.5241
 3767SOL    HW223280   7.539   0.217   0.189  0.3298  0.0949  1.4433
 3768SOL     OW23281   3.559   5.435   7.910  0.1149 -0.5154 -0.0592
 3768SOL    HW123282   3.558   5.387   7.993  1.3429 -0.2496  0.1315
 3768SOL    HW223283   3.529   5.523   7.933  2.0837  0.0722  0.4884
 3769SOL     OW23284   1.443   4.640   0.551 -0.3754  0.3158 -0.3023
 3769SOL    HW123285   1.521   4.586   0.566 -0.7195  0.6171  3.6615
 3769SOL    HW223286   1.477   4.723   0.518  0.6148 -0.5999 -1.6802
 3770SOL     OW23287   3.606   2.828   9.116 -0.5298 -0.6702 -0.3589
 3770SOL    HW123288   3.622   2.748   9.065  0.3399  0.3622 -1.7954
 3770SOL    HW223289   3.529   2.867   9.074  0.6934  0.6191 -1.4954
 3771SOL     OW23290   5.449   8.317   0.074  0.1950  0.1223 -0.3266
 3771SOL    HW123291   5.421   8.247   0.015  1.8237 -1.1734  0.3600
 3771SOL    HW223292   5.471   8.273   0.156  3.6160  1.0039 -0.6085
 3772SOL     OW23293   1.161   2.482   0.193 -0.1180  0.5084 -0.1908
 3772SOL    HW123294   1.146   2.469   0.287  0.3408 -0.7380 -0.2736
 3772SOL    HW223295   1.145   2.575   0.179 -0.9247  0.5689  0.9852
 3773SOL     OW23296   1.402   1.627   8.720  0.2314 -0.3816 -0.0760
 3773SOL    HW123297   1.416   1.709   8.673 -0.3382  0.1484  0.6551
 3773SOL    HW223298   1.348   1.575   8.661 -1.3115  0.6535  0.3410
 3774SOL     OW23299   6.613  10.165   8.128 -0.0841 -0.3118 -0.2483
 3774SOL    HW123300   6.662  10.227   8.182 -0.7186 -0.9464  1.1368
 3774SOL    HW223301   6.544  10.218   8.087 -0.2144  0.0312  0.3951
 3775SOL     OW23302   4.259   7.939   8.911 -0.1546  0.2696  0.1134
 3775SOL    HW123303   4.276   7.966   9.001 -0.4153  1.7668 -0.2542
 3775SOL    HW223304   4.322   7.869   8.894 -0.9391 -0.9401  1.8422
 3776SOL     OW23305   8.126   8.550   6.439  0.2397 -0.2840 -0.6128
 3776SOL    HW123306   8.091   8.632   6.473 -0.0856 -0.5537 -0.2804
 3776SOL    HW223307   8.050   8.507   6.398  0.5670 -0.0862 -1.4396
 3777SOL     OW23308   2.796   3.086   0.488 -0.1057  0.3331  0.0214
 3777SOL    HW123309   2.716   3.077   0.436  0.0475  0.6489 -0.2754
 3777SOL    HW223310   2.815   2.997   0.518 -1.4837  0.4982  1.5107
 3778SOL     OW23311   6.298   5.949   3.316 -0.3162  0.0462  0.1241
 3778SOL    HW123312   6.310   5.914   3.404  0.1422  3.1021  1.4012
 3778SOL    HW223313   6.378   5.925   3.269  0.2705  0.0021  1.1235
 3779SOL     OW23314   1.553   1.445   9.947  0.1633  0.3979 -0.3312
 3779SOL    HW123315   1.554   1.528   9.900  0.1187  0.9298  0.5971
 3779SOL    HW223316   1.489   1.456  10.016  0.5189 -0.2323  0.1165
 3780SOL     OW23317   9.332   5.996   9.828 -0.4019 -0.1874  0.6224
 3780SOL    HW123318   9.298   6.081   9.855 -2.3878 -0.7985  0.1755
 3780SOL    HW223319   9.363   6.009   9.739 -2.3671 -0.3094 -0.1167
 3781SOL     OW23320   8.591   1.266   4.018  0.3902 -0.2737  0.1438
 3781SOL    HW123321   8.660   1.294   3.958 -0.1565  1.7515  0.3832
 3781SOL    HW223322   8.543   1.199   3.969  1.3123 -0.2970 -0.7821
 3782SOL     OW23323   6.525   7.866   3.352 -0.9321 -0.1373  0.3306
 3782SOL    HW123324   6.465   7.847   3.423 -0.7066 -0.2122  0.5018
 3782SOL    HW223325   6.490   7.945   3.311 -1.0178 -0.0486  0.5737
 3783SOL     OW23326   0.107   0.804   6.447  0.0890 -0.1326 -0.0765
 3783SOL    HW123327   0.045   0.746   6.490  0.0930 -1.0635 -1.2675
 3783SOL    HW223328   0.126   0.872   6.512 -0.5614 -0.9938  1.0492
 3784SOL     OW23329   1.346   4.478   9.277 -0.0532 -0.0163  0.2707
 3784SOL    HW123330   1.370   4.567   9.301  0.5841 -0.1436  0.1387
 3784SOL    HW223331   1.385   4.423   9.345  1.4416 -0.3461 -0.7926
 3785SOL     OW23332   4.145   1.480   4.105 -0.0410 -0.3630 -0.8405
 3785SOL    HW123333   4.070   1.428   4.077  0.3996 -1.1358 -0.6249
 3785SOL    HW223334   4.221   1.429   4.076  0.4076 -0.0781 -0.1895
 3786SOL     OW23335   2.330   2.980   9.588 -0.6359 -0.5673 -0.3438
 3786SOL    HW123336   2.271   2.929   9.532 -1.9321  0.9154 -0.4067
 3786SOL    HW223337   2.417   2.963   9.552 -1.2901 -0.6828 -1.9953
 3787SOL     OW23338   5.964   0.439   9.523 -0.3434  0.3352  0.5486
 3787SOL    HW123339   5.999   0.483   9.446 -1.2790  0.2718  0.0781
 3787SOL    HW223340   6.031   0.452   9.590 -0.0186  1.3482  0.0492
 3788SOL     OW23341   6.507   1.307   0.143  0.4970 -0.1330 -0.7185
 3788SOL    HW123342   6.512   1.309   0.239  1.3491  1.6677 -0.7530
 3788SOL    HW223343   6.579   1.363   0.114 -0.7880  0.7916 -2.3416
 3789SOL     OW23344   8.258   9.902   8.390  0.4111 -0.2068 -0.6432
 3789SOL    HW123345   8.179   9.907   8.443  0.0914  1.6705 -1.2270
 3789SOL    HW223346   8.236   9.948   8.309  1.6055 -1.0316 -1.4725
 3790SOL     OW23347   4.992   7.992   2.112  0.2035 -0.1754 -0.0061
 3790SOL    HW123348   5.051   8.051   2.159  0.4346  1.2756 -2.0010
 3790SOL    HW223349   5.046   7.915   2.093  0.5753 -0.0972  0.6959
 3791SOL     OW23350   3.407   3.112   2.144  0.3307 -0.1303  0.0265
 3791SOL    HW123351   3.452   3.161   2.076 -0.2521 -1.6607 -1.5604
 3791SOL    HW223352   3.375   3.178   2.205  2.1239  1.1834 -0.3999
 3792SOL     OW23353   3.301   8.783   6.394  0.4771 -0.5658  0.2045
 3792SOL    HW123354   3.327   8.842   6.466  2.5171 -0.7871 -0.2693
 3792SOL    HW223355   3.314   8.695   6.430 -0.3020 -0.7035  0.1529
 3793SOL     OW23356   7.905   7.538   6.292  0.2339  0.2292 -0.2635
 3793SOL    HW123357   7.994   7.571   6.301  0.5076 -0.4784 -0.2699
 3793SOL    HW223358   7.862   7.600   6.233  1.0110  0.0745 -1.0238
 3794SOL     OW23359  10.192   4.112   5.517  0.3708  0.4490 -0.8274
 3794SOL    HW123360  10.189   4.059   5.438 -1.0777 -0.0204 -0.4846
 3794SOL    HW223361  10.133   4.068   5.578  0.9410  1.1752  0.2831
 3795SOL     OW23362   8.012   4.621   2.339 -0.2976  0.0746  0.5982
 3795SOL    HW123363   8.050   4.610   2.426 -0.1069 -0.4603  0.4531
 3795SOL    HW223364   8.049   4.703   2.307  0.9587 -0.5544  0.3656
 3796SOL     OW23365   5.948   9.265   7.343  1.2047  0.1265  0.3029
 3796SOL    HW123366   5.982   9.279   7.255 -2.1112  1.8250 -0.8895
 3796SOL    HW223367   5.925   9.353   7.374 -0.9403 -0.7350  1.3581
 3797SOL     OW23368   0.543   7.102   7.878 -0.2257 -0.3418 -0.1299
 3797SOL    HW123369   0.592   7.040   7.823 -0.9253  0.0113 -1.1824
 3797SOL    HW223370   0.510   7.048   7.950 -0.6947 -1.1804 -0.9502
 3798SOL     OW23371   6.318   9.533   2.603  0.6514 -0.5882 -0.0410
 3798SOL    HW123372   6.246   9.470   2.614 -1.5297  1.6638 -0.4100
 3798SOL    HW223373   6.317   9.556   2.510  1.8008 -0.4512 -0.0305
 3799SOL     OW23374   8.172  10.189   1.306  0.3048 -0.3361  0.1000
 3799SOL    HW123375   8.172  10.118   1.370 -2.0854 -0.6279 -0.1497
 3799SOL    HW223376   8.233  10.160   1.238 -0.4427 -2.0590  0.1204
 3800SOL     OW23377   6.941   0.959   6.163 -0.3278 -0.0039  0.3320
 3800SOL    HW123378   6.934   0.917   6.077  0.4455  0.4183  0.0511
 3800SOL    HW223379   7.009   1.026   6.151  0.4630 -0.5552  1.5068
 3801SOL     OW23380   8.307   4.843   3.697  0.3457 -0.1042 -0.8686
 3801SOL    HW123381   8.284   4.789   3.772 -0.0550  1.4735  0.1792
 3801SOL    HW223382   8.403   4.852   3.703  0.1440  1.6789  0.6980
 3802SOL     OW23383   4.609   9.832   6.506  0.4218  0.1486 -0.5666
 3802SOL    HW123384   4.663   9.774   6.451 -0.5840 -0.8255 -0.5689
 3802SOL    HW223385   4.638   9.920   6.483  0.1628 -0.2339 -2.5474
 3803SOL     OW23386   8.677   5.015   2.786 -0.4170  0.4608 -0.1606
 3803SOL    HW123387   8.761   5.059   2.797  0.3804 -1.1617  0.5988
 3803SOL    HW223388   8.618   5.060   2.847  0.5496  0.0930  1.0932
 3804SOL     OW23389  10.137   7.627   6.495  0.2245 -0.5007 -0.0548
 3804SOL    HW123390  10.099   7.540   6.485  2.4303 -1.6131  0.7129
 3804SOL    HW223391  10.107   7.657   6.581 -0.4148 -0.5481 -0.2560
 3805SOL     OW23392   0.850  10.296   3.074 -0.1453 -0.0310 -0.1620
 3805SOL    HW123393   0.838  10.216   3.023 -1.2135  0.4541 -0.6950
 3805SOL    HW223394   0.940  10.324   3.055  0.1290 -0.9216 -0.2146
 3806SOL     OW23395  10.365   5.185   5.394  0.4661 -0.1499 -0.7301
 3806SOL    HW123396  10.321   5.101   5.399 -0.1897 -0.0642 -3.4034
 3806SOL    HW223397  10.457   5.163   5.379  0.2572 -0.4257 -1.6842
 3807SOL     OW23398   4.761   7.757   2.873 -0.0500  0.0227  0.0821
 3807SOL    HW123399   4.802   7.671   2.857  0.4689  0.2444  0.2009
 3807SOL    HW223400   4.703   7.742   2.947 -0.9258 -0.5233 -0.6879
 3808SOL     OW23401  10.075   9.664   2.347 -0.6842  0.2714 -0.7605
 3808SOL    HW123402  10.156   9.667   2.398 -0.4407 -0.3073 -1.0999
 3808SOL    HW223403  10.104   9.650   2.257 -1.2053 -3.4834 -0.4999
 3809SOL     OW23404   6.393   8.236   9.847  0.4056 -0.6311  0.0133
 3809SOL    HW123405   6.312   8.204   9.808  1.3637 -2.6081 -0.4970
 3809SOL    HW223406   6.388   8.210   9.938  0.2980 -0.3922  0.0763
 3810SOL     OW23407   3.532   8.802   1.944  0.3815 -0.0854  0.1029
 3810SOL    HW123408   3.461   8.745   1.974 -0.0188 -0.1439 -0.9348
 3810SOL    HW223409   3.489   8.882   1.915  0.7926  0.0963 -0.0130
 3811SOL     OW23410   9.503   1.505   7.373  0.0590  0.2210 -0.1922
 3811SOL    HW123411   9.451   1.582   7.349  0.6039  1.3127  1.8667
 3811SOL    HW223412   9.459   1.432   7.329 -0.9672  1.5855 -1.5441
 3812SOL     OW23413   1.357   4.344   3.752 -0.1266  0.1279 -0.3046
 3812SOL    HW123414   1.302   4.352   3.674 -0.1234 -0.9036 -0.4154
 3812SOL    HW223415   1.443   4.373   3.723  0.1737 -1.4151 -1.0314
 3813SOL     OW23416   4.175   6.900   6.755 -0.3854 -0.4518 -0.2973
 3813SOL    HW123417   4.237   6.971   6.775  1.9383 -1.7068 -2.5940
 3813SOL    HW223418   4.175   6.846   6.835  0.7980  0.0604  0.0782
 3814SOL     OW23419   0.713   0.094   5.925 -0.1012  0.3724  0.3360
 3814SOL    HW123420   0.750   0.168   5.878  2.5283 -0.3362  1.0725
 3814SOL    HW223421   0.735   0.018   5.871  0.2634 -0.1444  1.1743
 3815SOL     OW23422   9.482   1.054   5.846 -0.0257  0.4482 -0.2363
 3815SOL    HW123423   9.534   1.037   5.925  0.7926 -1.1038 -1.0639
 3815SOL    HW223424   9.424   1.127   5.870  0.7156  0.4869  1.5474
 3816SOL     OW23425   2.359   6.993   1.294 -0.3724 -0.0990  0.1189
 3816SOL    HW123426   2.360   7.031   1.207 -1.4619 -1.6275 -0.6086
 3816SOL    HW223427   2.447   6.955   1.305  0.5704  2.1008  0.6845
 3817SOL     OW23428   6.227   0.837   9.227 -0.4175  0.3391  0.0421
 3817SOL    HW123429   6.246   0.802   9.140  0.6682 -1.9127  1.1087
 3817SOL    HW223430   6.250   0.930   9.221 -1.1815  0.4484 -2.2799
 3818SOL     OW23431   5.864   5.440   2.717  0.6149 -0.0604 -0.1726
 3818SOL    HW123432   5.888   5.529   2.742 -1.7454  0.5481  0.1662
 3818SOL    HW223433   5.784   5.450   2.665  1.6026 -1.8311 -2.1530
 3819SOL     OW23434   1.655   1.215   0.961  0.2440 -0.1283 -0.1609
 3819SOL    HW123435   1.583   1.272   0.989  0.8054  1.0537 -1.0012
 3819SOL    HW223436   1.734   1.260   0.991  0.7576  0.1746 -1.8243
 3820SOL     OW23437   1.139   4.322   9.976  0.2040 -0.0859 -0.4358
 3820SOL    HW123438   1.174   4.370  10.051 -1.4661 -2.9976  2.4622
 3820SOL    HW223439   1.046   4.314   9.994 -0.4053 -0.2697 -3.2806
 3821SOL     OW23440   8.981   4.324   5.753  0.0792  0.0537 -0.4665
 3821SOL    HW123441   9.039   4.379   5.700  0.0643  0.9808  0.4324
 3821SOL    HW223442   8.895   4.366   5.744  0.1233  0.3721  0.4555
 3822SOL     OW23443  10.299   9.991   2.493  0.3062  0.5232 -0.3087
 3822SOL    HW123444  10.228   9.979   2.556 -1.7194 -2.3657 -2.8395
 3822SOL    HW223445  10.370   9.936   2.526 -0.1482  0.2209  0.1909
 3823SOL     OW23446   0.999   4.478   3.053 -0.1755  0.5134 -0.0673
 3823SOL    HW123447   1.008   4.556   3.107  2.1157 -0.7240  1.5478
 3823SOL    HW223448   0.973   4.409   3.115 -0.6173 -0.3323 -1.1497
 3824SOL     OW23449  10.375   8.083   4.550 -0.0380 -0.0321 -0.2815
 3824SOL    HW123450  10.428   8.032   4.488 -1.1493  0.4909 -1.6987
 3824SOL    HW223451  10.428   8.161   4.568 -0.8366  1.1758 -2.7809
 3825SOL     OW23452   5.023  10.316   9.850 -0.2538  0.7663 -0.6982
 3825SOL    HW123453   5.072  10.392   9.820 -0.3985  1.8330  1.5593
 3825SOL    HW223454   5.089  10.262   9.895 -0.5102  0.4720 -0.6706
 3826SOL     OW23455   5.748   9.419   3.421 -0.1999 -0.1712 -0.1747
 3826SOL    HW123456   5.725   9.461   3.338  0.1576  1.0458  0.3313
 3826SOL    HW223457   5.828   9.462   3.449  0.2808 -1.3164  0.2887
 3827SOL     OW23458   1.340   0.789   6.285  0.2173  0.2169  0.0703
 3827SOL    HW123459   1.334   0.793   6.381 -1.3833 -2.5883  0.1988
 3827SOL    HW223460   1.431   0.765   6.269  0.3618  0.1234  0.9463
 3828SOL     OW23461   6.991   1.210   1.099  0.3628 -0.3192  0.1889
 3828SOL    HW123462   6.982   1.258   1.017 -2.0810  0.7424  0.9735
 3828SOL    HW223463   7.037   1.271   1.157  2.4726 -1.2306 -0.4516
 3829SOL     OW23464   3.085   9.075   0.516 -0.0685 -0.4407  0.3213
 3829SOL    HW123465   3.040   9.059   0.433  1.9241 -1.2205 -0.6807
 3829SOL    HW223466   3.124   9.162   0.506  1.4449 -1.1509 -0.2185
 3830SOL     OW23467   9.456   8.578   8.305 -0.6388 -0.0666 -0.6020
 3830SOL    HW123468   9.476   8.631   8.382  0.4873  0.5580 -1.2859
 3830SOL    HW223469   9.474   8.488   8.333 -0.5988  0.1133 -0.0269
 3831SOL     OW23470   3.199   7.314   6.693 -0.0849 -0.5074 -1.1161
 3831SOL    HW123471   3.264   7.247   6.672 -0.2241 -0.1660 -2.7406
 3831SOL    HW223472   3.248   7.396   6.691 -0.1840 -0.4283 -0.4518
 3832SOL     OW23473   2.220   8.330   0.701 -0.3704 -0.5939 -0.7544
 3832SOL    HW123474   2.212   8.249   0.751 -1.3947  0.2810  0.5620
 3832SOL    HW223475   2.155   8.322   0.631  0.2909 -1.3456 -1.3056
 3833SOL     OW23476   5.427   2.467   2.206 -0.3291 -0.1466 -0.8929
 3833SOL    HW123477   5.415   2.373   2.189 -2.0956 -0.1141 -0.0785
 3833SOL    HW223478   5.376   2.483   2.286 -0.1927  1.5527 -1.1140
 3834SOL     OW23479   0.163   6.625   9.956  0.1343 -0.1437  0.3599
 3834SOL    HW123480   0.131   6.534   9.952  0.3269 -0.1956 -0.0231
 3834SOL    HW223481   0.112   6.671   9.890 -0.5813  0.2283  1.1501
 3835SOL     OW23482   5.863   1.434   1.190 -0.3268  0.3857 -0.2956
 3835SOL    HW123483   5.771   1.405   1.192  0.1570 -1.2213 -0.2140
 3835SOL    HW223484   5.872   1.476   1.104 -0.7566 -0.8107 -0.9496
 3836SOL     OW23485   8.620   5.268   2.442 -0.1990 -0.1065 -0.4522
 3836SOL    HW123486   8.619   5.363   2.457 -1.2056 -0.2679  0.6480
 3836SOL    HW223487   8.685   5.235   2.505 -0.2655 -0.2033 -0.4343
 3837SOL     OW23488   4.009   6.815   3.252  0.6070  0.0355 -0.3941
 3837SOL    HW123489   3.959   6.885   3.212  0.8064  0.3425 -0.1097
 3837SOL    HW223490   4.023   6.843   3.343 -0.2180 -0.8419  0.0252
 3838SOL     OW23491   3.082   9.309   5.295  0.1039  0.2590  0.2988
 3838SOL    HW123492   3.131   9.267   5.365 -0.1777  0.9585  0.9182
 3838SOL    HW223493   3.115   9.268   5.215  1.2136  0.2439  0.7560
 3839SOL     OW23494   4.049   0.536   9.002  0.0253 -0.3794 -0.2823
 3839SOL    HW123495   4.103   0.468   9.044  1.8898 -0.5326 -2.7404
 3839SOL    HW223496   4.034   0.601   9.071  1.4092 -1.4686  1.1052
 3840SOL     OW23497   0.141   5.424   6.352 -0.1420 -0.0146  0.8626
 3840SOL    HW123498   0.081   5.474   6.408 -0.7072 -1.0299  1.1994
 3840SOL    HW223499   0.120   5.453   6.263 -0.3366  0.4749  1.0609
 3841SOL     OW23500   0.609   3.963   7.379 -0.2784 -0.0338 -0.2332
 3841SOL    HW123501   0.609   4.058   7.370 -2.0639 -0.0222 -0.5338
 3841SOL    HW223502   0.665   3.945   7.454 -1.0983  1.3705  0.7350
 3842SOL     OW23503   9.442   7.467   6.921  0.4175 -0.5601 -0.6893
 3842SOL    HW123504   9.448   7.392   6.863  0.8322 -2.5799  1.7861
 3842SOL    HW223505   9.530   7.476   6.958  0.4483  1.3605 -1.1094
 3843SOL     OW23506   8.124   1.452   2.013 -0.2878  0.0773  0.2988
 3843SOL    HW123507   8.057   1.394   2.047 -0.8297 -0.2116 -1.1696
 3843SOL    HW223508   8.178   1.475   2.089 -1.5447 -0.3421  1.3503
 3844SOL     OW23509   1.398   3.023   2.797  0.8672  0.4173  0.2016
 3844SOL    HW123510   1.316   3.023   2.846  0.1058  0.0807 -1.0076
 3844SOL    HW223511   1.388   2.952   2.733  2.6997 -0.5904  0.9441
 3845SOL     OW23512   2.923   0.513   1.484  0.3658  0.0126  0.4927
 3845SOL    HW123513   2.846   0.561   1.455  0.4028 -0.2796 -0.0953
 3845SOL    HW223514   2.960   0.475   1.404 -0.2486 -1.8457  1.0522
 3846SOL     OW23515   2.481   4.894   4.383 -0.1791  0.3192  0.1868
 3846SOL    HW123516   2.466   4.834   4.310 -0.1713 -1.4292  1.5510
 3846SOL    HW223517   2.484   4.981   4.342 -0.6064 -0.5391 -1.8147
 3847SOL     OW23518   6.103   8.795   7.116  0.2496 -0.4525  0.2702
 3847SOL    HW123519   6.068   8.708   7.098 -1.6325  0.2424  0.3491
 3847SOL    HW223520   6.132   8.791   7.207 -1.9757 -0.3910  1.0408
 3848SOL     OW23521   5.251   9.875   2.882  0.3023  0.1054  0.0094
 3848SOL    HW123522   5.177   9.830   2.841  0.9973 -1.6476  0.5920
 3848SOL    HW223523   5.219   9.900   2.968  0.7534 -1.8652  0.7912
 3849SOL     OW23524   1.243   5.110   8.098 -0.0341 -0.0104 -0.2217
 3849SOL    HW123525   1.196   5.182   8.139 -0.4032  0.0851 -0.7949
 3849SOL    HW223526   1.292   5.069   8.169  1.8401  2.0710 -0.2029
 3850SOL     OW23527   9.077   5.078   5.559  0.3623 -0.5824 -0.2690
 3850SOL    HW123528   9.114   5.165   5.540 -1.1765  0.1343 -0.1284
 3850SOL    HW223529   9.010   5.065   5.492 -2.1080  0.0708  1.9035
 3851SOL     OW23530   7.455   9.727   3.217 -0.4076  0.0975  0.7295
 3851SOL    HW123531   7.548   9.734   3.239 -0.1230  0.2875 -0.4673
 3851SOL    HW223532   7.445   9.776   3.135 -1.2870 -1.0529  0.0998
 3852SOL     OW23533   3.146   5.123   5.584 -0.2398 -0.7736 -0.6380
 3852SOL    HW123534   3.184   5.198   5.537 -1.2747 -0.0971 -0.4394
 3852SOL    HW223535   3.218   5.089   5.637  0.4372 -0.3611 -1.2750
 3853SOL     OW23536   5.520   0.867   2.235 -0.0694  0.0295  0.2254
 3853SOL    HW123537   5.438   0.866   2.185 -0.1490 -0.2394  0.3620
 3853SOL    HW223538   5.516   0.789   2.290  0.4339 -0.1740 -0.0167
 3854SOL     OW23539   9.952   3.141   2.505 -0.4834 -0.0012 -0.1886
 3854SOL    HW123540  10.043   3.125   2.529  0.0758 -0.6503 -2.5025
 3854SOL    HW223541   9.909   3.057   2.520 -0.8578  0.4276  1.3424
 3855SOL     OW23542   8.598   2.452   9.839  0.2671  0.1944  0.0826
 3855SOL    HW123543   8.512   2.449   9.796  0.2681 -0.3356  0.1057
 3855SOL    HW223544   8.660   2.456   9.767  0.2495 -0.1966  0.0432
 3856SOL     OW23545   7.056   4.064   0.782  0.4288 -0.4034  0.2387
 3856SOL    HW123546   7.016   4.132   0.727 -1.7122 -1.7442  0.0159
 3856SOL    HW223547   7.129   4.030   0.730  0.1157  0.1975 -0.6079
 3857SOL     OW23548   7.930   2.471   6.668 -0.0302  0.4503 -0.8681
 3857SOL    HW123549   7.982   2.399   6.634 -0.9907 -0.5201 -0.3380
 3857SOL    HW223550   7.845   2.432   6.689 -0.1339  1.4496  0.7090
 3858SOL     OW23551   3.631   7.665   2.247 -0.6385 -1.0655 -0.5498
 3858SOL    HW123552   3.544   7.629   2.230 -1.3422  0.3113  0.0429
 3858SOL    HW223553   3.622   7.759   2.232  0.8536 -0.9504 -0.8687
 3859SOL     OW23554   6.298   0.952  10.383  0.0543 -0.3307  0.1892
 3859SOL    HW123555   6.232   0.883  10.392 -0.1509 -0.1165  0.3431
 3859SOL    HW223556   6.255   1.019  10.330 -0.0974  0.1155  0.8679
 3860SOL     OW23557   7.621   3.568   9.319  0.4940  0.5450 -0.2217
 3860SOL    HW123558   7.683   3.616   9.263  0.7945 -1.3961 -1.6359
 3860SOL    HW223559   7.614   3.482   9.279 -2.3857  0.3555  0.4885
 3861SOL     OW23560   5.690   3.264   8.476  0.0925  0.3775 -0.3777
 3861SOL    HW123561   5.643   3.339   8.511  0.4860  1.0422 -1.2346
 3861SOL    HW223562   5.626   3.193   8.474 -0.8929  1.2731 -1.5702
 3862SOL     OW23563   0.997   6.398   4.686 -0.4222 -0.2102 -0.4709
 3862SOL    HW123564   1.013   6.359   4.772  2.6764  1.5255 -0.1319
 3862SOL    HW223565   0.913   6.442   4.695 -1.2950 -2.0184  0.8792
 3863SOL     OW23566  10.124   4.164   4.025 -0.2594  0.0659 -0.2657
 3863SOL    HW123567  10.174   4.243   4.008 -0.0348  0.1054  0.5183
 3863SOL    HW223568  10.036   4.183   3.992  0.0742  0.2325 -1.0683
 3864SOL     OW23569   1.016   7.167   0.605 -0.1226  0.3144 -0.3314
 3864SOL    HW123570   0.958   7.212   0.543 -1.5002 -1.5322 -0.4827
 3864SOL    HW223571   0.962   7.154   0.683  0.3903 -0.5913 -0.1069
 3865SOL     OW23572   4.374   5.714   1.595 -0.1561 -0.4532  0.8305
 3865SOL    HW123573   4.358   5.653   1.667 -1.8554  0.6599  1.4621
 3865SOL    HW223574   4.362   5.801   1.634  2.1917  0.3348 -0.0414
 3866SOL     OW23575   0.426   6.622   8.848 -0.0217 -0.2441 -0.0583
 3866SOL    HW123576   0.372   6.661   8.779 -0.6727  0.1102  0.6397
 3866SOL    HW223577   0.403   6.670   8.927  1.9867  0.5477  0.1125
 3867SOL     OW23578   9.525   2.007   0.956  0.1829  0.1047 -0.2667
 3867SOL    HW123579   9.594   1.976   1.015 -0.4316 -0.6556  0.0682
 3867SOL    HW223580   9.555   2.093   0.927  1.5961 -0.4808 -0.6446
 3868SOL     OW23581   9.790   1.144  10.077 -0.0967  0.0647  0.0773
 3868SOL    HW123582   9.826   1.178  10.159  0.1596  2.3017 -0.8840
 3868SOL    HW223583   9.699   1.172  10.077 -1.0949 -2.8384  1.0446
 3869SOL     OW23584   1.377   6.905   9.235  0.2909  0.2273 -0.1853
 3869SOL    HW123585   1.366   6.890   9.329  0.3989  1.1041 -0.0196
 3869SOL    HW223586   1.469   6.931   9.225  1.3455 -3.3081 -1.0462
 3870SOL     OW23587   6.662   2.806   7.886  0.2503 -0.1356 -0.0069
 3870SOL    HW123588   6.628   2.884   7.842 -0.6447  0.2381  1.2860
 3870SOL    HW223589   6.632   2.733   7.832  2.4032  0.4175 -2.0970
 3871SOL     OW23590   4.767   3.416   3.940 -0.2620  0.0172  0.1142
 3871SOL    HW123591   4.839   3.479   3.930  0.0852 -0.4857 -0.6547
 3871SOL    HW223592   4.723   3.416   3.855 -1.4071  0.5783  0.6780
 3872SOL     OW23593   7.626   1.228   8.222  0.0279  0.1976  0.1948
 3872SOL    HW123594   7.555   1.170   8.247 -0.5348  0.3666 -0.9415
 3872SOL    HW223595   7.652   1.198   8.135  1.3904  0.1025  0.6150
 3873SOL     OW23596   9.948   1.970   5.799  0.3371  0.3599  0.2357
 3873SOL    HW123597   9.895   2.013   5.866  0.7741  2.1963 -0.5351
 3873SOL    HW223598  10.027   2.024   5.792  2.1471 -1.9895  0.9788
 3874SOL     OW23599   6.655   8.536   5.689 -0.6866  0.2031  0.3292
 3874SOL    HW123600   6.668   8.617   5.639 -1.0789 -0.5054 -0.9533
 3874SOL    HW223601   6.578   8.496   5.650 -0.3961 -0.8831  0.8438
 3875SOL     OW23602   9.653   7.432   2.946 -0.3311  0.2615 -0.1322
 3875SOL    HW123603   9.676   7.484   3.023  1.7765  0.0636 -0.5672
 3875SOL    HW223604   9.612   7.353   2.981 -0.4079  0.6687  0.7120
 3876SOL     OW23605   8.678   6.657   9.916 -0.3477  0.0402  0.4004
 3876SOL    HW123606   8.624   6.714   9.970  0.4036 -0.6412  1.9224
 3876SOL    HW223607   8.641   6.569   9.930  1.4904 -0.5433  2.0120
 3877SOL     OW23608   9.032  10.197   0.562  0.1449 -0.1267  0.4981
 3877SOL    HW123609   8.955  10.213   0.617 -0.7993  0.2644 -0.8909
 3877SOL    HW223610   9.034  10.271   0.502  2.0739  0.2544  0.9750
 3878SOL     OW23611   6.684   0.883   8.755  0.1500 -0.4114  0.0405
 3878SOL    HW123612   6.696   0.836   8.673 -0.3082 -0.5065  0.0220
 3878SOL    HW223613   6.603   0.847   8.791  0.3137 -0.3234  0.5002
 3879SOL     OW23614   1.530   3.841   1.445 -0.3948  0.0328 -0.0904
 3879SOL    HW123615   1.462   3.791   1.400 -0.5020  0.4628 -0.4146
 3879SOL    HW223616   1.483   3.913   1.487 -0.4186 -0.8165  1.4233
 3880SOL     OW23617   3.757   4.874   5.544 -0.6912  0.0060 -0.3936
 3880SOL    HW123618   3.832   4.864   5.602 -1.9380  0.7346  1.4756
 3880SOL    HW223619   3.731   4.785   5.521  1.2994 -0.2391 -1.9268
 3881SOL     OW23620   5.823  10.359   7.089 -0.2228 -0.1247  0.4858
 3881SOL    HW123621   5.890  10.426   7.078 -0.4788  0.2820  1.3670
 3881SOL    HW223622   5.774  10.360   7.006 -0.8847  1.5116  0.8556
 3882SOL     OW23623   6.170   3.339   8.764 -0.1367 -0.0257  0.3125
 3882SOL    HW123624   6.106   3.268   8.768  0.8629 -0.9926 -0.0128
 3882SOL    HW223625   6.161   3.385   8.848 -2.4561  0.9966 -0.4332
 3883SOL     OW23626   8.611   4.432   8.022  0.2057  0.1484 -0.6237
 3883SOL    HW123627   8.598   4.526   8.008  0.5656  0.5620  1.4704
 3883SOL    HW223628   8.661   4.427   8.103 -0.0126 -1.8790 -0.5703
 3884SOL     OW23629   5.377   7.760   6.828  0.1357 -0.2143 -0.1340
 3884SOL    HW123630   5.465   7.797   6.842  0.1035 -0.8160  2.0222
 3884SOL    HW223631   5.370   7.750   6.734  1.6823  1.5397 -0.5027
 3885SOL     OW23632   6.778   5.451   0.873  0.0060 -0.1401  0.4610
 3885SOL    HW123633   6.693   5.427   0.912 -0.2244  0.8028  0.5782
 3885SOL    HW223634   6.831   5.479   0.947  2.0913 -4.9061  1.1527
 3886SOL     OW23635   0.754  10.236   3.338 -0.0337 -0.1774  0.1793
 3886SOL    HW123636   0.795  10.253   3.253  1.9479 -1.2456  0.8553
 3886SOL    HW223637   0.693  10.309   3.350 -0.4409 -0.0666 -2.1849
 3887SOL     OW23638   3.883   9.484   5.476  0.4264  0.5623  0.0322
 3887SOL    HW123639   3.897   9.532   5.394  0.3842  0.3225 -0.1188
 3887SOL    HW223640   3.959   9.505   5.530  0.3924  0.8218 -0.0191
 3888SOL     OW23641   9.928   6.276   3.764  0.5916  0.5223  0.1861
 3888SOL    HW123642   9.857   6.216   3.740  0.6657  1.4133 -2.7012
 3888SOL    HW223643   9.890   6.334   3.829 -0.1232 -1.2894  1.4726
 3889SOL     OW23644  10.043   8.575   8.164 -0.5622 -0.8536  0.4054
 3889SOL    HW123645  10.004   8.562   8.250 -1.4484  1.2229  0.3879
 3889SOL    HW223646  10.138   8.569   8.179 -0.6792 -0.0271  1.6492
 3890SOL     OW23647   5.520   5.829   8.778  0.4284 -0.0471 -0.5504
 3890SOL    HW123648   5.481   5.791   8.699 -3.5699 -2.5070  2.2208
 3890SOL    HW223649   5.478   5.914   8.786  0.0685 -0.2153 -0.6025
 3891SOL     OW23650   8.785   7.999   6.815  0.0566  0.6444 -0.6339
 3891SOL    HW123651   8.795   8.003   6.719  0.7059  1.0805 -0.5530
 3891SOL    HW223652   8.871   7.975   6.848 -0.3961 -0.4237 -0.2006
 3892SOL     OW23653   1.352   9.951   5.859 -0.0557  0.3403 -1.0742
 3892SOL    HW123654   1.317   9.868   5.891  1.6072 -0.3388 -0.9239
 3892SOL    HW223655   1.419   9.926   5.795 -0.6145  1.6078 -2.2012
 3893SOL     OW23656  10.150   6.538   3.062  0.6103  0.3490  0.0333
 3893SOL    HW123657  10.218   6.575   3.118  0.2997  0.0314  0.6266
 3893SOL    HW223658  10.091   6.493   3.122 -0.5836  1.3047 -0.3736
 3894SOL     OW23659   6.166   0.937   3.756 -0.0445 -0.1661  0.1176
 3894SOL    HW123660   6.157   0.969   3.846  1.1647 -0.7426  0.4603
 3894SOL    HW223661   6.076   0.930   3.724 -0.5703 -1.1542  1.7064
 3895SOL     OW23662   8.590   7.344   2.383 -0.1448  0.1402  0.1228
 3895SOL    HW123663   8.640   7.326   2.304  4.1993  2.4678  1.9980
 3895SOL    HW223664   8.613   7.273   2.443 -0.6982  0.2089  0.4256
 3896SOL     OW23665   1.673   5.966   7.059  0.3253 -0.4539 -0.0778
 3896SOL    HW123666   1.738   6.022   7.101 -0.4018  0.2210  0.1814
 3896SOL    HW223667   1.649   6.012   6.979 -1.4992  0.4973  0.9499
 3897SOL     OW23668   9.531   8.782   0.733 -0.1986  0.1675 -0.1755
 3897SOL    HW123669   9.490   8.704   0.695 -0.2668  1.3156 -2.6701
 3897SOL    HW223670   9.617   8.752   0.763  1.6699 -0.2712 -4.9568
 3898SOL     OW23671   0.210   1.211   8.701 -0.1587  0.1032 -0.3436
 3898SOL    HW123672   0.122   1.211   8.739 -0.2175 -0.8825 -0.4639
 3898SOL    HW223673   0.256   1.279   8.750 -1.8922  3.1121 -2.5194
 3899SOL     OW23674   3.261   0.080   3.908 -0.2763  0.0988 -0.3775
 3899SOL    HW123675   3.333   0.028   3.871 -1.0823 -1.3722  0.0315
 3899SOL    HW223676   3.302   0.133   3.976  0.4854 -0.4461 -0.4016
 3900SOL     OW23677   1.087   4.103   0.685 -0.2833  0.2014 -0.2490
 3900SOL    HW123678   1.149   4.174   0.670  1.1412 -0.4795  1.9882
 3900SOL    HW223679   1.002   4.139   0.659  0.6246  2.1939 -0.5727
 3901SOL     OW23680   4.075   3.185   9.098  0.3830  0.6779  0.1340
 3901SOL    HW123681   4.120   3.114   9.051 -1.0518 -0.4658  0.4187
 3901SOL    HW223682   4.131   3.261   9.085  1.4922 -0.2797 -0.9988
 3902SOL     OW23683   7.598   2.833   7.889  0.5800  0.5102 -0.6307
 3902SOL    HW123684   7.576   2.823   7.796  2.2744  0.1057 -1.0151
 3902SOL    HW223685   7.534   2.778   7.935 -0.8081  1.3646 -1.4711
 3903SOL     OW23686   8.476   8.545   8.151  0.2352 -0.2807  0.4965
 3903SOL    HW123687   8.450   8.492   8.226 -1.4522  1.3348  1.1411
 3903SOL    HW223688   8.496   8.631   8.189 -2.0735  1.0235 -0.9757
 3904SOL     OW23689   6.705   4.798   1.997  0.0415  0.0800  0.4916
 3904SOL    HW123690   6.750   4.716   2.018  1.0633  0.0900 -1.4338
 3904SOL    HW223691   6.772   4.850   1.952 -1.1037  1.2649  0.1138
 3905SOL     OW23692   2.934   5.046   2.217 -0.2059  0.1163 -0.1696
 3905SOL    HW123693   2.974   5.127   2.186 -0.8650 -0.3255 -2.3216
 3905SOL    HW223694   2.999   5.008   2.275  0.5713  1.6279 -0.0035
 3906SOL     OW23695   0.049   3.826   2.041 -0.3298  0.0954 -0.1803
 3906SOL    HW123696   0.000   3.890   2.092 -1.8733 -0.8235 -0.4197
 3906SOL    HW223697   0.116   3.877   1.995 -0.3411  1.2442  1.0327
 3907SOL     OW23698   2.649   3.797   0.053 -0.3379 -0.1985 -0.3615
 3907SOL    HW123699   2.630   3.890   0.043  1.2090  0.3218  1.0224
 3907SOL    HW223700   2.601   3.771   0.132 -2.1892 -1.0674 -1.7016
 3908SOL     OW23701   4.995   0.642   2.202  0.0680  0.1071  0.1223
 3908SOL    HW123702   5.089   0.656   2.199  0.0620  0.6512  1.5979
 3908SOL    HW223703   4.958   0.727   2.226 -0.7220 -0.2959  0.3775
 3909SOL     OW23704   0.526  10.131  10.347 -0.0142  0.1735 -0.1603
 3909SOL    HW123705   0.530  10.167  10.435 -0.9613 -1.3190  0.5362
 3909SOL    HW223706   0.617  10.114  10.324  0.2294  0.4325  0.5929
 3910SOL     OW23707   8.488   9.799   2.057  0.4959  0.2197  0.2610
 3910SOL    HW123708   8.559   9.735   2.063  0.4312 -0.0358 -1.3025
 3910SOL    HW223709   8.523   9.869   2.001 -0.5979 -0.1140 -0.8926
 3911SOL     OW23710  10.087   6.668   0.145 -0.3715 -0.5020  0.4991
 3911SOL    HW123711  10.117   6.591   0.097 -1.1129 -1.8916  2.1480
 3911SOL    HW223712  10.157   6.685   0.208  1.0825  1.9422 -1.6047
 3912SOL     OW23713   3.700   0.280   4.856  0.2353 -0.1445  0.0959
 3912SOL    HW123714   3.757   0.355   4.840  0.7435 -0.6504 -0.5620
 3912SOL    HW223715   3.745   0.230   4.924 -0.5840  0.6235  1.2365
 3913SOL     OW23716   7.536   6.688   7.403  0.3409  0.0048  0.4843
 3913SOL    HW123717   7.523   6.738   7.322 -0.0897 -3.8372 -2.0933
 3913SOL    HW223718   7.631   6.682   7.412  0.4084 -0.5862 -0.4972
 3914SOL     OW23719   8.853   5.008   2.365 -0.0908 -0.2839  0.2181
 3914SOL    HW123720   8.817   5.052   2.288 -1.4637 -2.0277 -0.1992
 3914SOL    HW223721   8.896   4.929   2.330 -0.3957 -0.8972  1.1925
 3915SOL     OW23722   4.176   1.586   3.121  0.3491  0.0001  0.0969
 3915SOL    HW123723   4.175   1.518   3.189 -1.5095 -0.2416 -0.1293
 3915SOL    HW223724   4.213   1.543   3.044  3.2031  0.4819  1.0811
 3916SOL     OW23725   6.982   0.572   7.942 -0.3322  0.3839 -0.5831
 3916SOL    HW123726   6.939   0.569   8.027  1.8376 -1.4562  0.5668
 3916SOL    HW223727   7.067   0.613   7.960 -0.7698  2.2481 -2.4012
 3917SOL     OW23728   0.451   7.070   9.705  0.2751 -0.4759  0.2608
 3917SOL    HW123729   0.499   6.988   9.717 -0.9118 -1.0545  1.3072
 3917SOL    HW223730   0.417   7.091   9.793 -0.7624  0.2791 -0.2931
 3918SOL     OW23731   7.480   1.642   2.345 -0.4242  0.4339 -0.1662
 3918SOL    HW123732   7.480   1.557   2.301 -2.1054  0.2794  0.0641
 3918SOL    HW223733   7.564   1.646   2.390 -0.7912 -1.6239  0.7946
 3919SOL     OW23734   1.364   7.980   2.049  0.1432 -0.3180 -0.1472
 3919SOL    HW123735   1.371   7.997   2.143  0.5240 -1.1938 -0.0007
 3919SOL    HW223736   1.385   8.064   2.008 -0.3168  0.1531  0.5482
 3920SOL     OW23737   0.303   3.119   4.436 -0.1814  0.2914 -0.5355
 3920SOL    HW123738   0.259   3.085   4.514  1.9323  0.8680  0.9985
 3920SOL    HW223739   0.377   3.059   4.421  1.0951  1.7457 -0.3520
 3921SOL     OW23740   0.054   5.373   0.829  0.1926  0.6683 -0.0150
 3921SOL    HW123741   0.033   5.465   0.816  0.0011  0.5008 -0.9445
 3921SOL    HW223742   0.021   5.329   0.751  0.1740 -0.2105  0.4734
 3922SOL     OW23743   3.249   4.922   7.392  0.4494 -0.2978  0.2993
 3922SOL    HW123744   3.236   4.829   7.374  1.9629 -0.7091  1.1137
 3922SOL    HW223745   3.274   4.959   7.307 -0.6940 -0.5034 -0.1453
 3923SOL     OW23746   5.181   8.099   7.996 -0.6483 -0.4550  0.0153
 3923SOL    HW123747   5.131   8.021   7.972 -0.9830 -0.5983  1.1318
 3923SOL    HW223748   5.272   8.074   7.983 -0.8110 -0.2883 -1.7558
 3924SOL     OW23749  10.297   1.461   4.557  0.0252  0.4446 -0.4477
 3924SOL    HW123750  10.250   1.423   4.482 -0.0509 -2.5093  0.9570
 3924SOL    HW223751  10.389   1.449   4.535  0.0105  0.2546 -0.4125
 3925SOL     OW23752   1.835   0.771   2.866 -0.1025 -0.1506 -0.1875
 3925SOL    HW123753   1.800   0.859   2.854 -1.3410 -0.5941 -0.0265
 3925SOL    HW223754   1.805   0.745   2.953  0.2673 -0.7155 -0.2256
 3926SOL     OW23755   5.060   9.602   9.076 -0.0912 -0.2872  0.2588
 3926SOL    HW123756   5.009   9.550   9.015  0.7036 -0.2869 -0.4077
 3926SOL    HW223757   5.025   9.578   9.162 -1.1514 -0.3503 -0.1740
 3927SOL     OW23758   8.700   2.215   9.359  0.1677  0.1680  0.4046
 3927SOL    HW123759   8.787   2.224   9.397 -0.5490  0.7253  2.0035
 3927SOL    HW223760   8.658   2.146   9.411 -0.8034  0.8444  0.5447
 3928SOL     OW23761   1.301   2.414  10.212 -0.5860 -0.1574  0.8329
 3928SOL    HW123762   1.266   2.495  10.174 -0.5969  0.4187  2.0044
 3928SOL    HW223763   1.224   2.367  10.243 -0.4629  0.4498  2.1451
 3929SOL     OW23764   3.160   5.096   7.583  0.1235  0.5770  0.1054
 3929SOL    HW123765   3.218   5.058   7.518  0.9858  0.9647  0.6285
 3929SOL    HW223766   3.072   5.073   7.554  0.5891 -1.1625  0.0083
 3930SOL     OW23767   7.476   4.119   3.776 -0.3271 -0.0722 -0.5433
 3930SOL    HW123768   7.557   4.073   3.756  0.1319  0.4144  0.1529
 3930SOL    HW223769   7.458   4.172   3.698  1.0441  1.2439 -0.0149
 3931SOL     OW23770   5.253   2.132   2.454 -0.1497 -0.2967  0.1293
 3931SOL    HW123771   5.167   2.150   2.416 -0.8341 -0.9056  1.3143
 3931SOL    HW223772   5.235   2.117   2.547  0.8028 -3.3070 -0.0745
 3932SOL     OW23773   5.864   9.266   2.472  0.3569 -0.4128 -0.2577
 3932SOL    HW123774   5.879   9.185   2.520 -0.0062 -0.1397  0.3325
 3932SOL    HW223775   5.771   9.263   2.449 -0.5245  1.2345  2.5193
 3933SOL     OW23776   1.699   2.847   9.838  0.1561  0.4022  0.1652
 3933SOL    HW123777   1.734   2.779   9.896 -0.9050  0.4864  0.9385
 3933SOL    HW223778   1.748   2.926   9.860 -1.1323  0.7685  1.9637
 3934SOL     OW23779   6.421   3.774   7.748  0.2288 -0.4836  0.1632
 3934SOL    HW123780   6.479   3.831   7.799  0.2292 -1.0657  0.8199
 3934SOL    HW223781   6.393   3.829   7.674 -0.1751  0.5339  1.0478
 3935SOL     OW23782   4.117   1.171   7.158 -0.2398  0.2547 -0.2507
 3935SOL    HW123783   4.042   1.198   7.211  0.3054  0.3282  0.5072
 3935SOL    HW223784   4.086   1.094   7.110 -0.4649 -0.4155  0.9278
 3936SOL     OW23785   0.835   4.056   5.876  0.4360  0.7223  0.3195
 3936SOL    HW123786   0.754   4.082   5.920  0.8343  0.9037  0.9600
 3936SOL    HW223787   0.821   4.080   5.784 -0.5538 -0.0210  0.2653
 3937SOL     OW23788   2.994   1.420   5.739  0.2906 -0.8550  0.0616
 3937SOL    HW123789   3.034   1.498   5.777  0.2224 -0.2272 -1.1278
 3937SOL    HW223790   3.051   1.396   5.666 -0.5666 -0.9469 -0.5979
 3938SOL     OW23791   5.031   2.725   8.784  0.0922  0.0308  0.1846
 3938SOL    HW123792   5.006   2.655   8.845 -0.3807  0.3896  0.4093
 3938SOL    HW223793   5.125   2.714   8.772 -0.0289 -0.8593 -0.0483
 3939SOL     OW23794   1.571   8.847   8.572  0.4642  0.1560 -0.4242
 3939SOL    HW123795   1.522   8.869   8.493 -0.7485 -1.0972 -0.0709
 3939SOL    HW223796   1.511   8.867   8.644  0.0902 -2.1388 -0.0087
 3940SOL     OW23797   8.254   6.002   1.537 -0.0033 -0.1227  0.3174
 3940SOL    HW123798   8.227   6.056   1.611 -0.9943 -1.5738  1.0594
 3940SOL    HW223799   8.343   5.975   1.557 -0.4104 -0.8477  1.2144
 3941SOL     OW23800   9.998   7.547   3.870  0.7602  0.4012  0.3148
 3941SOL    HW123801  10.024   7.494   3.945 -0.5613  0.3330  0.7508
 3941SOL    HW223802  10.051   7.626   3.877  1.0540  0.1470  0.9961
 3942SOL     OW23803   6.868   8.429   4.573 -0.4650  0.1342  0.1670
 3942SOL    HW123804   6.938   8.375   4.609  0.4201  0.1281 -1.5022
 3942SOL    HW223805   6.911   8.510   4.545 -0.8760 -0.3091 -1.8993
 3943SOL     OW23806   2.107   3.264   7.063  0.2109 -0.5419  0.2240
 3943SOL    HW123807   2.102   3.359   7.073 -0.2571 -0.5576  0.1433
 3943SOL    HW223808   2.082   3.247   6.972 -1.0687 -0.8439  0.6089
 3944SOL     OW23809   2.301   7.438   3.638  0.0083 -0.1631  0.3616
 3944SOL    HW123810   2.309   7.445   3.734 -0.9709 -0.5541  0.4780
 3944SOL    HW223811   2.229   7.496   3.616 -1.5820 -2.1130  0.1943
 3945SOL     OW23812   0.483   0.411   9.117 -0.1975  0.2355 -0.2997
 3945SOL    HW123813   0.445   0.332   9.157 -0.0914 -0.1466 -0.9460
 3945SOL    HW223814   0.433   0.424   9.037 -0.1950  0.8189 -0.2080
 3946SOL     OW23815   9.579   4.258   4.202  0.3572 -0.3642 -0.4293
 3946SOL    HW123816   9.639   4.307   4.259 -0.5767 -1.1103  1.2830
 3946SOL    HW223817   9.495   4.304   4.211 -0.2389 -1.5525  0.2728
 3947SOL     OW23818   2.202   5.014   8.620 -0.2549  0.5581 -0.1348
 3947SOL    HW123819   2.255   5.094   8.622  0.5860  0.0018  0.3466
 3947SOL    HW223820   2.151   5.017   8.701  1.0114 -0.1992  0.7127
 3948SOL     OW23821   7.142   4.211   8.416  0.6278  0.5126 -0.5261
 3948SOL    HW123822   7.185   4.239   8.496  1.4729 -0.1333 -0.7337
 3948SOL    HW223823   7.080   4.280   8.396  0.6942  0.8699  0.4645
 3949SOL     OW23824  10.359   4.264   2.362 -0.3225 -0.3219  0.0367
 3949SOL    HW123825  10.353   4.309   2.447  2.0366  3.7444 -1.6676
 3949SOL    HW223826  10.287   4.300   2.311  0.4343  0.0550 -0.7767
 3950SOL     OW23827   6.221   9.857   7.739 -0.4975  0.2676 -0.2957
 3950SOL    HW123828   6.313   9.870   7.762 -0.3310 -1.4930  0.1694
 3950SOL    HW223829   6.176   9.844   7.822 -0.4445 -2.8622 -0.6563
 3951SOL     OW23830   4.591   5.052   6.601 -0.5127  0.1041 -0.1382
 3951SOL    HW123831   4.631   5.021   6.683  1.6993  1.7504 -0.5150
 3951SOL    HW223832   4.630   5.138   6.586 -0.7531 -0.1883 -2.9978
 3952SOL     OW23833   5.019   5.273   7.640  0.1608 -0.2540 -0.0706
 3952SOL    HW123834   5.057   5.217   7.707  1.4685 -0.8509 -1.2540
 3952SOL    HW223835   5.094   5.313   7.596 -0.7123  1.9033  0.2681
 3953SOL     OW23836   9.153   7.241   0.964 -0.3936 -0.0517 -0.0786
 3953SOL    HW123837   9.183   7.150   0.962 -1.6340 -0.5790  1.9129
 3953SOL    HW223838   9.191   7.281   0.886 -0.3746 -2.4519 -1.3910
 3954SOL     OW23839   5.524   9.726   3.003  0.3657  0.0993  0.3624
 3954SOL    HW123840   5.486   9.679   2.928 -0.7371 -0.8891  1.4864
 3954SOL    HW223841   5.457   9.789   3.027  0.8942  0.6989  0.2762
 3955SOL     OW23842  10.226   0.625   5.832 -0.0135  0.1822  0.0198
 3955SOL    HW123843  10.304   0.579   5.861  0.2388  0.0369 -0.8665
 3955SOL    HW223844  10.180   0.647   5.913  1.3867  1.0625  0.6229
 3956SOL     OW23845   7.019   5.104   8.044  0.6538 -0.7523 -0.1877
 3956SOL    HW123846   7.086   5.148   7.992 -0.6632 -1.4001 -2.5901
 3956SOL    HW223847   6.939   5.153   8.025  0.2159 -0.5057  1.9711
 3957SOL     OW23848   9.912   2.409   7.071  0.3049 -0.0137 -0.0148
 3957SOL    HW123849   9.911   2.321   7.034  1.9468 -1.1624  2.4323
 3957SOL    HW223850   9.837   2.412   7.130 -1.0308  1.0517 -1.6933
 3958SOL     OW23851   6.112   1.797   4.493 -0.0195 -0.0065 -0.2807
 3958SOL    HW123852   6.157   1.713   4.483  0.6109  0.4702 -1.6395
 3958SOL    HW223853   6.126   1.820   4.585 -0.3858 -1.4720  0.1705
 3959SOL     OW23854   9.146   8.100   0.476  0.2745 -0.3788  0.1319
 3959SOL    HW123855   9.174   8.016   0.441 -1.4239 -0.6453 -0.6848
 3959SOL    HW223856   9.186   8.104   0.563  1.6662 -1.2938 -0.4175
 3960SOL     OW23857   5.456   8.092   7.987  0.4870 -0.4122  0.4494
 3960SOL    HW123858   5.485   8.183   7.994  1.4244 -0.7952  1.9694
 3960SOL    HW223859   5.470   8.070   7.895 -1.9216  1.6283 -0.5199
 3961SOL     OW23860   8.129   2.366   8.889  0.3637  0.1194  0.7900
 3961SOL    HW123861   8.124   2.273   8.913  0.0174 -0.1030 -0.1003
 3961SOL    HW223862   8.112   2.412   8.971 -1.8774 -0.6104  0.7933
 3962SOL     OW23863   0.268   3.007   7.778 -0.1398 -0.4261  0.0345
 3962SOL    HW123864   0.218   3.080   7.814 -0.3942  0.9554 -2.7622
 3962SOL    HW223865   0.209   2.932   7.782 -0.5710 -0.0365  1.2645
 3963SOL     OW23866   0.683   2.209   4.265  0.1040 -0.3240  0.0738
 3963SOL    HW123867   0.721   2.279   4.319 -1.6146 -0.2273  1.2524
 3963SOL    HW223868   0.643   2.150   4.329 -0.0602 -1.4197 -1.0148
 3964SOL     OW23869   7.758   4.739   3.920 -0.1180  0.1850 -0.1201
 3964SOL    HW123870   7.750   4.736   3.824 -1.7095  0.2328 -0.0213
 3964SOL    HW223871   7.844   4.702   3.938  0.3585  0.4841 -1.5867
 3965SOL     OW23872   0.237   4.673   0.906  0.3354 -0.4792  0.4678
 3965SOL    HW123873   0.305   4.617   0.868  0.5317  0.3366 -0.4232
 3965SOL    HW223874   0.281   4.756   0.923 -0.5522  0.2485 -0.6365
 3966SOL     OW23875   7.055   1.635   6.188  0.7696  0.3305 -0.4841
 3966SOL    HW123876   7.145   1.664   6.172  0.9554 -0.1245 -0.2865
 3966SOL    HW223877   7.046   1.637   6.283  1.0286 -0.9365 -0.4094
 3967SOL     OW23878   5.626   0.176   8.499  0.5350 -0.1132 -0.0033
 3967SOL    HW123879   5.656   0.124   8.425  1.8610  0.6161 -0.0142
 3967SOL    HW223880   5.623   0.115   8.572  0.1809 -0.6235 -0.4376
 3968SOL     OW23881   5.283   6.584   6.549  0.6528  0.0535 -0.1945
 3968SOL    HW123882   5.325   6.498   6.552  0.7235  0.1136  0.6496
 3968SOL    HW223883   5.339   6.635   6.490 -0.9491 -1.2656 -3.1287
 3969SOL     OW23884   1.898   8.944   5.701  0.0463 -0.0288  0.1113
 3969SOL    HW123885   1.988   8.942   5.732 -0.0046  0.4435  0.2884
 3969SOL    HW223886   1.854   9.009   5.756  0.0051  0.9546 -1.0400
 3970SOL     OW23887   3.662   8.461   7.156 -0.0062 -0.1201 -0.1078
 3970SOL    HW123888   3.606   8.424   7.088  1.1656 -0.6858 -0.7874
 3970SOL    HW223889   3.661   8.556   7.139 -1.4002 -0.0210  0.4090
 3971SOL     OW23890   5.665   7.987   1.600  0.1570  0.6269  0.4471
 3971SOL    HW123891   5.719   7.973   1.678  1.1088  0.5698 -0.2119
 3971SOL    HW223892   5.699   7.926   1.536 -1.0909  0.1692  0.1991
 3972SOL     OW23893   7.762   7.061   2.215  0.3315 -0.0621  0.3245
 3972SOL    HW123894   7.845   7.014   2.204 -0.3860 -1.9550  2.3230
 3972SOL    HW223895   7.788   7.148   2.244  1.6533 -0.7224  1.2810
 3973SOL     OW23896   9.821   9.608   7.674 -0.0757 -0.0375  0.8181
 3973SOL    HW123897   9.862   9.668   7.737 -0.7861 -1.8097  3.1354
 3973SOL    HW223898   9.730   9.602   7.703 -0.5353 -0.6095 -0.6624
 3974SOL     OW23899   8.238   0.153   7.749 -0.0270  0.2034  0.1616
 3974SOL    HW123900   8.233   0.137   7.655 -2.0620  0.0516  0.2671
 3974SOL    HW223901   8.235   0.249   7.756 -0.5155  0.1924  0.1044
 3975SOL     OW23902   7.431  10.059   5.266 -0.1413  0.2427 -0.0825
 3975SOL    HW123903   7.479  10.117   5.208  0.2389 -0.1020 -0.1189
 3975SOL    HW223904   7.445  10.095   5.354 -0.6535  0.7201 -0.1920
 3976SOL     OW23905  10.065   2.524   2.191 -0.1446 -0.1241  0.5609
 3976SOL    HW123906  10.126   2.503   2.262  0.5315 -0.1408 -0.0127
 3976SOL    HW223907   9.996   2.576   2.232  0.4452  0.1942  1.1497
 3977SOL     OW23908   7.686   1.966   5.719  0.3600 -0.1158  0.2907
 3977SOL    HW123909   7.692   2.060   5.703 -0.5307  0.0694  0.9834
 3977SOL    HW223910   7.718   1.926   5.638  1.4559  0.7717  0.2727
 3978SOL     OW23911   8.166   5.766   7.174  0.7499  0.2582  0.0943
 3978SOL    HW123912   8.097   5.819   7.133  0.4712 -0.0713  0.1365
 3978SOL    HW223913   8.200   5.822   7.243  2.1794  1.3876 -1.4365
 3979SOL     OW23914   5.087   7.379   0.989  0.1113  0.2697 -0.1546
 3979SOL    HW123915   4.992   7.377   1.002  0.4712 -0.3737  3.9574
 3979SOL    HW223916   5.113   7.287   0.989  0.7881  0.4576 -0.7180
 3980SOL     OW23917   3.359   9.028   0.624  0.1044 -0.1042  0.3429
 3980SOL    HW123918   3.417   9.100   0.600 -1.5339  0.9781 -0.5122
 3980SOL    HW223919   3.292   9.026   0.555 -2.0667  0.0435  2.3138
 3981SOL     OW23920   1.156   7.781   6.465  0.0941 -0.1999  0.1319
 3981SOL    HW123921   1.164   7.824   6.550  2.2350 -0.1687 -0.0384
 3981SOL    HW223922   1.193   7.694   6.479  0.0261 -0.3624 -0.6594
 3982SOL     OW23923   4.792   8.787   7.940  0.0901 -0.6574  0.4325
 3982SOL    HW123924   4.707   8.826   7.924 -0.3293 -0.8970  1.8711
 3982SOL    HW223925   4.817   8.819   8.027  0.2119 -2.6651  1.1991
 3983SOL     OW23926   6.021   8.637   4.537 -0.3611 -0.5099 -0.5845
 3983SOL    HW123927   6.108   8.634   4.578 -1.2456 -1.0088  1.3854
 3983SOL    HW223928   6.025   8.570   4.469  0.7415 -0.6466 -0.4192
 3984SOL     OW23929   8.425   4.917   0.625  0.5222 -0.3432  0.5832
 3984SOL    HW123930   8.364   4.846   0.606 -3.3528  3.0084 -1.1479
 3984SOL    HW223931   8.489   4.913   0.554  1.2314 -2.7687  1.2729
 3985SOL     OW23932   0.274   1.124   5.992 -0.0294 -0.0222  0.5340
 3985SOL    HW123933   0.364   1.141   5.966 -0.0836 -0.9131 -0.3002
 3985SOL    HW223934   0.245   1.055   5.933 -1.8465  1.5042 -0.4916
 3986SOL     OW23935   2.769   0.463   6.426 -0.0159  0.3855 -0.2749
 3986SOL    HW123936   2.815   0.547   6.435  2.9849 -0.9577 -1.4929
 3986SOL    HW223937   2.710   0.477   6.352 -0.3221  1.6955  0.1846
 3987SOL     OW23938   9.340   5.128   2.187 -0.0984  0.0313 -0.0234
 3987SOL    HW123939   9.369   5.047   2.145 -0.7873  0.2794 -1.0157
 3987SOL    HW223940   9.317   5.185   2.114  0.3469  1.1162  0.6728
 3988SOL     OW23941   9.119   7.848   9.256 -0.3876 -0.4710  1.1175
 3988SOL    HW123942   9.136   7.934   9.295  0.6656 -0.9182  1.7063
 3988SOL    HW223943   9.205   7.817   9.228 -0.9109 -0.8458 -0.1658
 3989SOL     OW23944   1.918   7.332   0.283 -0.0542 -0.2195  0.1732
 3989SOL    HW123945   1.882   7.363   0.366  1.5039 -0.5019  0.9806
 3989SOL    HW223946   1.888   7.241   0.276  1.3385 -0.8064  1.3751
 3990SOL     OW23947   1.801   8.284   6.536  0.0727  0.6738  0.3248
 3990SOL    HW123948   1.744   8.316   6.465  0.5881 -1.1153 -0.9641
 3990SOL    HW223949   1.796   8.189   6.529  0.9989  0.4737  2.0390
 3991SOL     OW23950   3.714   8.378   8.608  0.3907 -1.0811  0.3888
 3991SOL    HW123951   3.726   8.461   8.561 -1.2199  0.0194  1.7919
 3991SOL    HW223952   3.619   8.367   8.611  0.5592 -2.4594  1.1433
 3992SOL     OW23953   5.329   3.803   5.679 -0.6224  0.4052  0.4967
 3992SOL    HW123954   5.341   3.790   5.585  1.4886 -2.1755  0.9901
 3992SOL    HW223955   5.341   3.897   5.691  1.5271  0.5095 -1.5804
 3993SOL     OW23956   1.339   4.986   0.064 -0.1848  0.0047  0.2147
 3993SOL    HW123957   1.276   4.935   0.013  1.1106  2.2294 -4.0630
 3993SOL    HW223958   1.302   5.074   0.066  1.3446  0.6664  0.3391
 3994SOL     OW23959   6.096   8.655   9.925 -0.0281  0.6230  0.1274
 3994SOL    HW123960   6.156   8.723   9.958  0.6952 -0.0699  0.2760
 3994SOL    HW223961   6.136   8.625   9.844  0.5865 -0.8171  0.9259
 3995SOL     OW23962   1.486   1.920   5.157  0.2627 -0.5760  0.3220
 3995SOL    HW123963   1.498   1.964   5.241  2.4987  3.9926 -2.0191
 3995SOL    HW223964   1.575   1.893   5.132 -0.3310 -1.6215 -0.7534
 3996SOL     OW23965   1.009   8.557   2.458 -0.2382 -0.5973  0.6187
 3996SOL    HW123966   0.945   8.607   2.508 -1.0489 -0.5684 -0.4189
 3996SOL    HW223967   0.984   8.570   2.366 -0.2820 -2.6546  0.2961
 3997SOL     OW23968   1.088   8.270   2.763 -0.4230 -0.0913  0.6708
 3997SOL    HW123969   1.100   8.208   2.835 -0.3897 -1.1992 -0.2606
 3997SOL    HW223970   1.146   8.343   2.784 -1.2010  0.0905  2.2882
 3998SOL     OW23971   7.757   0.743   3.982  0.0253  0.1886  0.1473
 3998SOL    HW123972   7.793   0.786   3.905  0.8461  2.6961  1.7930
 3998SOL    HW223973   7.665   0.727   3.961  0.0607  1.4703 -1.0980
 3999SOL     OW23974   1.128   8.885   8.956 -0.3083 -0.0119  0.1528
 3999SOL    HW123975   1.141   8.793   8.934  0.1002 -0.1808  1.0551
 3999SOL    HW223976   1.115   8.886   9.051 -0.3170  0.8560  0.1541
 4000SOL     OW23977   3.670   6.416   6.682 -0.1591 -0.0014 -0.3216
 4000SOL    HW123978   3.758   6.402   6.648  0.7604  0.4768  1.7306
 4000SOL    HW223979   3.671   6.376   6.769 -1.8534  0.3548 -0.1001
 4001SOL     OW23980   8.875   7.577   0.300  0.3871  0.6472  0.8116
 4001SOL    HW123981   8.785   7.578   0.268  1.0305 -1.4702 -1.3546
 4001SOL    HW223982   8.872   7.521   0.378 -0.2406  0.9627  1.0195
 4002SOL     OW23983   6.853   0.293   5.817  0.1837 -0.3153  0.0833
 4002SOL    HW123984   6.858   0.366   5.879 -1.4537  0.0655 -0.1805
 4002SOL    HW223985   6.911   0.226   5.853  0.5965  0.5672  1.1003
 4003SOL     OW23986   2.199   7.425   8.161  0.5957 -0.1979  0.1865
 4003SOL    HW123987   2.257   7.501   8.163  0.4294 -0.0672  0.1459
 4003SOL    HW223988   2.242   7.360   8.218  1.1958 -0.4166 -0.5059
 4004SOL     OW23989   1.641   0.051   8.307  0.5771 -0.3354 -0.0577
 4004SOL    HW123990   1.557   0.019   8.275  1.5240 -4.2646  0.7953
 4004SOL    HW223991   1.692   0.069   8.228 -0.5538  0.8000 -0.5720
 4005SOL     OW23992   1.546   9.032   6.256 -0.3282 -0.2641 -0.1429
 4005SOL    HW123993   1.505   8.982   6.327  0.1840 -0.7102 -0.1524
 4005SOL    HW223994   1.473   9.057   6.199 -0.5192 -1.8198 -0.6453
 4006SOL     OW23995   4.877   6.025  10.388 -0.3374 -0.2029 -0.0018
 4006SOL    HW123996   4.894   5.975  10.308  1.4223  2.0783 -1.1865
 4006SOL    HW223997   4.849   5.959  10.452 -2.0294 -2.1042 -2.4932
 4007SOL     OW23998   0.756   9.351   4.516 -0.0020  0.2980 -0.1012
 4007SOL    HW123999   0.830   9.293   4.496 -0.1187  0.6235 -1.5881
 4007SOL    HW224000   0.751   9.411   4.442 -1.3408  0.7270  0.2952
 4008SOL     OW24001   2.828   4.432   1.013  0.3718 -0.3755 -0.0280
 4008SOL    HW124002   2.849   4.483   1.092  0.5735 -0.5500  0.0313
 4008SOL    HW224003   2.802   4.346   1.046  0.2831 -0.3936 -0.1438
 4009SOL     OW24004   2.204   5.231   5.679  0.0567 -0.8818  0.3083
 4009SOL    HW124005   2.228   5.312   5.722  1.9883 -1.9318  1.3342
 4009SOL    HW224006   2.234   5.241   5.589  0.5976 -0.5978  0.5188
 4010SOL     OW24007   8.140   2.672   9.326  0.3225 -0.3607 -0.2485
 4010SOL    HW124008   8.148   2.613   9.251 -0.0476 -1.4894  0.5630
 4010SOL    HW224009   8.183   2.625   9.397  2.1631  1.4258 -0.1118
 4011SOL     OW24010   1.105   6.073   7.780  0.6705 -0.6580 -0.4799
 4011SOL    HW124011   1.135   6.162   7.757 -1.2383 -0.0073 -0.5910
 4011SOL    HW224012   1.148   6.055   7.864  1.1120  0.3648 -0.4603
 4012SOL     OW24013  10.363   1.652   7.898  0.3105  0.3491 -0.4419
 4012SOL    HW124014  10.334   1.693   7.817 -2.9395  0.4969  0.6248
 4012SOL    HW224015  10.339   1.560   7.888  0.1828  0.3073  0.1948
 4013SOL     OW24016   0.496   4.920   3.130  0.2278 -0.1204  0.4488
 4013SOL    HW124017   0.535   4.850   3.182  0.1514  0.1499  0.8694
 4013SOL    HW224018   0.493   4.995   3.188  0.3760  0.2571 -0.0286
 4014SOL     OW24019   2.691   7.476   2.994  0.3921 -0.1394  0.2504
 4014SOL    HW124020   2.717   7.519   3.075  1.8688 -0.2445 -0.1453
 4014SOL    HW224021   2.639   7.543   2.947 -0.5441 -0.1088  1.2849
 4015SOL     OW24022   7.572   0.130   6.680  0.7095  0.3135 -0.1126
 4015SOL    HW124023   7.569   0.164   6.590 -1.6427  0.2277 -0.1326
 4015SOL    HW224024   7.631   0.188   6.726 -0.4641  2.3003 -0.9913
 4016SOL     OW24025   9.762   8.286   1.121  0.1419 -0.3678  0.9143
 4016SOL    HW124026   9.728   8.295   1.211 -0.4662 -0.5696  0.7056
 4016SOL    HW224027   9.699   8.229   1.077  1.2650 -1.5548  0.7886
 4017SOL     OW24028   4.230   7.830   4.191 -0.0408  0.1964 -1.0384
 4017SOL    HW124029   4.300   7.768   4.211 -1.3604 -1.3864 -1.1082
 4017SOL    HW224030   4.241   7.899   4.256  1.5868  0.0098 -1.0703
 4018SOL     OW24031   4.847   9.438   8.060  0.1247  0.2017  0.6394
 4018SOL    HW124032   4.889   9.475   8.138  0.0556  2.6911 -0.4163
 4018SOL    HW224033   4.910   9.454   7.990 -0.1622 -1.2688  0.0257
 4019SOL     OW24034   2.404   9.795   8.289  0.3514  0.2765  0.0537
 4019SOL    HW124035   2.321   9.800   8.241 -1.0067 -1.0489  2.1080
 4019SOL    HW224036   2.424   9.702   8.292  0.8587  0.4158  1.3202
 4020SOL     OW24037   6.617   0.450   9.847  0.5115  0.6449 -0.5257
 4020SOL    HW124038   6.570   0.464   9.929 -0.4789  2.8900 -1.3826
 4020SOL    HW224039   6.677   0.378   9.865  0.8817  1.5532  2.4279
 4021SOL     OW24040   0.653   2.766   5.013  0.6598  0.6779 -0.1105
 4021SOL    HW124041   0.576   2.755   4.957 -0.3131  0.3303  1.2245
 4021SOL    HW224042   0.718   2.705   4.977  1.5062  3.1327 -3.1294
 4022SOL     OW24043   9.457   8.176   6.553 -0.1550 -0.3919  0.2149
 4022SOL    HW124044   9.509   8.154   6.475 -0.9271  1.9177 -1.0820
 4022SOL    HW224045   9.378   8.123   6.545  0.5053 -1.4186  0.3658
 4023SOL     OW24046   8.386   7.961   6.417 -0.0992  0.4519 -0.3102
 4023SOL    HW124047   8.354   7.912   6.342 -0.3688  1.4718 -0.8914
 4023SOL    HW224048   8.443   8.029   6.379  0.2889  0.5734  0.4591
 4024SOL     OW24049   7.683   4.991   9.665 -0.1538  0.1453  0.0108
 4024SOL    HW124050   7.646   4.951   9.586  3.0720 -0.1145 -1.5254
 4024SOL    HW224051   7.737   5.063   9.633  0.3742  0.7774  2.1316
 4025SOL     OW24052   1.689   0.198   9.034 -0.1317 -0.0228 -0.4415
 4025SOL    HW124053   1.645   0.202   9.119 -0.2047 -0.6477 -0.4465
 4025SOL    HW224054   1.642   0.130   8.987  2.4919 -2.6682  0.5047
 4026SOL     OW24055   9.917   5.629   0.525 -0.2525 -0.1376 -0.3985
 4026SOL    HW124056   9.986   5.583   0.572 -0.6508 -0.1560  0.1838
 4026SOL    HW224057   9.837   5.607   0.573 -0.3438  1.8895  0.4909
 4027SOL     OW24058   9.153   2.691   9.802 -0.2841  0.5054 -0.1404
 4027SOL    HW124059   9.152   2.756   9.732 -0.4105 -0.5209 -1.1195
 4027SOL    HW224060   9.074   2.709   9.852 -1.2576  0.0288 -1.4509
 4028SOL     OW24061   6.902   0.224   7.149  0.2600 -0.5918 -0.5176
 4028SOL    HW124062   6.864   0.247   7.064  0.4511  2.1831  0.0826
 4028SOL    HW224063   6.827   0.219   7.209  0.3690  0.1451 -0.3122
 4029SOL     OW24064   4.543   4.128   5.788 -0.2142 -0.4807 -0.1966
 4029SOL    HW124065   4.636   4.134   5.810  0.6091 -0.6693 -3.2385
 4029SOL    HW224066   4.505   4.208   5.825  0.6737 -1.3273  2.8149
 4030SOL     OW24067   2.630   4.032   5.541 -0.3015  0.0727 -0.0887
 4030SOL    HW124068   2.551   4.056   5.590 -0.7987  1.5340 -1.5276
 4030SOL    HW224069   2.611   3.944   5.508 -1.4005  0.4563 -0.5272
 4031SOL     OW24070   1.089   9.819   1.420 -0.3039  0.1798 -0.3218
 4031SOL    HW124071   1.133   9.746   1.464  0.6184  0.0842 -1.3720
 4031SOL    HW224072   1.012   9.836   1.474  0.6172 -0.1441  1.1283
 4032SOL     OW24073   7.325   6.865   4.771  0.1673  0.1972  0.0781
 4032SOL    HW124074   7.391   6.898   4.710 -0.3876 -0.9989 -1.2188
 4032SOL    HW224075   7.271   6.942   4.791  1.7624  1.1379  0.9751
 4033SOL     OW24076   0.635   9.158   7.203 -0.1274  0.2626  0.8018
 4033SOL    HW124077   0.554   9.151   7.253 -0.3853  0.2063  0.3823
 4033SOL    HW224078   0.704   9.168   7.269 -0.1889 -1.9860  1.3003
 4034SOL     OW24079   5.299   6.322   0.621 -0.3340 -0.2379 -0.2912
 4034SOL    HW124080   5.368   6.387   0.614  0.7661 -1.4508 -1.0801
 4034SOL    HW224081   5.251   6.329   0.538 -0.7380  0.1352 -0.0282
 4035SOL     OW24082   4.366   6.723   9.723 -0.0303 -0.1730  0.5657
 4035SOL    HW124083   4.383   6.656   9.657  0.9759  1.0451 -0.4646
 4035SOL    HW224084   4.452   6.747   9.757 -0.3897  0.3958  1.1128
 4036SOL     OW24085   7.638   0.992   6.032 -0.3810  0.3230 -0.0260
 4036SOL    HW124086   7.555   0.967   5.991  1.5877 -0.7147 -3.8847
 4036SOL    HW224087   7.691   0.912   6.032  2.2954  1.8828 -2.5301
 4037SOL     OW24088   4.226   9.972   9.364  0.1169  0.6036 -0.0672
 4037SOL    HW124089   4.308  10.019   9.380  0.7647  0.2550 -2.0207
 4037SOL    HW224090   4.193   9.951   9.451  0.2488  3.8150  0.8940
 4038SOL     OW24091   9.693   4.553   8.529  0.3786 -0.3463  0.1278
 4038SOL    HW124092   9.620   4.503   8.566 -0.0378  0.8824  1.0395
 4038SOL    HW224093   9.653   4.633   8.496  1.2102  0.0045 -0.0459
 4039SOL     OW24094   8.383   9.072   5.631 -0.2964  0.2411  0.5808
 4039SOL    HW124095   8.416   9.058   5.543 -2.2534 -1.3807  0.0202
 4039SOL    HW224096   8.453   9.042   5.689 -0.0075 -1.2092 -0.4886
 4040SOL     OW24097   0.555   3.817   4.603 -0.6071  0.8211  0.0327
 4040SOL    HW124098   0.649   3.805   4.594 -0.7630  0.5508 -1.6231
 4040SOL    HW224099   0.518   3.729   4.589 -1.1221  0.9988  0.2479
 4041SOL     OW24100   0.478   6.761   5.434 -0.1102  0.0725 -0.7184
 4041SOL    HW124101   0.485   6.751   5.529  0.3685  1.0424 -0.6342
 4041SOL    HW224102   0.566   6.741   5.401 -0.6061 -1.6284 -1.1206
 4042SOL     OW24103   9.702   7.315   6.898 -0.3028  0.6131  0.2722
 4042SOL    HW124104   9.657   7.231   6.905  0.0393  0.4694  0.8351
 4042SOL    HW224105   9.685   7.358   6.982  2.0976 -0.2209  1.2939
 4043SOL     OW24106   9.360   3.586   4.933  0.0980 -0.3965  0.2605
 4043SOL    HW124107   9.276   3.628   4.952  0.9616  1.6911 -0.1899
 4043SOL    HW224108   9.402   3.577   5.018 -0.0588 -0.2295  0.3566
 4044SOL     OW24109   4.856   3.408   8.234  0.1025  0.1445 -0.3078
 4044SOL    HW124110   4.896   3.424   8.149 -1.2397  0.5076 -0.9047
 4044SOL    HW224111   4.891   3.324   8.262  1.5823  0.6389 -0.5808
 4045SOL     OW24112   8.021  10.272   8.386  0.3936 -0.2254 -0.1497
 4045SOL    HW124113   7.947  10.322   8.421  0.2294 -0.5638 -0.0105
 4045SOL    HW224114   8.082  10.339   8.355  0.9687  0.1128  1.6076
 4046SOL     OW24115   0.806   0.359   6.964  0.2810  0.1356  0.4971
 4046SOL    HW124116   0.807   0.374   6.869  3.3809 -1.4817  0.1342
 4046SOL    HW224117   0.737   0.293   6.976 -0.8616  1.1037 -0.4381
 4047SOL     OW24118  10.078   8.771   8.992  0.0542  0.3092  0.0466
 4047SOL    HW124119  10.162   8.790   8.949  0.2664 -3.7019 -1.7623
 4047SOL    HW224120  10.097   8.700   9.052 -1.4188  2.0443  2.8082
 4048SOL     OW24121   9.551   4.550   2.810 -0.3106  0.0721 -0.5983
 4048SOL    HW124122   9.506   4.551   2.725 -0.5901  0.5633 -0.4465
 4048SOL    HW224123   9.590   4.637   2.817 -0.7594  0.2270  0.0292
 4049SOL     OW24124   2.017   9.645   6.661  0.0304 -0.2670 -0.3338
 4049SOL    HW124125   2.095   9.695   6.684  0.6018 -0.7354 -1.1794
 4049SOL    HW224126   1.986   9.608   6.744  0.9445 -0.4010 -0.0456
 4050SOL     OW24127   0.692   6.837   6.174  0.7472 -0.4818  0.7526
 4050SOL    HW124128   0.706   6.824   6.268  0.7186 -1.7287  0.6029
 4050SOL    HW224129   0.754   6.777   6.132  0.1143 -0.6157 -0.0113
 4051SOL     OW24130   9.066   9.503   7.681 -0.4828  0.2891  0.4222
 4051SOL    HW124131   9.105   9.465   7.603 -1.1843  0.4600 -0.0206
 4051SOL    HW224132   9.140   9.540   7.730 -0.0472  0.2239 -0.1860
 4052SOL     OW24133   1.706   0.438   9.933 -0.0490 -0.0875  0.0383
 4052SOL    HW124134   1.733   0.355   9.893  0.3423 -0.3504  0.8354
 4052SOL    HW224135   1.628   0.464   9.883  0.1830 -0.6182 -0.6184
 4053SOL     OW24136   1.255   5.071   1.484 -0.5862 -0.1288  0.8088
 4053SOL    HW124137   1.311   5.141   1.514 -2.0966  1.3255  0.4040
 4053SOL    HW224138   1.214   5.105   1.404 -1.9694 -1.1417  1.0378
 4054SOL     OW24139   0.983   4.984   7.523  0.4872  0.0107  0.2444
 4054SOL    HW124140   0.919   5.017   7.586  0.6191 -0.3725  0.5787
 4054SOL    HW224141   0.995   5.057   7.461 -2.5450 -0.9081 -1.6526
 4055SOL     OW24142   0.475   9.530   4.396 -0.9022 -0.1437  0.1887
 4055SOL    HW124143   0.547   9.479   4.359 -1.0360 -0.6726  0.6355
 4055SOL    HW224144   0.414   9.543   4.323 -1.6989 -2.1407  0.4309
 4056SOL     OW24145   8.206   5.902   4.814  0.1108 -0.7384  0.1591
 4056SOL    HW124146   8.177   5.993   4.825  1.0789 -0.6076  1.9139
 4056SOL    HW224147   8.299   5.909   4.794 -0.4163 -1.2637 -2.9987
 4057SOL     OW24148   4.158   0.530   3.078 -0.6067  0.3834  0.1046
 4057SOL    HW124149   4.159   0.437   3.056 -1.0521  0.1470  1.0482
 4057SOL    HW224150   4.205   0.572   3.006 -1.5319 -0.4210 -1.0105
 4058SOL     OW24151   4.234   0.962   8.699  0.3912 -0.1257 -0.2397
 4058SOL    HW124152   4.308   0.962   8.760  1.2401  1.9273 -1.1662
 4058SOL    HW224153   4.159   0.989   8.752  0.6846 -0.3296  0.2946
 4059SOL     OW24154   5.072   4.700   9.601  0.2131 -0.0512 -0.3063
 4059SOL    HW124155   5.138   4.752   9.646 -0.7229  0.8661  0.0585
 4059SOL    HW224156   5.081   4.612   9.637  1.4626 -0.0280 -0.5388
 4060SOL     OW24157   8.267   7.773   5.616  0.3964 -0.0044 -0.2196
 4060SOL    HW124158   8.307   7.686   5.610 -2.0264 -1.3893  1.8424
 4060SOL    HW224159   8.188   7.766   5.562 -0.0930  0.7227  0.3877
 4061SOL     OW24160   9.180   5.895   0.074  1.4983 -0.2306  0.7176
 4061SOL    HW124161   9.157   5.883   0.166 -2.1673 -2.9168 -0.2911
 4061SOL    HW224162   9.223   5.813   0.050  1.0574 -0.1906 -0.2538
 4062SOL     OW24163   0.105   0.878   3.854 -0.3370 -0.4440  0.1522
 4062SOL    HW124164   0.109   0.945   3.787 -0.1141 -0.6927 -0.0845
 4062SOL    HW224165   0.133   0.798   3.810  0.8762 -0.4069  0.7880
 4063SOL     OW24166   1.328   3.351   2.753  0.1888 -0.3530  0.1268
 4063SOL    HW124167   1.247   3.401   2.753 -0.0524 -0.7163  1.1875
 4063SOL    HW224168   1.304   3.265   2.787  0.9175 -0.6418 -0.0555
 4064SOL     OW24169   0.711   6.024   4.232  0.0628  0.8162 -0.2296
 4064SOL    HW124170   0.744   5.949   4.281 -1.2376  1.7388  2.2612
 4064SOL    HW224171   0.789   6.072   4.205  0.8586 -0.0172  0.5253
 4065SOL     OW24172   0.628   3.349   9.016 -0.2733  0.0961  0.0882
 4065SOL    HW124173   0.550   3.295   8.999 -0.2229  0.6332 -2.1404
 4065SOL    HW224174   0.690   3.289   9.058 -1.1001 -0.9293 -0.1145
 4066SOL     OW24175   6.229   0.059   8.693 -0.1337  0.1428 -0.2438
 4066SOL    HW124176   6.189   0.136   8.736 -2.1094 -0.1965 -1.3607
 4066SOL    HW224177   6.158   0.022   8.640  1.2184 -1.5812 -0.9228
 4067SOL     OW24178   9.862   7.092   0.213  0.4504  0.0370 -0.0323
 4067SOL    HW124179   9.877   7.055   0.126 -1.4107  1.2104 -0.9149
 4067SOL    HW224180   9.772   7.067   0.235  0.8827 -0.2465  1.5910
 4068SOL     OW24181   5.959  10.187   1.158  0.3368  0.4363  0.0269
 4068SOL    HW124182   5.882  10.163   1.106  1.2825  1.4013 -1.9096
 4068SOL    HW224183   6.032  10.141   1.115  0.9818  0.1838  1.3403
 4069SOL     OW24184   0.831  10.316   9.475 -0.8100  0.1280 -0.1950
 4069SOL    HW124185   0.910  10.262   9.475  0.7490  2.2478  0.4166
 4069SOL    HW224186   0.808  10.327   9.383 -0.5652 -0.7401 -0.3648
 4070SOL     OW24187   3.130   4.713   7.034  0.5691 -0.5318 -0.8614
 4070SOL    HW124188   3.224   4.734   7.030  0.8681 -1.7847 -1.0019
 4070SOL    HW224189   3.126   4.620   7.011 -0.9903  0.0962 -3.4440
 4071SOL     OW24190   8.592   4.357  10.189 -0.1789  0.6240  0.0642
 4071SOL    HW124191   8.635   4.298  10.251  0.0187  0.3840 -0.2981
 4071SOL    HW224192   8.609   4.445  10.224 -0.5159  0.4697  0.6313
 4072SOL     OW24193   1.849   2.398   7.588 -0.1558  0.0942  0.1498
 4072SOL    HW124194   1.791   2.389   7.512 -2.3584 -0.0946  1.7412
 4072SOL    HW224195   1.883   2.487   7.582  0.4724 -0.2158 -1.5082
 4073SOL     OW24196   1.659   1.543   7.732  0.0979 -0.2742 -0.0389
 4073SOL    HW124197   1.570   1.519   7.758  0.2579 -0.8706 -0.0349
 4073SOL    HW224198   1.659   1.638   7.733 -0.6771 -0.2620 -0.4730
 4074SOL     OW24199   1.962   0.675   8.495 -0.0105  0.3159  0.1243
 4074SOL    HW124200   1.906   0.737   8.449  0.0100 -0.0408 -0.3945
 4074SOL    HW224201   2.048   0.718   8.499  0.6917 -0.6284 -2.4410
 4075SOL     OW24202   6.931   4.449   6.467 -0.6424  0.2196  0.4573
 4075SOL    HW124203   6.848   4.412   6.497 -0.5755  0.5357  1.0563
 4075SOL    HW224204   6.998   4.402   6.518 -0.6006  1.7532  1.9019
 4076SOL     OW24205   4.681   8.627   1.695  0.4186 -0.2957 -0.1302
 4076SOL    HW124206   4.595   8.605   1.730  0.7039 -1.9035 -0.3501
 4076SOL    HW224207   4.663   8.693   1.628 -0.3691  1.0970  1.3701
 4077SOL     OW24208   2.621   0.160   5.576  0.5903  0.0462 -0.6938
 4077SOL    HW124209   2.582   0.106   5.508  0.6713 -0.9898  0.0467
 4077SOL    HW224210   2.656   0.236   5.530 -2.1228  0.9545 -1.4161
 4078SOL     OW24211   3.494   3.946   6.302  0.1858  0.2877  0.1847
 4078SOL    HW124212   3.413   3.944   6.250 -0.7613  1.9507  1.4892
 4078SOL    HW224213   3.490   3.868   6.357  0.4981 -0.7133 -1.1437
 4079SOL     OW24214   7.215   7.925   3.641 -0.5134 -0.8819  0.1514
 4079SOL    HW124215   7.282   7.960   3.583 -1.0565 -0.8069 -0.4477
 4079SOL    HW224216   7.208   7.989   3.711  0.1549 -0.9747  0.3048
 4080SOL     OW24217   6.117   8.172   8.358 -0.0785 -0.2494  0.4107
 4080SOL    HW124218   6.073   8.247   8.317  0.0811  0.5688  1.6921
 4080SOL    HW224219   6.178   8.142   8.291 -0.9758  0.0092 -0.5592
 4081SOL     OW24220   5.426   2.071   5.542  0.0219  0.1608 -0.0495
 4081SOL    HW124221   5.481   2.141   5.578  1.1054 -0.8344  0.2998
 4081SOL    HW224222   5.487   1.999   5.526 -1.2360 -1.1319  0.7585
 4082SOL     OW24223   3.436   8.447   8.613 -0.4555  0.0999 -0.3363
 4082SOL    HW124224   3.350   8.428   8.649 -0.3427 -0.8582 -0.5623
 4082SOL    HW224225   3.486   8.481   8.688 -0.4095 -1.2897  0.2820
 4083SOL     OW24226   1.374   5.486  10.040 -0.2252 -0.3203 -0.4071
 4083SOL    HW124227   1.429   5.417  10.078 -0.3746 -0.0530  0.3009
 4083SOL    HW224228   1.302   5.439   9.997 -0.8095 -0.5877  0.8321
 4084SOL     OW24229   7.877   3.991   1.307 -0.2998 -0.0041 -0.0437
 4084SOL    HW124230   7.927   3.910   1.313 -1.4628 -0.6529  2.4065
 4084SOL    HW224231   7.941   4.058   1.286  0.8378 -1.4067 -1.2353
 4085SOL     OW24232   9.868   1.952   0.876  0.4661  0.2203 -0.5208
 4085SOL    HW124233   9.923   1.883   0.913  1.4879  1.8064  1.0604
 4085SOL    HW224234   9.813   1.981   0.949 -0.6374  0.4699 -1.4013
 4086SOL     OW24235   7.456   8.108   3.633  0.2679  0.6419  0.0887
 4086SOL    HW124236   7.517   8.035   3.642  0.5736  0.9130  0.2139
 4086SOL    HW224237   7.511   8.182   3.609 -0.3326  0.2372 -2.8725
 4087SOL     OW24238   1.869   5.756   5.041 -0.1297 -0.1995  0.3261
 4087SOL    HW124239   1.789   5.787   5.083  0.0724 -1.3633  1.6853
 4087SOL    HW224240   1.936   5.765   5.108  0.8698  0.6488 -0.7544
 4088SOL     OW24241   0.928  10.383   5.564  0.1100  0.1216 -0.3052
 4088SOL    HW124242   0.922  10.329   5.642  1.7360 -0.4028 -0.5114
 4088SOL    HW224243   0.860  10.348   5.506  1.0681 -1.6882 -0.4035
 4089SOL     OW24244   1.575   6.748   8.236 -0.3388  0.3554  0.1279
 4089SOL    HW124245   1.645   6.733   8.300  0.8789 -0.6546 -1.3733
 4089SOL    HW224246   1.506   6.687   8.263 -0.2132  0.5601  0.9686
 4090SOL     OW24247   1.806   4.401   4.206  0.1487  0.8246  0.2070
 4090SOL    HW124248   1.893   4.398   4.246 -0.0614  0.0618  0.6219
 4090SOL    HW224249   1.772   4.488   4.229 -0.0205  0.3648  1.8065
 4091SOL     OW24250   2.419   6.466   7.281  0.6323 -0.3925 -0.4366
 4091SOL    HW124251   2.498   6.414   7.266 -0.1797 -2.8497  2.6744
 4091SOL    HW224252   2.347   6.405   7.265 -0.5293  0.8429 -0.1355
 4092SOL     OW24253   5.735   8.371   8.402  0.9172  0.4093 -0.1278
 4092SOL    HW124254   5.663   8.434   8.405  0.9111  0.4431 -0.8509
 4092SOL    HW224255   5.704   8.296   8.453 -0.2096 -0.1735 -1.5899
 4093SOL     OW24256   4.792   9.569   0.086 -0.4167 -0.6125  0.5540
 4093SOL    HW124257   4.885   9.570   0.062 -0.5074  0.6474  0.1910
 4093SOL    HW224258   4.780   9.646   0.141 -1.2736 -0.6956  0.4970
 4094SOL     OW24259   3.484  10.021   2.097  0.4611 -0.1610 -0.1397
 4094SOL    HW124260   3.532   9.955   2.048 -0.3569 -0.6451 -0.2937
 4094SOL    HW224261   3.433  10.068   2.031  1.0556  0.6514 -0.0376
 4095SOL     OW24262   1.622   4.250   6.134  0.3755  0.0356  0.0157
 4095SOL    HW124263   1.572   4.173   6.105  1.3897 -0.3204 -0.8304
 4095SOL    HW224264   1.607   4.315   6.066  0.6435  0.1104  0.0298
 4096SOL     OW24265   8.185   1.822   4.459  0.0670  0.6121  0.0979
 4096SOL    HW124266   8.239   1.883   4.510  0.0453  0.1921  0.6390
 4096SOL    HW224267   8.098   1.862   4.459  0.0681  0.6202  0.3870
 4097SOL     OW24268   6.740   5.800   1.410 -0.3375 -0.1717  0.1366
 4097SOL    HW124269   6.699   5.763   1.332 -0.7821 -0.9905  0.7387
 4097SOL    HW224270   6.820   5.841   1.378 -0.0180 -1.3308 -0.6213
 4098SOL     OW24271   0.944   7.894   3.741 -0.5603  0.6736 -0.0160
 4098SOL    HW124272   0.867   7.845   3.769 -0.6286  1.1832  0.6961
 4098SOL    HW224273   0.909   7.969   3.692 -0.5889  1.5667  1.3240
 4099SOL     OW24274   1.044   1.519   5.025 -0.9147 -0.0411 -0.0437
 4099SOL    HW124275   1.019   1.429   5.002 -0.5142  0.3116 -2.0484
 4099SOL    HW224276   1.137   1.513   5.046 -1.2556 -0.3489  1.4315
 4100SOL     OW24277   3.706   6.083   4.397  0.0935  0.4833  0.2424
 4100SOL    HW124278   3.639   6.133   4.443  0.7122  2.1269 -0.5524
 4100SOL    HW224279   3.749   6.033   4.465 -0.7928  0.7624  1.0296
 4101SOL     OW24280   8.993   4.428   3.469  0.2346 -0.0926 -0.2857
 4101SOL    HW124281   9.067   4.487   3.479  0.0358  0.4838 -1.9421
 4101SOL    HW224282   9.029   4.349   3.429  0.4344 -1.0113  1.5895
 4102SOL     OW24283   7.637   8.049   6.006  0.4253  0.2669  0.0827
 4102SOL    HW124284   7.700   8.087   5.944  2.1306 -0.2426  1.4423
 4102SOL    HW224285   7.552   8.065   5.965  1.4717 -0.2606 -2.5145
 4103SOL     OW24286   1.762   7.409   9.649 -0.1511  0.1258 -0.0296
 4103SOL    HW124287   1.816   7.333   9.626  0.0303  0.0879  0.5026
 4103SOL    HW224288   1.702   7.419   9.575  0.9668  0.5320 -0.9096
 4104SOL     OW24289   7.106   3.808   9.460 -0.3098  0.2967  0.0019
 4104SOL    HW124290   7.140   3.896   9.478  0.0383  0.0580  0.5239
 4104SOL    HW224291   7.183   3.756   9.440 -0.0963 -0.6646  2.8597
 4105SOL     OW24292   9.816  10.052   2.235 -0.5684  0.6046 -0.5624
 4105SOL    HW124293   9.891  10.012   2.279 -0.6387  0.9085 -0.1526
 4105SOL    HW224294   9.758   9.979   2.213 -0.1926  0.3800 -0.8008
 4106SOL     OW24295   5.500   3.849   8.752  0.0775 -0.2578  0.0679
 4106SOL    HW124296   5.480   3.846   8.658 -0.4270 -0.1117  0.1667
 4106SOL    HW224297   5.478   3.938   8.778 -0.8577 -0.6130  0.5493
 4107SOL     OW24298   5.644   7.997   4.564 -0.0086 -0.2584 -0.4526
 4107SOL    HW124299   5.684   8.078   4.534  0.4878 -0.2304  0.2605
 4107SOL    HW224300   5.550   8.013   4.561  0.0825  0.2747 -0.5012
 4108SOL     OW24301   9.898   4.907  10.094 -0.3905  1.1854 -0.1789
 4108SOL    HW124302   9.815   4.876  10.057  0.1264  0.4498 -0.7652
 4108SOL    HW224303   9.965   4.866  10.039  0.3621  1.7750  0.2840
 4109SOL     OW24304   6.278  10.170   6.095  0.2392 -0.7293  0.5937
 4109SOL    HW124305   6.361  10.133   6.064 -1.1250 -2.9720 -0.5904
 4109SOL    HW224306   6.211  10.112   6.060 -1.9981  2.0005  0.0364
 4110SOL     OW24307   0.775   1.187   4.314 -0.0960 -0.2417 -0.0228
 4110SOL    HW124308   0.767   1.173   4.219  0.9340 -0.9913 -0.0155
 4110SOL    HW224309   0.869   1.183   4.331 -0.0719  2.0919  0.7266
 4111SOL     OW24310   1.964   0.992   0.699 -0.1019  0.1870  0.0165
 4111SOL    HW124311   1.987   0.922   0.637  1.2864  0.8393 -0.2582
 4111SOL    HW224312   2.039   0.996   0.758 -1.0389  0.1543  1.2218
 4112SOL     OW24313   7.460   5.604   4.760  0.2617 -0.2991 -0.3361
 4112SOL    HW124314   7.410   5.678   4.796 -1.3255 -2.1174  1.4568
 4112SOL    HW224315   7.547   5.614   4.798 -0.4042 -0.2037  1.2738
 4113SOL     OW24316   3.885   4.731   9.307  0.3013 -0.1520 -0.0178
 4113SOL    HW124317   3.848   4.723   9.219  1.2900  0.8323 -0.5379
 4113SOL    HW224318   3.831   4.673   9.360 -0.8525 -0.1204 -1.1017
 4114SOL     OW24319   1.564   7.510   1.321  0.1234  0.7300  0.5776
 4114SOL    HW124320   1.511   7.575   1.368 -1.4178  0.6504 -0.9407
 4114SOL    HW224321   1.630   7.562   1.275 -0.4993  1.1453  0.1389
 4115SOL     OW24322   1.250   6.026   4.812 -0.3423 -0.0400 -0.5731
 4115SOL    HW124323   1.275   5.938   4.785 -0.9499 -0.0448 -1.1460
 4115SOL    HW224324   1.154   6.025   4.812 -0.3715  0.8588 -1.4002
 4116SOL     OW24325   5.823   9.160   6.049 -0.2114 -0.0721  0.3048
 4116SOL    HW124326   5.805   9.139   5.957  4.4169 -1.3405 -0.6032
 4116SOL    HW224327   5.827   9.255   6.052  1.2801 -0.0239 -1.3452
 4117SOL     OW24328   0.082   2.673   7.382 -0.1549 -0.2367 -0.1820
 4117SOL    HW124329   0.140   2.736   7.425 -0.0117  0.2684 -1.1029
 4117SOL    HW224330   0.140   2.606   7.347 -0.1332  0.2162 -1.0179
 4118SOL     OW24331   0.313   3.790   4.981  0.0485  0.5711 -0.4546
 4118SOL    HW124332   0.273   3.876   4.973  1.3613  1.1821 -0.6040
 4118SOL    HW224333   0.401   3.800   4.944  0.5161 -0.6221  0.2626
 4119SOL     OW24334   5.968   2.909   7.011  0.1442  0.4596 -0.1070
 4119SOL    HW124335   5.937   2.821   7.034  0.5373  0.1866 -0.5910
 4119SOL    HW224336   6.009   2.942   7.091  1.0612 -0.2850 -0.2461
 4120SOL     OW24337   9.538   8.264   8.793  0.8104 -0.1907 -0.3333
 4120SOL    HW124338   9.474   8.316   8.744  1.5576 -0.8080 -2.0281
 4120SOL    HW224339   9.594   8.329   8.835  0.5634  0.3535 -0.8365
 4121SOL     OW24340   7.372   1.292   7.048 -0.5494 -0.3272 -0.2808
 4121SOL    HW124341   7.346   1.342   6.971 -0.9782 -1.0054 -0.5866
 4121SOL    HW224342   7.327   1.335   7.121 -2.9040 -1.6544 -0.8235
 4122SOL     OW24343   0.183   3.397   0.860 -0.4956 -0.1449 -0.0015
 4122SOL    HW124344   0.132   3.444   0.795 -0.8159  0.7670  0.8763
 4122SOL    HW224345   0.158   3.306   0.850 -1.0386  0.0781 -0.6981
 4123SOL     OW24346   2.266   5.886   0.138  0.4686  0.2769 -0.4902
 4123SOL    HW124347   2.210   5.961   0.119 -2.6915 -1.7016  0.2789
 4123SOL    HW224348   2.291   5.853   0.051 -1.0975  0.1947 -0.9429
 4124SOL     OW24349   2.804   3.404   2.800 -0.5521 -0.1932  0.3853
 4124SOL    HW124350   2.890   3.428   2.766 -0.9720  1.7861  0.6281
 4124SOL    HW224351   2.752   3.384   2.722  0.2162 -1.8964  0.2588
 4125SOL     OW24352   8.012   3.005   0.324 -0.4758 -0.1240  0.2656
 4125SOL    HW124353   8.040   2.930   0.377 -2.6574 -0.2148  1.3973
 4125SOL    HW224354   8.011   2.972   0.234 -0.4766 -1.1699  0.6390
 4126SOL     OW24355  10.385  10.359   9.465 -0.3089  0.5194 -0.0420
 4126SOL    HW124356  10.405  10.405   9.384  2.8566 -1.4369 -0.5371
 4126SOL    HW224357  10.350  10.274   9.437 -1.9956  0.8776  0.7898
 4127SOL     OW24358   2.862   0.211   7.836  0.3176  0.5023 -0.0672
 4127SOL    HW124359   2.865   0.234   7.743 -0.7991  0.0825 -0.2204
 4127SOL    HW224360   2.813   0.282   7.877  0.9082  0.7465  0.2328
 4128SOL     OW24361   0.189   3.410   4.096 -0.7893 -0.0926  0.5104
 4128SOL    HW124362   0.197   3.450   4.182  1.7195 -0.1635  0.3848
 4128SOL    HW224363   0.240   3.466   4.038 -1.4478 -0.7029 -0.7047
 4129SOL     OW24364  10.166   6.233   9.236 -0.1736 -0.5863  0.4417
 4129SOL    HW124365  10.138   6.144   9.215 -2.7640  0.4587 -1.0832
 4129SOL    HW224366  10.167   6.278   9.152  0.0635  1.0713  1.2990
 4130SOL     OW24367   3.781   5.943   2.306 -0.2063 -0.1089  0.1194
 4130SOL    HW124368   3.741   5.861   2.277 -0.6083  0.1561 -0.0780
 4130SOL    HW224369   3.740   6.010   2.251  0.9815  0.0910 -0.5586
 4131SOL     OW24370   9.328  10.288   7.944 -1.0803 -0.1476  0.3779
 4131SOL    HW124371   9.349  10.240   7.864 -1.3325  1.0288 -0.4261
 4131SOL    HW224372   9.387  10.363   7.943  0.2368 -1.0866  2.2948
 4132SOL     OW24373   1.341   9.911   2.084 -0.2777 -0.5952 -0.2701
 4132SOL    HW124374   1.366   9.820   2.068  0.4330 -0.3775 -0.4518
 4132SOL    HW224375   1.367   9.927   2.175 -0.1321 -0.4896 -0.3301
 4133SOL     OW24376   2.554   8.955   3.994 -0.3268  0.0119 -0.4390
 4133SOL    HW124377   2.471   8.914   3.972  0.0249 -1.2006  0.4247
 4133SOL    HW224378   2.537   9.000   4.077  0.0902 -0.9336  0.1663
 4134SOL     OW24379   7.584   1.545   7.302  0.3840  0.2902 -0.0614
 4134SOL    HW124380   7.673   1.511   7.292  2.0652  3.9984  0.3891
 4134SOL    HW224381   7.579   1.616   7.238 -1.8201  0.9745  0.7891
 4135SOL     OW24382   6.965   6.676   1.357  0.4271 -0.1555  0.4936
 4135SOL    HW124383   7.039   6.632   1.316  0.2390 -0.0680  0.0435
 4135SOL    HW224384   6.965   6.764   1.318 -0.2399 -0.3383  0.0715
 4136SOL     OW24385   0.067   2.636   8.087 -0.5162 -0.0356  0.2638
 4136SOL    HW124386  -0.021   2.671   8.081 -0.4522  0.0075 -0.6608
 4136SOL    HW224387   0.075   2.577   8.011  0.2036 -0.1280  0.3970
 4137SOL     OW24388   2.158   5.717   4.716 -0.1318  0.0993 -0.6027
 4137SOL    HW124389   2.118   5.777   4.779 -0.6221 -1.1155  0.2662
 4137SOL    HW224390   2.097   5.718   4.641 -0.6535 -0.0689 -0.1860
 4138SOL     OW24391   6.841   1.034   4.965  0.5267  0.1962 -0.5527
 4138SOL    HW124392   6.917   0.989   4.927 -0.5706 -1.0786 -1.3289
 4138SOL    HW224393   6.765   0.989   4.927 -0.6565  2.5978 -1.2169
 4139SOL     OW24394   6.645   4.049   1.156  0.5440 -0.0532 -0.1527
 4139SOL    HW124395   6.662   4.064   1.063  0.2844 -0.5899 -0.2964
 4139SOL    HW224396   6.728   4.066   1.199  0.7258 -0.0216 -0.5139
 4140SOL     OW24397   1.935   5.114   5.576 -0.3816  0.2011  0.3429
 4140SOL    HW124398   1.881   5.082   5.648  1.4556  0.1875  1.8003
 4140SOL    HW224399   2.016   5.143   5.618  1.7083 -1.9173 -1.9009
 4141SOL     OW24400   7.745   9.649   3.491  0.4039  0.1644 -0.3766
 4141SOL    HW124401   7.657   9.636   3.525  1.4944 -0.8636  2.3017
 4141SOL    HW224402   7.733   9.705   3.414 -2.4386  0.9938  0.5532
 4142SOL     OW24403   6.573   7.964   3.744  0.6586 -0.0049 -0.3945
 4142SOL    HW124404   6.615   8.049   3.733  0.8460 -0.0379  0.0461
 4142SOL    HW224405   6.581   7.945   3.838 -1.5756  0.6251 -0.0169
 4143SOL     OW24406   0.338  10.284   8.015 -0.5627  0.3679  0.1522
 4143SOL    HW124407   0.357  10.211   8.074 -0.0352  0.5388  0.1962
 4143SOL    HW224408   0.347  10.362   8.069 -2.2994  0.4336  0.4161
 4144SOL     OW24409   4.341   8.707   0.429 -0.1125 -0.0606  0.5586
 4144SOL    HW124410   4.298   8.695   0.344  2.0985  1.8028 -0.9704
 4144SOL    HW224411   4.383   8.622   0.447  0.2100 -0.1986 -0.7515
 4145SOL     OW24412   1.063   1.221   5.844 -0.1833  0.8353 -0.5432
 4145SOL    HW124413   1.012   1.267   5.910 -2.0236  1.5589 -2.3520
 4145SOL    HW224414   1.002   1.158   5.806  0.7674  0.5427 -1.6426
 4146SOL     OW24415   1.750   4.679   6.372  0.1056 -0.6095  0.3182
 4146SOL    HW124416   1.792   4.593   6.362  2.4083  0.6911 -3.0366
 4146SOL    HW224417   1.748   4.715   6.284  0.5603  3.3631  1.7305
 4147SOL     OW24418   0.846   8.837   0.677 -0.3240 -0.4218  0.1715
 4147SOL    HW124419   0.763   8.854   0.631 -0.3241 -1.6476 -0.2988
 4147SOL    HW224420   0.840   8.890   0.757 -1.1112  0.3020 -0.3438
 4148SOL     OW24421   3.367   9.116   2.044  0.4022  0.2878  0.6643
 4148SOL    HW124422   3.397   9.195   2.000  0.3749  0.5489  1.1027
 4148SOL    HW224423   3.324   9.065   1.976 -1.1154  1.4365  0.7202
 4149SOL     OW24424   4.261   0.057   0.400  0.2920 -0.2043 -0.4065
 4149SOL    HW124425   4.255   0.091   0.489 -1.8863 -1.0302 -0.1781
 4149SOL    HW224426   4.279   0.134   0.345 -1.4120  0.8310  0.4201
 4150SOL     OW24427  10.175   2.587   3.062  0.1351  0.3243 -0.2397
 4150SOL    HW124428  10.104   2.620   3.117 -0.9819 -0.8190 -0.9237
 4150SOL    HW224429  10.145   2.604   2.972  1.0778  0.4850 -0.5378
 4151SOL     OW24430   4.314   5.202   7.161  0.4000 -0.0713 -0.4574
 4151SOL    HW124431   4.284   5.147   7.089  0.5334 -2.1859  1.0199
 4151SOL    HW224432   4.348   5.141   7.226  1.1061  1.8069  1.0458
 4152SOL     OW24433   5.248   1.394   9.598  0.2329  0.2040  0.6392
 4152SOL    HW124434   5.280   1.354   9.679  1.2860  0.8061  0.5369
 4152SOL    HW224435   5.154   1.377   9.598  0.4206 -0.9538  1.3350
 4153SOL     OW24436   1.861   3.823   5.808  0.1667 -0.6032  0.1299
 4153SOL    HW124437   1.941   3.785   5.843  0.1276 -1.1390 -0.3336
 4153SOL    HW224438   1.886   3.912   5.781  1.0768 -1.3381 -1.6220
 4154SOL     OW24439   8.718   8.820   7.989 -0.0042 -0.1019  0.4534
 4154SOL    HW124440   8.757   8.736   7.970 -1.5338 -0.9650  0.9365
 4154SOL    HW224441   8.780   8.884   7.954  1.2460 -1.4061  0.1985
 4155SOL     OW24442   8.368   8.484   6.975  0.0055 -0.0224 -0.3772
 4155SOL    HW124443   8.445   8.459   7.026 -0.9987 -2.8863 -0.0839
 4155SOL    HW224444   8.390   8.459   6.885  0.1183  0.9258 -0.6182
 4156SOL     OW24445   7.199   1.323   5.778 -0.1965 -0.0026  0.1651
 4156SOL    HW124446   7.288   1.348   5.756  0.0745 -1.5407 -0.6693
 4156SOL    HW224447   7.207   1.272   5.858 -0.4473  0.5631  0.5586
 4157SOL     OW24448   0.553   2.872   3.032 -0.6540 -0.8781 -0.5934
 4157SOL    HW124449   0.521   2.901   2.946  0.5577 -0.2217 -0.8450
 4157SOL    HW224450   0.643   2.845   3.016  1.2819  3.5741  1.1726
 4158SOL     OW24451   9.799   3.117   8.942  0.7126 -0.6954 -0.1873
 4158SOL    HW124452   9.893   3.121   8.929  0.8548 -0.8002  0.7725
 4158SOL    HW224453   9.782   3.176   9.015  0.1233 -1.1609  0.0633
 4159SOL     OW24454   6.028   1.781   7.762 -0.4713 -0.5018 -0.4302
 4159SOL    HW124455   5.936   1.753   7.761 -1.1171  1.5076 -1.6906
 4159SOL    HW224456   6.038   1.827   7.844 -1.0229  0.5272 -0.9224
 4160SOL     OW24457   3.365   0.060   2.892  0.8668  0.4147  0.2267
 4160SOL    HW124458   3.344   0.001   2.819 -1.1670 -0.9664  1.7839
 4160SOL    HW224459   3.287   0.115   2.902  1.4716  1.1900  0.8011
 4161SOL     OW24460   2.450   7.361   8.958  0.1523 -0.1456 -0.3878
 4161SOL    HW124461   2.543   7.340   8.970 -0.2969 -1.8534  0.4632
 4161SOL    HW224462   2.419   7.298   8.894 -0.2573  0.9637 -1.3076
 4162SOL     OW24463   2.378   5.604   1.961 -0.0452  0.8697 -0.3486
 4162SOL    HW124464   2.446   5.559   1.911 -1.2210 -1.1856 -0.1950
 4162SOL    HW224465   2.420   5.622   2.045  0.5921  0.4193 -0.5523
 4163SOL     OW24466   3.086   3.691   9.796 -0.3242  0.9687 -0.6432
 4163SOL    HW124467   3.102   3.736   9.712 -1.9376  0.7865 -1.1001
 4163SOL    HW224468   3.001   3.649   9.784 -0.8939  1.4585  1.3072
 4164SOL     OW24469   8.274   8.578   4.671 -0.5996 -0.1549  0.7971
 4164SOL    HW124470   8.308   8.660   4.634  0.7693 -0.0897  2.1126
 4164SOL    HW224471   8.201   8.606   4.726  0.7246  0.4166  2.3617
 4165SOL     OW24472   9.057   7.927   3.917  0.0168  0.0374  0.2627
 4165SOL    HW124473   9.086   7.911   4.007  0.4285 -2.8610 -0.2819
 4165SOL    HW224474   8.963   7.906   3.919  0.3986 -1.9132 -0.3063
 4166SOL     OW24475   0.659   3.436   2.451  0.1875 -0.7930  0.8282
 4166SOL    HW124476   0.576   3.459   2.410  0.8285  0.4662  0.1537
 4166SOL    HW224477   0.664   3.492   2.528  1.1497  0.4487 -0.0795
 4167SOL     OW24478   7.532   0.570   7.725  0.4790  0.6399 -0.2373
 4167SOL    HW124479   7.448   0.529   7.705  0.4182  0.2894  0.6658
 4167SOL    HW224480   7.547   0.631   7.653 -0.2232  0.2136 -0.7581
 4168SOL     OW24481   1.867   4.188   7.815 -0.3535  0.1780 -0.4892
 4168SOL    HW124482   1.813   4.114   7.788 -1.3081  0.6794  0.0033
 4168SOL    HW224483   1.805   4.258   7.834  0.5486  1.2552 -1.3428
 4169SOL     OW24484   8.419   1.243   5.150  0.2657 -0.2524 -0.6406
 4169SOL    HW124485   8.371   1.225   5.069 -0.7725  0.6089 -0.2404
 4169SOL    HW224486   8.364   1.205   5.219 -0.4370  1.7108 -0.0682
 4170SOL     OW24487   1.543  10.099  10.285  0.2043  0.0024  0.0362
 4170SOL    HW124488   1.468  10.068  10.337 -0.9745  2.3346 -0.1635
 4170SOL    HW224489   1.563  10.185  10.321  2.1232 -0.1155 -0.6575
 4171SOL     OW24490   7.452   9.148   9.487 -0.0492 -1.0308  0.2101
 4171SOL    HW124491   7.451   9.119   9.396  0.7974 -1.0881  0.2109
 4171SOL    HW224492   7.415   9.236   9.485  1.4573 -0.3757 -0.4366
 4172SOL     OW24493   4.979   3.464   1.833  0.6034  0.3406  0.1189
 4172SOL    HW124494   5.041   3.537   1.827  0.9507  0.0559  0.1910
 4172SOL    HW224495   4.898   3.498   1.797  1.3024  0.1544 -1.7603
 4173SOL     OW24496   2.243  10.088   0.370 -0.4823  0.4245  0.4956
 4173SOL    HW124497   2.338  10.091   0.380 -0.1434 -0.2441 -1.9374
 4173SOL    HW224498   2.217  10.179   0.357 -0.0956  0.5545  0.6414
 4174SOL     OW24499   7.266   8.300   7.922 -0.0138  0.1751  0.1016
 4174SOL    HW124500   7.346   8.264   7.884  0.7593  1.7138  0.2125
 4174SOL    HW224501   7.268   8.272   8.013 -0.0802 -0.5485 -0.1107
 4175SOL     OW24502   7.141   0.790   4.965  0.1668 -0.0085 -0.4161
 4175SOL    HW124503   7.134   0.697   4.943  1.0791  0.1608 -1.5274
 4175SOL    HW224504   7.235   0.803   4.981  0.2307  0.9578 -1.4742
 4176SOL     OW24505   1.830   1.281   3.215 -0.1203 -0.4381  0.4685
 4176SOL    HW124506   1.860   1.298   3.305 -0.9937 -0.0802  0.6986
 4176SOL    HW224507   1.892   1.216   3.181  0.4983 -0.2298  1.1688
 4177SOL     OW24508   4.192   7.435  10.013 -0.5639  0.3373  0.1534
 4177SOL    HW124509   4.157   7.374   9.948 -0.3936  0.7517 -0.3404
 4177SOL    HW224510   4.168   7.522   9.980 -1.8979  0.5133  1.4971
 4178SOL     OW24511   1.706   1.530   2.269 -0.0002  0.1740  0.2873
 4178SOL    HW124512   1.675   1.473   2.340 -1.6277 -1.7771 -1.8160
 4178SOL    HW224513   1.734   1.469   2.200  2.4871  1.9857 -0.4165
 4179SOL     OW24514   1.744   0.075   0.774  0.1736 -0.4579  0.8081
 4179SOL    HW124515   1.654   0.092   0.803  0.6928 -0.3110  2.4694
 4179SOL    HW224516   1.767  -0.008   0.816 -0.1175 -2.0480 -1.9431
 4180SOL     OW24517   9.581   2.077   3.340  0.0595 -0.1694 -0.2820
 4180SOL    HW124518   9.557   2.168   3.328 -0.6356 -0.4963 -1.5331
 4180SOL    HW224519   9.636   2.056   3.264  1.6580 -0.3389  0.8635
 4181SOL     OW24520   7.139  10.271   0.527 -0.6503  0.5442 -0.2852
 4181SOL    HW124521   7.052  10.236   0.547 -1.8583  3.4832  0.1775
 4181SOL    HW224522   7.125  10.330   0.453  1.1155  0.4787 -0.7084
 4182SOL     OW24523   9.788  10.246   0.864  0.5225 -0.4775 -0.0611
 4182SOL    HW124524   9.772  10.320   0.805 -2.0561 -0.8082  0.1055
 4182SOL    HW224525   9.831  10.286   0.941  0.5869  0.5692 -0.6194
 4183SOL     OW24526  10.311   8.317   5.439 -0.4061  0.1320 -0.4826
 4183SOL    HW124527  10.262   8.397   5.420 -1.6867 -0.3977  0.4164
 4183SOL    HW224528  10.400   8.335   5.409 -0.6895  1.8512 -0.3785
 4184SOL     OW24529   3.071   9.222   6.463 -0.3630 -0.0103 -0.4782
 4184SOL    HW124530   3.120   9.141   6.477  1.0927  0.8102 -0.5350
 4184SOL    HW224531   3.123   9.289   6.508 -2.1296  0.7385  0.5743
 4185SOL     OW24532   7.625   4.388   7.949 -0.6419 -0.2596 -0.0888
 4185SOL    HW124533   7.647   4.296   7.961 -0.2605 -0.2523 -0.7195
 4185SOL    HW224534   7.572   4.390   7.869 -0.9406  0.0285  0.1107
 4186SOL     OW24535   1.783   5.966   5.755 -0.3190  0.0470  0.4501
 4186SOL    HW124536   1.782   5.901   5.825  0.5675  0.8170  1.2037
 4186SOL    HW224537   1.873   5.965   5.723 -0.0659  1.5117  1.0665
 4187SOL     OW24538   1.843   5.738   6.810  0.1579  0.0402  0.5918
 4187SOL    HW124539   1.852   5.705   6.721  0.0113 -1.4572  1.0889
 4187SOL    HW224540   1.764   5.793   6.808 -0.5892 -1.0145  0.0603
 4188SOL     OW24541   2.679   5.581   6.996  0.2888 -0.1911 -0.3350
 4188SOL    HW124542   2.760   5.536   7.024 -0.0325  0.1266  1.1922
 4188SOL    HW224543   2.637   5.519   6.937  0.5232 -1.3642  0.6856
 4189SOL     OW24544   4.229  10.343   1.954  0.4814 -0.0188  1.1708
 4189SOL    HW124545   4.222  10.413   1.889  1.0863  0.4179  1.5613
 4189SOL    HW224546   4.323  10.327   1.963  0.3194 -1.3807  0.5791
 4190SOL     OW24547  10.124   9.010   7.099  0.3905 -0.0328  0.1838
 4190SOL    HW124548  10.097   9.078   7.037  0.3921  2.0882  2.3579
 4190SOL    HW224549  10.208   9.040   7.132  0.5738 -1.3101  0.9501
 4191SOL     OW24550   8.973   8.203   1.674 -0.1217  0.5768 -0.2197
 4191SOL    HW124551   8.953   8.162   1.589 -1.5982  1.4867 -0.3492
 4191SOL    HW224552   9.023   8.136   1.721 -0.0779 -0.3088 -1.4487
 4192SOL     OW24553   5.030   3.991  10.239  0.1100  0.1352 -0.3359
 4192SOL    HW124554   4.957   4.007  10.298  0.1036 -0.9559 -0.0338
 4192SOL    HW224555   5.059   4.079  10.213 -1.3468  0.5885 -0.5262
 4193SOL     OW24556   7.671   2.951   9.057 -0.0609  0.2160  0.2570
 4193SOL    HW124557   7.753   2.977   9.016 -0.7934 -0.0078 -1.4051
 4193SOL    HW224558   7.668   2.856   9.048  0.5032 -0.0474  2.3063
 4194SOL     OW24559   1.843   6.188   5.567  0.1229  0.2868 -0.3895
 4194SOL    HW124560   1.815   6.280   5.563 -0.2877  0.2114  0.5508
 4194SOL    HW224561   1.813   6.158   5.653  2.6270  0.0304  0.4602
 4195SOL     OW24562   9.958   8.204   3.017  0.0601  0.0537  0.1832
 4195SOL    HW124563   9.952   8.246   2.932 -0.9673  1.0731  0.7345
 4195SOL    HW224564   9.906   8.124   3.009  0.0849  0.0731 -0.1746
 4196SOL     OW24565   7.018   9.610   5.963 -0.5460 -0.5854 -0.0897
 4196SOL    HW124566   6.936   9.620   6.011 -0.5525  0.8953 -0.3675
 4196SOL    HW224567   7.065   9.693   5.977  0.3073 -0.8828 -1.0223
 4197SOL     OW24568   1.841   3.484   9.178 -0.3894  0.3450  0.1355
 4197SOL    HW124569   1.893   3.488   9.098  0.5268  2.2421  0.7620
 4197SOL    HW224570   1.808   3.573   9.189  0.7594  0.5539  2.6224
 4198SOL     OW24571   0.584   1.787   7.406  0.1505  0.1159 -0.1458
 4198SOL    HW124572   0.626   1.776   7.492 -0.9621 -1.4151  0.2452
 4198SOL    HW224573   0.514   1.850   7.421 -0.3213 -0.4792  0.1908
 4199SOL     OW24574   8.370   7.621   8.226 -0.1913 -0.0686  0.2107
 4199SOL    HW124575   8.397   7.692   8.283 -2.3544  2.5676 -1.7604
 4199SOL    HW224576   8.278   7.605   8.250 -0.0957 -1.3503 -0.2078
 4200SOL     OW24577   1.618   9.014   1.779  0.1284  0.2454 -0.2329
 4200SOL    HW124578   1.535   8.978   1.808 -0.3718  0.1416 -1.7069
 4200SOL    HW224579   1.653   8.947   1.719  0.9581  0.5738 -0.1247
 4201SOL     OW24580  10.133   2.372   6.459  0.1200  0.0347  0.4221
 4201SOL    HW124581  10.164   2.455   6.495  0.9653 -0.7086  1.4719
 4201SOL    HW224582  10.047   2.393   6.422  1.0607  1.7521 -0.9486
 4202SOL     OW24583   3.981   5.105   7.788 -0.0153  0.2192 -1.1217
 4202SOL    HW124584   4.039   5.169   7.830  1.4611 -0.5475 -1.8853
 4202SOL    HW224585   3.956   5.145   7.705  1.3319 -0.3573 -1.8381
 4203SOL     OW24586   5.636   4.025   6.339  0.3855 -0.2317  0.0436
 4203SOL    HW124587   5.705   4.091   6.345  0.9766 -0.8176 -0.2184
 4203SOL    HW224588   5.613   4.023   6.247  2.5226 -2.5114 -0.5645
 4204SOL     OW24589   8.882   1.586   6.424  0.4436 -0.2038 -0.4351
 4204SOL    HW124590   8.899   1.493   6.406  1.6071 -0.2765  0.8977
 4204SOL    HW224591   8.786   1.591   6.433  0.4088 -1.3871  0.0432
 4205SOL     OW24592   3.468   0.648   7.561 -0.2293  0.2111  1.1641
 4205SOL    HW124593   3.531   0.632   7.491 -0.0178 -1.5041  1.6973
 4205SOL    HW224594   3.397   0.696   7.519  0.2216 -0.1553 -0.0683
 4206SOL     OW24595   9.400   8.741   0.077  0.0872  0.3663  0.1608
 4206SOL    HW124596   9.344   8.805   0.032  0.0403 -0.5109 -1.0816
 4206SOL    HW224597   9.373   8.746   0.168 -2.2370 -0.2075 -0.4309
 4207SOL     OW24598   6.781   5.329   5.234 -0.2404 -0.5627 -0.4197
 4207SOL    HW124599   6.690   5.340   5.205 -1.1149 -2.7373  1.2647
 4207SOL    HW224600   6.775   5.278   5.315  2.4758 -0.3682 -0.0010
 4208SOL     OW24601   5.330   2.997   9.983  0.7686  1.1530  0.1303
 4208SOL    HW124602   5.394   2.937  10.021  1.7697  1.6680 -0.6966
 4208SOL    HW224603   5.369   3.025   9.900 -0.2215  2.0025 -0.0714
 4209SOL     OW24604   6.187   8.211   7.077  0.0660  0.0174 -0.5115
 4209SOL    HW124605   6.108   8.247   7.037  0.2048 -0.3509 -1.1395
 4209SOL    HW224606   6.210   8.136   7.022  1.1397  0.4246 -0.6446
 4210SOL     OW24607   1.212   8.843   2.457 -0.2240 -0.1970 -0.0339
 4210SOL    HW124608   1.196   8.768   2.514 -1.9020 -0.2833 -0.5533
 4210SOL    HW224609   1.142   8.838   2.391  1.6264 -0.1130 -2.1200
 4211SOL     OW24610   1.250   9.809   5.538  0.1578 -0.3756 -0.6594
 4211SOL    HW124611   1.191   9.884   5.540  1.4372  0.7184 -1.6671
 4211SOL    HW224612   1.194   9.734   5.521 -1.2627  0.2086  1.1779
 4212SOL     OW24613   4.475   7.054   7.132 -0.0981  0.3740 -0.1887
 4212SOL    HW124614   4.523   7.093   7.059 -0.2097  2.0480  0.5967
 4212SOL    HW224615   4.495   7.110   7.207 -0.5886 -0.8674  0.9086
 4213SOL     OW24616   7.513   8.304   9.916 -0.2847  0.4939 -0.4235
 4213SOL    HW124617   7.539   8.309   9.824 -1.4809  0.1094 -0.7996
 4213SOL    HW224618   7.506   8.396   9.943  0.9888  0.6087 -0.4275
 4214SOL     OW24619   8.696  10.080   4.211  0.2215  0.7591  0.7053
 4214SOL    HW124620   8.640  10.061   4.286  0.7105  0.0955  0.9136
 4214SOL    HW224621   8.660  10.026   4.141  2.4270 -2.2222  1.6453
 4215SOL     OW24622   2.517   5.477   7.382  0.3070  0.3936  0.4838
 4215SOL    HW124623   2.588   5.537   7.404  0.2119  0.0022  1.9817
 4215SOL    HW224624   2.561   5.392   7.370  0.4568  0.7232 -1.7267
 4216SOL     OW24625   9.110   8.756   1.602  0.0818 -0.2031  0.2862
 4216SOL    HW124626   9.171   8.820   1.638 -0.1808  0.8846 -1.1493
 4216SOL    HW224627   9.031   8.764   1.656 -0.1770  1.1480 -0.2656
 4217SOL     OW24628   0.115   3.956   9.314 -0.0755  0.2116 -0.5201
 4217SOL    HW124629   0.178   3.895   9.277  0.4953  1.3523 -1.4697
 4217SOL    HW224630   0.168   4.020   9.361 -0.5857  0.6615 -0.5488
 4218SOL     OW24631   2.011   3.657   1.779  0.0165  0.2312  0.3729
 4218SOL    HW124632   1.985   3.621   1.864  0.6047 -1.1124  0.0101
 4218SOL    HW224633   1.930   3.684   1.738 -0.4323 -0.5155  0.7495
 4219SOL     OW24634   1.984   0.658   2.143  0.1309  0.2078 -0.0591
 4219SOL    HW124635   1.918   0.719   2.111  0.6317  1.0161  0.4063
 4219SOL    HW224636   1.949   0.627   2.227  0.1372  0.3050 -0.0197
 4220SOL     OW24637   0.265   0.930   2.052  0.0203  0.2325  0.3549
 4220SOL    HW124638   0.200   0.868   2.083 -1.7442  1.0617 -1.4267
 4220SOL    HW224639   0.223   1.016   2.060  1.1108  0.8558 -0.2919
 4221SOL     OW24640   0.354   4.768   3.667 -0.0682  0.0604 -0.4538
 4221SOL    HW124641   0.316   4.854   3.681  0.5672  0.3468 -0.4374
 4221SOL    HW224642   0.386   4.770   3.577 -0.9534 -0.5231 -0.7987
 4222SOL     OW24643   6.245   8.495   4.923  0.8259  0.0898  0.1196
 4222SOL    HW124644   6.207   8.571   4.966 -1.4799 -0.8747 -0.0646
 4222SOL    HW224645   6.330   8.525   4.891  0.5437  2.1848  1.1802
 4223SOL     OW24646   2.712   6.983   1.274 -0.3966 -0.3902 -0.2163
 4223SOL    HW124647   2.737   6.978   1.182  2.7825 -3.0394  0.5911
 4223SOL    HW224648   2.648   6.912   1.286 -0.0154 -0.7356 -0.2046
 4224SOL     OW24649   2.446   6.717   2.128 -0.3160  0.3415 -0.2456
 4224SOL    HW124650   2.519   6.771   2.157  0.5150 -0.2860 -1.1222
 4224SOL    HW224651   2.374   6.779   2.114  0.6306  1.2326 -1.2941
 4225SOL     OW24652   5.600   1.890   5.178  0.4611  0.1848 -0.2272
 4225SOL    HW124653   5.604   1.876   5.273 -1.4462 -0.1460 -0.1605
 4225SOL    HW224654   5.538   1.824   5.147  1.3717  0.0180 -1.7922
 4226SOL     OW24655   8.120   0.455   7.406 -0.1800  0.0304  0.0349
 4226SOL    HW124656   8.104   0.542   7.443 -0.9029  0.5461 -1.4289
 4226SOL    HW224657   8.117   0.468   7.311 -0.3980 -1.6110 -0.2116
 4227SOL     OW24658   8.590   9.275   3.866  0.4519 -0.1036  0.3114
 4227SOL    HW124659   8.497   9.262   3.846  0.3019 -1.6562  1.8000
 4227SOL    HW224660   8.595   9.365   3.899 -0.2176  0.5484 -1.2704
 4228SOL     OW24661   7.152   4.999   0.270  0.5784 -0.1216  0.3971
 4228SOL    HW124662   7.094   4.932   0.233  0.1280 -0.6426  1.9678
 4228SOL    HW224663   7.239   4.976   0.236  0.0175  0.1970 -1.3420
 4229SOL     OW24664   0.950   9.244   5.933 -0.3757  0.1447  0.6063
 4229SOL    HW124665   1.002   9.324   5.928 -0.6881  0.3524  0.5845
 4229SOL    HW224666   0.861   9.275   5.953 -0.8646 -0.0523 -1.0722
 4230SOL     OW24667   3.553   5.562   4.812  0.4021  0.2315  0.3496
 4230SOL    HW124668   3.497   5.491   4.842 -1.0832  0.9307 -0.6375
 4230SOL    HW224669   3.512   5.642   4.845  1.0200  0.7452 -0.0818
 4231SOL     OW24670   8.127   2.943   7.031 -0.5233 -0.2653 -0.5583
 4231SOL    HW124671   8.146   3.036   7.019  0.6273 -0.7465 -3.5061
 4231SOL    HW224672   8.148   2.903   6.946  0.7487 -3.4923  1.0640
 4232SOL     OW24673   0.136   2.943   8.014  0.4146 -0.5181  0.0897
 4232SOL    HW124674   0.106   2.873   8.073 -0.7346 -1.7488 -1.8476
 4232SOL    HW224675   0.098   3.023   8.051  0.3090 -1.1494  1.3935
 4233SOL     OW24676   6.495   8.622  10.103  0.1282  0.0057  0.5139
 4233SOL    HW124677   6.414   8.570  10.107  0.1422  0.0509  1.8236
 4233SOL    HW224678   6.558   8.564  10.061 -0.6182  0.0462 -0.7372
 4234SOL     OW24679   8.202   0.949   3.020  0.1711 -0.0552  0.3972
 4234SOL    HW124680   8.291   0.977   3.044 -0.3897  0.8586  1.4896
 4234SOL    HW224681   8.197   0.859   3.052 -0.0158  0.6145  2.4257
 4235SOL     OW24682   0.800   1.066   3.826 -0.2848  0.1235  0.5520
 4235SOL    HW124683   0.797   0.977   3.791  1.1530 -0.1245  0.9812
 4235SOL    HW224684   0.824   1.121   3.751 -3.1996  0.4987 -0.2087
 4236SOL     OW24685   3.433   0.212   7.056  0.1847 -0.3483  0.6421
 4236SOL    HW124686   3.435   0.297   7.012 -3.8907 -0.4283 -0.1143
 4236SOL    HW224687   3.502   0.162   7.014 -0.4595  1.0989 -2.4788
 4237SOL     OW24688   6.002   6.638   9.521  0.0085 -0.2118  0.2670
 4237SOL    HW124689   6.054   6.670   9.447 -0.3744  0.6528  0.3633
 4237SOL    HW224690   5.965   6.556   9.490 -0.7928  0.5309 -0.7993
 4238SOL     OW24691   0.605   2.396   6.832  0.0053  0.1731 -0.3777
 4238SOL    HW124692   0.558   2.478   6.842 -1.5921 -0.7958  0.5061
 4238SOL    HW224693   0.667   2.394   6.904  1.3457  1.3751 -1.4420
 4239SOL     OW24694   0.847   9.536   7.016 -0.5205  0.2941  0.6744
 4239SOL    HW124695   0.831   9.489   7.098  1.9803 -2.2421 -0.0944
 4239SOL    HW224696   0.943   9.538   7.009 -0.6569  0.6719 -2.0394
 4240SOL     OW24697   3.016   7.450   9.530  0.0008  0.1881  0.1163
 4240SOL    HW124698   3.005   7.461   9.624  0.7934  0.8068  0.1553
 4240SOL    HW224699   3.069   7.526   9.503 -0.9217  0.4880 -0.9722
 4241SOL     OW24700   4.660  10.314   8.840  0.5516  0.7003 -0.5834
 4241SOL    HW124701   4.745  10.357   8.851 -0.2956  2.1585  0.7681
 4241SOL    HW224702   4.630  10.298   8.930 -0.9588  0.9874 -1.0106
 4242SOL     OW24703   9.710   5.777   7.937 -0.3649  0.5869  0.0090
 4242SOL    HW124704   9.631   5.724   7.945 -0.1136  0.4813  2.4579
 4242SOL    HW224705   9.707   5.811   7.847 -2.0943 -1.0725 -0.6243
 4243SOL     OW24706   6.353   3.779  10.142  0.0314 -0.3451  0.6689
 4243SOL    HW124707   6.320   3.693  10.117  0.0083  0.1809 -1.2137
 4243SOL    HW224708   6.393   3.765  10.228  0.1263 -2.2536  0.3535
 4244SOL     OW24709   9.218   0.658   4.445  0.6650 -0.0477 -0.2597
 4244SOL    HW124710   9.291   0.718   4.428  0.1338  0.6191 -0.2015
 4244SOL    HW224711   9.237   0.583   4.389 -0.7184  1.8203 -3.5281
 4245SOL     OW24712   3.641   4.904   3.845  0.6661  0.0862  0.2334
 4245SOL    HW124713   3.722   4.944   3.877  0.5562  0.1134  0.4767
 4245SOL    HW224714   3.669   4.821   3.807  1.0005  0.7246 -0.9534
 4246SOL     OW24715   3.213   9.165   5.488  0.5722  0.6123  0.5870
 4246SOL    HW124716   3.255   9.136   5.569  1.5794 -0.8341 -0.4174
 4246SOL    HW224717   3.216   9.089   5.430 -0.6690  1.4307 -0.6221
 4247SOL     OW24718   7.658   6.973   8.821  0.4448 -0.2840 -0.3674
 4247SOL    HW124719   7.620   7.058   8.797  0.3488  0.2369  1.5333
 4247SOL    HW224720   7.750   6.991   8.838  0.4624 -0.6032 -0.1146
 4248SOL     OW24721   2.771   9.680   2.835  0.9701 -0.6260 -0.4934
 4248SOL    HW124722   2.856   9.699   2.873  0.0776 -0.4497  1.5807
 4248SOL    HW224723   2.749   9.593   2.868  0.4238 -0.7537 -1.1619
 4249SOL     OW24724  10.217   6.509   6.805  0.8888  0.2335 -0.2608
 4249SOL    HW124725  10.284   6.441   6.795  1.2619  0.5450  0.0854
 4249SOL    HW224726  10.254   6.570   6.868  0.0670  0.1539  0.3131
 4250SOL     OW24727   2.966   2.657   1.312  0.1312  0.5567  0.2691
 4250SOL    HW124728   3.061   2.656   1.298 -0.0011 -1.0678 -0.7865
 4250SOL    HW224729   2.952   2.597   1.386 -0.1131  0.4247  0.1154
 4251SOL     OW24730   3.320   7.167   9.048 -0.2164  0.4495 -0.2712
 4251SOL    HW124731   3.400   7.159   9.099  1.6836  0.6750 -2.9869
 4251SOL    HW224732   3.250   7.164   9.113  1.9606  0.5763  2.2765
 4252SOL     OW24733   2.306   8.950   7.679  0.1133 -0.4588  0.3349
 4252SOL    HW124734   2.338   8.932   7.590  2.2238  0.1973  0.9104
 4252SOL    HW224735   2.300   8.863   7.720 -0.8730 -0.7638 -0.4257
 4253SOL     OW24736   8.819   2.052   6.564  0.5514 -0.0231 -0.5775
 4253SOL    HW124737   8.748   1.994   6.537  0.8884 -0.4881 -0.4711
 4253SOL    HW224738   8.898   2.000   6.554  0.9757  0.7840 -1.5596
 4254SOL     OW24739   5.816   0.432   9.139 -0.1722  0.5714 -1.0173
 4254SOL    HW124740   5.886   0.496   9.153  1.5115 -0.8862 -2.2097
 4254SOL    HW224741   5.853   0.349   9.169 -1.3765 -0.2520 -1.7087
 4255SOL     OW24742   4.749   0.548   1.336 -0.1725  0.6263  0.0752
 4255SOL    HW124743   4.723   0.570   1.246 -1.8485 -1.5521 -0.0718
 4255SOL    HW224744   4.685   0.482   1.363  1.3231 -0.0110  2.2696
 4256SOL     OW24745   6.388   8.502   6.849 -0.1507  0.5862  0.7112
 4256SOL    HW124746   6.311   8.452   6.822  1.0674 -0.9786  0.0165
 4256SOL    HW224747   6.400   8.567   6.780 -1.4405  1.5733  1.3646
 4257SOL     OW24748  10.319   1.661   2.196  0.2801 -0.1048 -0.0501
 4257SOL    HW124749  10.290   1.597   2.260  0.3173  1.6487  1.8059
 4257SOL    HW224750  10.238   1.699   2.161  0.2562  0.3148  0.4423
 4258SOL     OW24751   7.814   0.428   0.274  0.0053  0.1056 -0.3495
 4258SOL    HW124752   7.899   0.465   0.249 -0.2399  0.6215 -0.4403
 4258SOL    HW224753   7.798   0.462   0.363 -0.2588  0.2882 -0.4650
 4259SOL     OW24754   9.942   1.038   1.895 -0.2885 -0.4806 -0.4239
 4259SOL    HW124755   9.854   1.063   1.867 -0.4702 -0.3091  0.2701
 4259SOL    HW224756   9.995   1.041   1.815 -1.0521 -1.2542 -0.9802
 4260SOL     OW24757  10.022   2.480   1.280 -0.6928  0.1873  0.3757
 4260SOL    HW124758   9.935   2.520   1.282 -0.6269  0.4978 -1.3204
 4260SOL    HW224759  10.040   2.467   1.187 -0.5652 -3.5711  0.7773
 4261SOL     OW24760   7.985   2.653   8.971 -0.2645 -0.0487  0.1319
 4261SOL    HW124761   7.918   2.600   9.012 -0.6854  1.2786  1.2438
 4261SOL    HW224762   7.942   2.737   8.953  1.1197  0.9261  1.1031
 4262SOL     OW24763   7.143   4.946   1.420 -0.5212 -0.3306  0.0803
 4262SOL    HW124764   7.136   5.018   1.358 -1.0458 -0.0009  0.5164
 4262SOL    HW224765   7.229   4.959   1.461 -0.8422  0.3819  0.5570
 4263SOL     OW24766   4.721   8.310   7.538 -0.2928 -0.0824 -0.6130
 4263SOL    HW124767   4.719   8.404   7.556 -1.8095  0.1276 -1.6732
 4263SOL    HW224768   4.709   8.303   7.444 -0.2487 -1.3475 -0.5445
 4264SOL     OW24769   7.863   4.996   7.756  0.4585 -0.1860  0.5121
 4264SOL    HW124770   7.791   5.030   7.702  0.3575  0.1226  0.8414
 4264SOL    HW224771   7.830   5.001   7.846  0.9583  0.1208  0.6785
 4265SOL     OW24772   9.405   9.855   2.717 -0.0893 -0.3842 -0.9364
 4265SOL    HW124773   9.454   9.825   2.641 -0.6422 -0.7299 -1.1678
 4265SOL    HW224774   9.428   9.947   2.728  0.1542 -0.3926 -1.3921
 4266SOL     OW24775   7.513   6.745   9.439 -0.2049 -0.0149 -0.2983
 4266SOL    HW124776   7.505   6.650   9.444 -1.9987  0.1203 -0.1366
 4266SOL    HW224777   7.538   6.762   9.348  0.3950 -0.6447 -0.2586
 4267SOL     OW24778   2.851   2.994   6.421 -0.0112  0.0226  0.3821
 4267SOL    HW124779   2.939   3.032   6.420  0.5124 -1.1470  0.4047
 4267SOL    HW224780   2.824   2.994   6.330 -0.2477  0.9389  0.4418
 4268SOL     OW24781   3.414   2.270   6.613  0.2977  0.1643  0.3526
 4268SOL    HW124782   3.501   2.309   6.602 -0.0884  1.6031  1.8434
 4268SOL    HW224783   3.389   2.295   6.702 -1.9950  0.5413 -0.3359
 4269SOL     OW24784   6.477   0.612   6.182 -0.1873 -0.6111 -0.2035
 4269SOL    HW124785   6.567   0.582   6.168 -0.1865 -0.5899 -0.2422
 4269SOL    HW224786   6.444   0.554   6.251  0.0666 -0.1945  0.2784
 4270SOL     OW24787   3.879   2.035   7.454 -0.4429 -0.4114  0.0883
 4270SOL    HW124788   3.864   2.048   7.360 -1.8047 -2.3694 -0.0337
 4270SOL    HW224789   3.829   1.956   7.475  1.1487 -0.9477  2.1446
 4271SOL     OW24790   0.600   7.290   0.040  0.2155  0.4861 -0.1135
 4271SOL    HW124791   0.577   7.307   0.132  1.5313 -2.0499  0.7764
 4271SOL    HW224792   0.517   7.265  -0.001 -0.3337  1.3361  0.4459
 4272SOL     OW24793   1.375   9.398   9.532 -0.2175 -0.0398 -0.3098
 4272SOL    HW124794   1.382   9.449   9.612  1.1738 -0.9772  0.2164
 4272SOL    HW224795   1.289   9.356   9.537  0.1715 -0.7267  1.1181
 4273SOL     OW24796   2.602   0.618   3.408  1.1001 -0.0342 -0.7392
 4273SOL    HW124797   2.617   0.527   3.383  1.1732 -0.3468  0.3755
 4273SOL    HW224798   2.509   0.633   3.392  1.1090 -0.2723 -1.0130
 4274SOL     OW24799  10.103   7.653   2.061  0.2044 -0.4815  0.1749
 4274SOL    HW124800  10.182   7.707   2.071 -0.7468  0.9915  0.0887
 4274SOL    HW224801  10.132   7.577   2.010  1.6609 -0.2229  0.5682
 4275SOL     OW24802   9.704   1.149   1.356 -0.0744 -0.6222  0.3181
 4275SOL    HW124803   9.773   1.201   1.397  0.8204 -0.3838 -1.4309
 4275SOL    HW224804   9.722   1.152   1.263 -1.5890 -1.8249 -0.0725
 4276SOL     OW24805   6.774   9.297   3.262 -0.0625  0.3740  0.2021
 4276SOL    HW124806   6.730   9.237   3.323  2.0642 -0.9412  0.5250
 4276SOL    HW224807   6.859   9.257   3.246  0.6635  2.3288 -1.1765
 4277SOL     OW24808   6.271   8.890   3.863 -0.1977 -0.1057  0.0375
 4277SOL    HW124809   6.323   8.820   3.903 -2.3442 -1.9192 -0.1622
 4277SOL    HW224810   6.264   8.864   3.771  0.7180  1.5403 -0.5428
 4278SOL     OW24811   0.924   4.348   4.943 -0.4051 -0.2710  0.5731
 4278SOL    HW124812   0.928   4.267   4.994 -0.9557 -0.4417  0.3501
 4278SOL    HW224813   0.989   4.336   4.874  0.0126 -0.2310  0.9547
 4279SOL     OW24814   4.505   7.262   3.748  0.4217 -0.2496 -0.2982
 4279SOL    HW124815   4.507   7.324   3.821  0.5615  1.3035 -1.5408
 4279SOL    HW224816   4.570   7.297   3.686 -0.4675 -0.8716 -1.6248
 4280SOL     OW24817   3.396   2.920   6.486 -0.1324 -0.6119  0.1227
 4280SOL    HW124818   3.364   2.833   6.511 -0.8624 -0.6780 -0.9422
 4280SOL    HW224819   3.486   2.904   6.455 -0.2499 -0.9831 -0.0331
 4281SOL     OW24820   1.289   0.816   6.858  0.0848 -0.3241 -0.0929
 4281SOL    HW124821   1.308   0.777   6.943 -0.8448 -0.9397 -0.1496
 4281SOL    HW224822   1.201   0.852   6.868 -0.2223 -0.8230 -0.9290
 4282SOL     OW24823   3.203   3.898   5.888  0.7084 -0.7862  0.3351
 4282SOL    HW124824   3.107   3.891   5.893  0.3501  2.4230 -0.1354
 4282SOL    HW224825   3.222   3.902   5.795  0.9729  1.2808  0.4400
 4283SOL     OW24826   7.045   1.353   2.149  0.5670  0.1900 -0.0495
 4283SOL    HW124827   7.108   1.318   2.212  1.1247  0.2452 -0.5686
 4283SOL    HW224828   6.975   1.390   2.203  0.5654 -0.6321  0.5202
 4284SOL     OW24829   5.132   4.252  10.174  0.3582 -0.5326  0.8009
 4284SOL    HW124830   5.087   4.335  10.155  1.3515 -0.2348 -0.3762
 4284SOL    HW224831   5.211   4.278  10.221  2.0272 -0.4837 -1.8121
 4285SOL     OW24832   7.717   4.149   5.902 -0.4565  0.0586  0.1741
 4285SOL    HW124833   7.768   4.077   5.863  1.2050  0.2884  1.7722
 4285SOL    HW224834   7.697   4.207   5.828  0.7721 -0.5492 -0.6776
 4286SOL     OW24835   3.186   9.322   9.116 -0.4074 -1.2949  0.1763
 4286SOL    HW124836   3.199   9.416   9.108 -4.9502 -0.5340 -1.5925
 4286SOL    HW224837   3.244   9.284   9.050 -0.0866  0.4591 -0.6012
 4287SOL     OW24838   0.368   4.059   2.486 -0.4039  0.5546 -0.1122
 4287SOL    HW124839   0.289   4.006   2.495 -0.3429 -0.3032 -3.3406
 4287SOL    HW224840   0.340   4.148   2.508 -1.8674  0.0281  0.2712
 4288SOL     OW24841   9.510   5.187   8.137  0.2771 -0.5014 -0.0650
 4288SOL    HW124842   9.458   5.131   8.194  0.4036 -1.1819 -0.6180
 4288SOL    HW224843   9.459   5.268   8.130 -0.7604 -1.1908 -0.6821
 4289SOL     OW24844   8.989   0.001   0.959 -0.8512 -0.0901 -0.1536
 4289SOL    HW124845   9.049  -0.073   0.964 -1.4400 -0.4885  1.7957
 4289SOL    HW224846   9.028   0.069   1.014  0.4541  1.7536 -3.0589
 4290SOL     OW24847   3.514   5.483   6.156 -0.3771 -0.9760 -0.3323
 4290SOL    HW124848   3.550   5.440   6.078 -0.1151 -3.0595  0.8469
 4290SOL    HW224849   3.420   5.490   6.138 -0.5441 -2.6865 -0.3631
 4291SOL     OW24850   3.976  10.170   4.519 -0.4021  0.0209  0.7242
 4291SOL    HW124851   3.980  10.266   4.511  1.7022 -0.0942 -0.2521
 4291SOL    HW224852   4.061  10.140   4.490 -1.4125 -2.2629 -0.1086
 4292SOL     OW24853   9.608   6.171  10.054 -0.1389 -0.0250 -0.0652
 4292SOL    HW124854   9.657   6.116   9.993  0.3688 -0.7899  1.0119
 4292SOL    HW224855   9.519   6.135  10.052  0.4579 -1.7433  1.5511
 4293SOL     OW24856   4.822   8.024   5.675 -0.1953  0.0640 -0.3722
 4293SOL    HW124857   4.840   8.026   5.770 -1.7163  2.0045 -0.0643
 4293SOL    HW224858   4.747   7.966   5.666 -0.3680  0.2771 -0.3155
 4294SOL     OW24859   9.273   9.139   3.047 -0.1669  0.1168 -0.0221
 4294SOL    HW124860   9.223   9.140   2.966 -1.8641  0.4097  0.9670
 4294SOL    HW224861   9.255   9.053   3.085 -1.6571  0.9470  1.3067
 4295SOL     OW24862   2.252   8.466   4.643 -0.1873 -0.1053 -0.0826
 4295SOL    HW124863   2.219   8.388   4.600 -2.1550  0.7078 -0.1656
 4295SOL    HW224864   2.182   8.531   4.632  2.6003  2.8168 -3.0302
 4296SOL     OW24865   5.614   3.725   3.662  0.0797  0.3106 -0.2823
 4296SOL    HW124866   5.604   3.796   3.598  0.3937  0.0802 -0.5918
 4296SOL    HW224867   5.697   3.683   3.638 -0.9095 -1.2139 -1.1252
 4297SOL     OW24868   1.981   9.384   4.997  0.4910  0.0990  0.3712
 4297SOL    HW124869   1.956   9.392   5.089  1.5012  0.9607  0.5743
 4297SOL    HW224870   1.906   9.339   4.956 -0.9794  1.7077  1.1579
 4298SOL     OW24871   9.984   1.097   0.807  0.4188  0.1368 -0.3778
 4298SOL    HW124872  10.002   1.120   0.716  0.6075 -0.1212 -0.4072
 4298SOL    HW224873   9.968   1.181   0.851 -1.8089  0.1488 -1.0967
 4299SOL     OW24874   0.755   9.176   9.304  0.4009 -1.1034  0.4549
 4299SOL    HW124875   0.708   9.259   9.314  0.8458 -0.5739 -1.5481
 4299SOL    HW224876   0.762   9.142   9.394 -0.4446  0.6418  1.2289
 4300SOL     OW24877   3.350   3.722   8.523  0.5318 -0.2413 -0.1489
 4300SOL    HW124878   3.428   3.701   8.472 -1.0047 -2.4829 -1.8076
 4300SOL    HW224879   3.292   3.765   8.460 -0.6210 -1.2146  0.2062
 4301SOL     OW24880   6.857   0.715   6.588 -0.0421 -0.4806  0.0178
 4301SOL    HW124881   6.931   0.653   6.589  0.1723 -0.2373  2.0455
 4301SOL    HW224882   6.871   0.771   6.663 -1.9117  0.0617  0.0148
 4302SOL     OW24883   5.819   9.820   8.621  0.3679  0.1212 -0.1769
 4302SOL    HW124884   5.823   9.901   8.672  0.8184  0.2939 -0.4723
 4302SOL    HW224885   5.878   9.836   8.547  1.7669 -1.0798  0.6212
 4303SOL     OW24886   4.924   4.711   7.561 -0.4172 -0.1276 -0.3732
 4303SOL    HW124887   4.990   4.654   7.600 -2.3501 -2.3275 -0.1079
 4303SOL    HW224888   4.843   4.659   7.562 -2.1827  2.4165 -0.6820
 4304SOL     OW24889   0.855   2.234   5.397 -0.4864 -0.1635  0.2019
 4304SOL    HW124890   0.842   2.328   5.396 -0.9455 -0.2206  0.7165
 4304SOL    HW224891   0.950   2.223   5.399 -0.4032  0.2718 -0.6090
 4305SOL     OW24892   1.181   2.494   7.570  0.2015  0.1926  0.2221
 4305SOL    HW124893   1.139   2.455   7.493 -0.9918  2.5989 -0.4545
 4305SOL    HW224894   1.198   2.420   7.628  1.3160 -1.7653 -2.3941
 4306SOL     OW24895   5.337   9.477   6.962  0.2274 -0.0002  0.0074
 4306SOL    HW124896   5.413   9.423   6.983  0.3412 -0.0286 -0.4685
 4306SOL    HW224897   5.271   9.415   6.930  0.1386  0.0669  0.0588
 4307SOL     OW24898   8.549   4.837   3.557  0.1164  0.1820 -0.2045
 4307SOL    HW124899   8.537   4.757   3.507  2.2216 -0.7131  0.5997
 4307SOL    HW224900   8.643   4.854   3.553  0.2501  0.5954  2.5716
 4308SOL     OW24901   0.468   1.221   4.473 -0.4192 -0.0806 -0.1946
 4308SOL    HW124902   0.393   1.164   4.458  1.0791 -2.1188 -0.3814
 4308SOL    HW224903   0.544   1.167   4.449  1.0592  2.3113 -1.2605
 4309SOL     OW24904   4.224   4.791   7.311  0.1344  0.2454  0.6498
 4309SOL    HW124905   4.288   4.855   7.339  1.0156 -0.5149  0.4146
 4309SOL    HW224906   4.217   4.802   7.216  0.2959 -0.0091  0.6070
 4310SOL     OW24907   5.562   6.739   6.104 -0.0641  0.0289  0.0552
 4310SOL    HW124908   5.518   6.756   6.188 -1.4371  1.1822 -0.8544
 4310SOL    HW224909   5.496   6.696   6.050  0.6911 -0.3613 -0.5850
 4311SOL     OW24910   5.444   1.211   6.774  0.2328 -0.0134 -0.3696
 4311SOL    HW124911   5.451   1.157   6.695 -0.8049  1.1821 -1.3237
 4311SOL    HW224912   5.427   1.299   6.741 -1.5979  0.2886  1.2087
 4312SOL     OW24913   3.716   8.984   6.367 -0.0031 -0.2279  0.3484
 4312SOL    HW124914   3.764   9.065   6.381 -1.8449  0.8946  0.6249
 4312SOL    HW224915   3.675   8.996   6.281 -0.6498 -0.6400  0.5898
 4313SOL     OW24916   5.738  10.083   9.843  0.4336 -0.0789  0.0436
 4313SOL    HW124917   5.741  10.138   9.765 -0.1357 -0.7541 -0.4643
 4313SOL    HW224918   5.828  10.081   9.874  0.6665  0.1821 -0.5990
 4314SOL     OW24919   1.614   0.401   7.315  0.4318  0.4452 -0.1088
 4314SOL    HW124920   1.561   0.433   7.243 -1.1527 -0.6030  0.5128
 4314SOL    HW224921   1.640   0.312   7.289  0.0762  0.1603  0.4639
 4315SOL     OW24922   9.052   1.987   0.002 -0.0632  0.0315 -0.1529
 4315SOL    HW124923   9.086   1.900   0.024 -0.0413 -0.3241 -1.5104
 4315SOL    HW224924   9.097   2.010  -0.079 -2.4500 -0.1081 -1.6016
 4316SOL     OW24925   0.319   9.780   5.140 -0.3760 -0.0408 -0.4005
 4316SOL    HW124926   0.333   9.796   5.047  1.2620 -1.7472 -0.5071
 4316SOL    HW224927   0.356   9.693   5.156 -3.0023 -0.9871  1.3258
 4317SOL     OW24928   9.753   8.775   6.529 -0.0223  0.0625  0.0878
 4317SOL    HW124929   9.773   8.702   6.470 -0.9112 -1.1439  1.2241
 4317SOL    HW224930   9.798   8.754   6.610 -0.3133  0.7632  0.4383
 4318SOL     OW24931   6.258   3.810   3.531  0.4804  0.2640  0.4873
 4318SOL    HW124932   6.309   3.736   3.562 -0.4594 -0.2755  0.7899
 4318SOL    HW224933   6.261   3.874   3.603 -1.7425 -1.0038  1.8312
 4319SOL     OW24934   0.613   6.133   2.053  0.9690 -0.1643 -0.0811
 4319SOL    HW124935   0.541   6.191   2.077  2.9434  1.6451  1.9589
 4319SOL    HW224936   0.586   6.094   1.970 -1.1647  2.4814 -0.7740
 4320SOL     OW24937   5.149   8.348   8.151  0.5272 -0.2759  0.5889
 4320SOL    HW124938   5.054   8.336   8.159  0.5591  0.1389  1.7999
 4320SOL    HW224939   5.173   8.296   8.075 -0.4756 -1.4655  1.0544
 4321SOL     OW24940   9.673   6.765   9.966 -0.5562  0.5029 -0.0280
 4321SOL    HW124941   9.656   6.839  10.025 -0.0984  1.0140 -0.5260
 4321SOL    HW224942   9.751   6.723  10.003 -1.5205 -0.4976  0.9677
 4322SOL     OW24943   2.472   0.743   7.269 -0.3210 -0.0362  0.0974
 4322SOL    HW124944   2.551   0.754   7.320 -0.8955  0.2182  0.9521
 4322SOL    HW224945   2.416   0.816   7.295 -0.6900  0.0058 -0.7785
 4323SOL     OW24946   0.245   4.846   3.952  0.1046 -0.4735 -0.1269
 4323SOL    HW124947   0.215   4.929   3.915 -1.5789 -1.2450 -0.5719
 4323SOL    HW224948   0.340   4.858   3.962 -0.3336  2.3880  2.1064
 4324SOL     OW24949   3.185   8.397   2.498 -0.3208  0.0982  0.0289
 4324SOL    HW124950   3.108   8.405   2.442 -0.0546 -0.5190 -0.4401
 4324SOL    HW224951   3.253   8.447   2.452 -0.6603  1.3936  0.8835
 4325SOL     OW24952   9.466   0.101   4.312  0.6869 -0.3425  0.5528
 4325SOL    HW124953   9.456   0.023   4.367 -0.8776 -0.9899 -0.5743
 4325SOL    HW224954   9.475   0.067   4.223 -1.2450  0.7433 -0.1123
 4326SOL     OW24955   3.015   8.244   9.712 -0.5639  0.4454  0.0802
 4326SOL    HW124956   3.044   8.161   9.749  2.3202  1.3540  0.1755
 4326SOL    HW224957   3.007   8.227   9.618 -0.1454  0.0084  0.1186
 4327SOL     OW24958   6.864   9.574   4.299 -0.0247  0.3429 -0.0869
 4327SOL    HW124959   6.846   9.577   4.393 -1.6163 -0.5881 -0.3176
 4327SOL    HW224960   6.809   9.642   4.262  0.6517  0.7557 -0.3539
 4328SOL     OW24961   5.601   8.784   2.695  0.4435  0.2679 -0.2441
 4328SOL    HW124962   5.639   8.840   2.763  0.0922 -0.8240  0.8908
 4328SOL    HW224963   5.511   8.816   2.685 -0.2990 -1.0676  1.5962
 4329SOL     OW24964   6.683   6.300   5.346 -0.1493 -0.0687 -0.0729
 4329SOL    HW124965   6.620   6.305   5.274  0.0798  1.6912 -0.2017
 4329SOL    HW224966   6.662   6.218   5.390 -2.3495  0.3074 -0.2794
 4330SOL     OW24967   6.074   8.620   1.546  0.5100  0.0332  0.0621
 4330SOL    HW124968   6.115   8.559   1.607  0.5696 -0.7838 -0.7698
 4330SOL    HW224969   6.134   8.695   1.542  1.4257 -0.7049 -0.3737
 4331SOL     OW24970   0.205   2.143   9.368  0.1572 -0.3053  0.1888
 4331SOL    HW124971   0.137   2.198   9.406 -0.4683  1.2229 -2.8134
 4331SOL    HW224972   0.159   2.062   9.345 -0.2864  0.0931 -0.3648
 4332SOL     OW24973   1.239  10.321   6.018 -0.2563 -0.0458 -0.1853
 4332SOL    HW124974   1.188  10.337   6.098 -2.2851  0.5775 -1.5387
 4332SOL    HW224975   1.265  10.229   6.025  0.2476  0.1936  1.5246
 4333SOL     OW24976   5.523   9.479   8.565  0.4177 -0.3915 -0.4706
 4333SOL    HW124977   5.582   9.468   8.490  0.5570 -1.0689 -0.2633
 4333SOL    HW224978   5.479   9.395   8.574 -0.7609  0.1716 -0.7623
 4334SOL     OW24979   1.272   1.035   3.245 -0.0071 -0.0377  0.0217
 4334SOL    HW124980   1.279   1.121   3.287 -1.6805 -0.2531  0.8164
 4334SOL    HW224981   1.213   1.050   3.171  1.2688 -0.1107 -1.0362
 4335SOL     OW24982   5.316  10.245   6.052  0.1531 -0.1759 -0.3355
 4335SOL    HW124983   5.230  10.211   6.025  0.0103 -1.1818  1.2490
 4335SOL    HW224984   5.350  10.179   6.112  2.3240 -0.0766 -1.3470
 4336SOL     OW24985   0.743   8.743   9.094 -0.0715 -0.3355 -0.0482
 4336SOL    HW124986   0.813   8.679   9.080  0.3708 -0.0681  0.9123
 4336SOL    HW224987   0.748   8.801   9.018  0.6081 -0.4432 -0.0878
 4337SOL     OW24988   3.797   4.276   7.461  0.1609 -0.7783  0.0499
 4337SOL    HW124989   3.711   4.267   7.502  0.0114 -1.3359 -0.3674
 4337SOL    HW224990   3.835   4.188   7.464 -0.0608 -0.9528 -1.4359
 4338SOL     OW24991  10.327   6.922   2.943  0.1302 -0.3795 -0.2934
 4338SOL    HW124992  10.375   6.997   2.979 -0.1913 -0.9100  1.3655
 4338SOL    HW224993  10.373   6.845   2.978 -0.8098 -0.9076 -0.1813
 4339SOL     OW24994   3.265   5.322   7.667 -0.4772  0.4961 -0.6522
 4339SOL    HW124995   3.269   5.236   7.625 -0.1498  0.4360 -0.5044
 4339SOL    HW224996   3.355   5.354   7.665 -0.1577 -0.1213  1.2555
 4340SOL     OW24997   5.035   0.688   6.827 -0.0588 -0.1762  0.0384
 4340SOL    HW124998   5.100   0.617   6.821 -0.7968 -1.0597  1.7955
 4340SOL    HW224999   5.040   0.716   6.919 -1.5862  0.2851 -0.0023
 4341SOL     OW25000   0.118   7.288   1.055  0.2930 -0.4211  0.5197
 4341SOL    HW125001   0.065   7.218   1.092  2.6506 -2.0319  1.0465
 4341SOL    HW225002   0.135   7.261   0.965 -2.2484  1.6307 -0.7007
 4342SOL     OW25003   5.613   2.827   6.227 -0.8961 -0.0220  0.2825
 4342SOL    HW125004   5.541   2.776   6.190 -0.3509 -0.0555 -0.7469
 4342SOL    HW225005   5.616   2.800   6.319 -2.5022  0.3334  0.4827
 4343SOL     OW25006   4.935   3.803   6.257  0.1583  0.1091 -0.1463
 4343SOL    HW125007   4.853   3.787   6.211  0.1733  0.1188 -0.1766
 4343SOL    HW225008   4.939   3.735   6.324 -0.8955  1.3773  1.2701
 4344SOL     OW25009   7.286   0.182   8.283 -0.0197 -0.0781  0.4802
 4344SOL    HW125010   7.367   0.204   8.329 -0.5128 -0.6707  1.6801
 4344SOL    HW225011   7.217   0.193   8.348 -0.8674 -0.0126 -0.3953
 4345SOL     OW25012   8.603   9.522   8.863  0.2459  0.3322  0.3831
 4345SOL    HW125013   8.546   9.582   8.911 -0.9547 -1.0500  0.7527
 4345SOL    HW225014   8.634   9.460   8.929  0.1612 -0.4138 -0.2588
 4346SOL     OW25015   7.685   0.125   8.275  0.4507  0.1132  0.2818
 4346SOL    HW125016   7.752   0.177   8.321  0.3032 -1.8335  2.9601
 4346SOL    HW225017   7.602   0.163   8.303  0.3314  1.3537 -1.5777
 4347SOL     OW25018   3.340   2.512   2.547  0.2303  0.0743  0.9698
 4347SOL    HW125019   3.279   2.452   2.503  0.7530  1.4149 -1.8368
 4347SOL    HW225020   3.301   2.598   2.535  1.6204  0.7385  1.0226
 4348SOL     OW25021   9.817   3.837   8.759 -0.0890  0.5034 -0.7864
 4348SOL    HW125022   9.849   3.920   8.796  0.3675 -0.3488  0.8395
 4348SOL    HW225023   9.897   3.788   8.740 -0.3526  0.5150 -2.0078
 4349SOL     OW25024   4.784   4.364   0.417 -0.6207 -0.2860  0.4053
 4349SOL    HW125025   4.697   4.348   0.381 -0.3724  2.3258 -1.6740
 4349SOL    HW225026   4.845   4.338   0.347  0.1761 -0.2369  1.0586
 4350SOL     OW25027   7.990   1.433   9.602 -0.0967  0.1444 -0.0934
 4350SOL    HW125028   7.904   1.404   9.575 -0.0951 -0.7633  0.8171
 4350SOL    HW225029   8.049   1.363   9.575  0.1350  0.0355  0.6716
 4351SOL     OW25030   8.194   9.521   0.811  0.4936 -0.2027  0.5587
 4351SOL    HW125031   8.207   9.431   0.781  0.9199  0.3805 -1.0958
 4351SOL    HW225032   8.240   9.575   0.747 -0.3524  1.2494  1.1186
 4352SOL     OW25033   8.532   7.594   6.404  0.6058  0.2367 -0.7757
 4352SOL    HW125034   8.542   7.555   6.491 -0.5327 -0.2744 -0.8484
 4352SOL    HW225035   8.592   7.668   6.404  1.1049 -0.1435  0.2105
 4353SOL     OW25036   1.578   3.430   9.356 -0.1866 -0.2247 -0.0492
 4353SOL    HW125037   1.669   3.419   9.330  0.1303 -1.0976  1.3522
 4353SOL    HW225038   1.529   3.427   9.273  0.9836 -0.4462 -0.7515
 4354SOL     OW25039   7.645   7.556   8.602 -0.1973 -0.2057  0.3143
 4354SOL    HW125040   7.556   7.525   8.623  0.2076 -0.7815  1.2607
 4354SOL    HW225041   7.702   7.482   8.625  0.6240  0.5433  0.7504
 4355SOL     OW25042   8.490   4.678   4.741 -0.1873  0.1290 -0.0984
 4355SOL    HW125043   8.491   4.773   4.743  0.1021  0.2322 -2.3556
 4355SOL    HW225044   8.425   4.656   4.673  1.2003 -1.1946 -1.0684
 4356SOL     OW25045   0.437   2.180   2.784 -0.0825 -0.0443  0.6140
 4356SOL    HW125046   0.438   2.232   2.704  1.6683 -0.4162  0.3673
 4356SOL    HW225047   0.388   2.234   2.847 -0.0512  0.9777 -0.2250
 4357SOL     OW25048   0.196   3.602   4.653 -0.3163 -0.0780 -0.2680
 4357SOL    HW125049   0.173   3.556   4.572 -0.7147 -0.8713  0.2786
 4357SOL    HW225050   0.189   3.535   4.721 -1.1729  0.8611  0.5941
 4358SOL     OW25051   1.159   1.239   1.792  0.3495  0.1496  0.1629
 4358SOL    HW125052   1.132   1.221   1.882 -0.0980  2.0313  0.4431
 4358SOL    HW225053   1.094   1.194   1.738 -2.5084  3.1120  0.8146
 4359SOL     OW25054   4.964   3.554   7.127 -0.1163 -0.0668  0.2085
 4359SOL    HW125055   4.933   3.468   7.098  0.7861 -0.1167 -0.6499
 4359SOL    HW225056   4.977   3.544   7.222  1.7284 -1.4732 -0.1283
 4360SOL     OW25057   1.579   3.805   6.890 -0.7260 -0.3638  0.1131
 4360SOL    HW125058   1.557   3.820   6.798 -0.0781 -1.3197 -0.2126
 4360SOL    HW225059   1.496   3.779   6.930 -1.0319  0.1614 -0.1658
 4361SOL     OW25060   3.709   4.501   0.122  0.0908 -0.1696 -0.0843
 4361SOL    HW125061   3.626   4.453   0.123  0.6492 -1.2313 -1.4234
 4361SOL    HW225062   3.689   4.582   0.077 -0.5671  0.3152  1.0297
 4362SOL     OW25063   7.913   8.222   9.082 -0.3439 -0.3266  0.3306
 4362SOL    HW125064   7.979   8.270   9.031 -0.9182  0.4187  0.2655
 4362SOL    HW225065   7.914   8.264   9.168 -1.4418  0.3780  0.0145
 4363SOL     OW25066   3.899   8.752   6.405 -0.1405 -0.2619  0.0761
 4363SOL    HW125067   3.849   8.832   6.421 -0.9455 -0.9361  1.0493
 4363SOL    HW225068   3.978   8.782   6.359 -0.3051  1.1154  0.6369
 4364SOL     OW25069   2.943   0.876  10.198 -0.3209  0.2186 -0.6049
 4364SOL    HW125070   3.017   0.903  10.252 -1.1001 -0.0297  0.6276
 4364SOL    HW225071   2.967   0.788  10.167 -1.2536 -1.1199  2.1569
 4365SOL     OW25072   4.715   2.891   9.611  0.4705  0.0131  0.1854
 4365SOL    HW125073   4.641   2.925   9.561  0.3944 -1.3816 -0.7177
 4365SOL    HW225074   4.783   2.877   9.545  0.5114 -1.4891  0.5196
 4366SOL     OW25075   8.950   5.529   3.836 -0.0205 -0.2507 -0.1842
 4366SOL    HW125076   9.006   5.452   3.832 -2.2587 -2.0920  1.6399
 4366SOL    HW225077   8.990   5.584   3.904  1.2517 -0.0030 -1.0869
 4367SOL     OW25078   0.768   3.345   3.006 -0.2227  0.0949  0.1177
 4367SOL    HW125079   0.672   3.344   3.009 -0.2852  2.0269  0.9634
 4367SOL    HW225080   0.790   3.439   3.004  1.6502 -0.2852  0.8185
 4368SOL     OW25081   5.033   3.045   9.403  0.2514  0.3757  0.1196
 4368SOL    HW125082   4.990   2.961   9.417 -0.9197  1.0613  0.7766
 4368SOL    HW225083   5.126   3.027   9.420  0.0943 -0.8916 -0.2676
 4369SOL     OW25084   8.519   5.862   7.280  0.1453  0.1818 -0.6439
 4369SOL    HW125085   8.444   5.851   7.339 -0.6038 -1.3065 -1.8107
 4369SOL    HW225086   8.590   5.890   7.337 -1.0545  0.7726  0.6407
 4370SOL     OW25087   3.218   2.597   9.569  0.0250 -0.5373  0.0097
 4370SOL    HW125088   3.211   2.643   9.485  1.0849 -0.2444  0.0615
 4370SOL    HW225089   3.290   2.642   9.614 -0.3353 -0.8855  0.9485
 4371SOL     OW25090   8.567   6.217   7.379  0.0441  0.0775 -0.4696
 4371SOL    HW125091   8.662   6.221   7.374  0.0551  1.0328  0.2545
 4371SOL    HW225092   8.541   6.173   7.298  1.0605  0.2859 -0.9270
 4372SOL     OW25093   5.545   0.002   0.040 -0.5402 -0.0736 -0.4887
 4372SOL    HW125094   5.500   0.019  -0.043 -1.8228 -1.1220 -0.0331
 4372SOL    HW225095   5.626   0.052   0.033 -1.6742  1.7337 -1.4080
 4373SOL     OW25096   1.967   7.756   2.251 -0.1333 -0.6335  0.6725
 4373SOL    HW125097   1.950   7.850   2.257 -2.9671 -1.1550  3.8888
 4373SOL    HW225098   2.061   7.747   2.268 -0.3390  1.5354  3.8228
 4374SOL     OW25099   9.358   7.014   0.301 -0.4092 -0.4204 -0.6639
 4374SOL    HW125100   9.444   6.986   0.269  0.7060  0.7860  1.0976
 4374SOL    HW225101   9.375   7.045   0.390 -2.4820  0.8869 -0.6719
 4375SOL     OW25102   3.456   0.625   6.261  0.0308  0.2120 -0.2855
 4375SOL    HW125103   3.488   0.548   6.308 -0.9615 -1.0403 -1.5447
 4375SOL    HW225104   3.483   0.700   6.314 -1.0130 -1.1027  2.2426
 4376SOL     OW25105   0.828   8.968   8.901  0.3539 -0.0298 -0.2071
 4376SOL    HW125106   0.851   9.025   8.974  1.1598 -0.5617 -0.0253
 4376SOL    HW225107   0.895   8.986   8.834 -0.6604  0.8089 -1.0225
 4377SOL     OW25108   8.407   6.040   6.406 -0.3465  0.1702  0.0791
 4377SOL    HW125109   8.368   6.041   6.494 -1.6807 -1.4404 -0.4254
 4377SOL    HW225110   8.384   5.954   6.371  0.9253  0.4315 -1.5284
 4378SOL     OW25111   8.443   0.527  10.057 -0.1907 -0.0979 -0.4248
 4378SOL    HW125112   8.395   0.528  10.140 -0.5163  0.3404 -0.6180
 4378SOL    HW225113   8.480   0.439  10.052 -1.4074 -0.6236 -0.5221
 4379SOL     OW25114   7.618  10.310   1.010 -0.4669 -0.6040  0.2211
 4379SOL    HW125115   7.609  10.388   0.955 -3.8308 -0.0483  1.3014
 4379SOL    HW225116   7.640  10.343   1.096 -2.1586 -0.7328  0.7467
 4380SOL     OW25117   2.998   1.186   9.043  0.0864  0.1826 -0.4549
 4380SOL    HW125118   2.958   1.208   9.127 -0.2732  1.8768 -1.0411
 4380SOL    HW225119   2.940   1.225   8.977  0.6001 -0.7216 -1.4816
 4381SOL     OW25120   8.099   8.071   2.016  0.3607 -0.2581  0.3440
 4381SOL    HW125121   8.121   8.075   1.923 -0.6637 -0.9988  0.0497
 4381SOL    HW225122   8.177   8.035   2.058  1.4693  1.6445  0.0369
 4382SOL     OW25123   4.319   9.935   1.273  0.2423  0.5790  0.1525
 4382SOL    HW125124   4.374   9.910   1.199  1.4043  1.0726  0.8183
 4382SOL    HW225125   4.232   9.902   1.251  1.1270 -1.6819 -0.2065
 4383SOL     OW25126  10.013   1.018   4.000 -0.0641  0.3684  0.0661
 4383SOL    HW125127  10.059   0.979   3.926  2.7337  2.3491  0.5682
 4383SOL    HW225128   9.945   0.955   4.023  1.0421 -1.7839 -2.1671
 4384SOL     OW25129   1.743   8.982   4.257  0.1088  0.2818  0.2227
 4384SOL    HW125130   1.787   9.067   4.265  0.1151  0.2746  0.2670
 4384SOL    HW225131   1.795   8.923   4.312 -0.1716  0.3572  0.5679
 4385SOL     OW25132   5.556   5.161   5.400  0.4354  0.0354  0.3062
 4385SOL    HW125133   5.479   5.194   5.355  0.3925 -1.3317 -0.6649
 4385SOL    HW225134   5.622   5.230   5.388 -0.3384  0.7912  0.3347
 4386SOL     OW25135   7.744   9.940  10.135 -0.4625  0.2603 -0.1616
 4386SOL    HW125136   7.676   9.974  10.076 -2.0829 -0.1818  1.3504
 4386SOL    HW225137   7.822   9.991  10.113 -0.6916 -0.5408 -3.2894
 4387SOL     OW25138   8.559   5.016   7.234 -0.5191  0.2195  0.8666
 4387SOL    HW125139   8.588   4.966   7.311  0.5454  1.2781  1.1776
 4387SOL    HW225140   8.571   4.955   7.161 -3.1692 -1.4326  1.6531
 4388SOL     OW25141   8.198   8.445   0.913  0.0753 -0.1491 -0.3366
 4388SOL    HW125142   8.227   8.535   0.902 -2.1212  0.4525 -1.5688
 4388SOL    HW225143   8.265   8.393   0.869  1.7653  0.7481  1.0259
 4389SOL     OW25144   3.459   8.355   2.972 -0.3420 -0.3030  0.0990
 4389SOL    HW125145   3.441   8.439   3.015  0.0806 -0.2070  0.0983
 4389SOL    HW225146   3.534   8.373   2.915 -1.0947 -0.3513 -0.9337
 4390SOL     OW25147   5.895   9.295   9.559  0.1299  0.1576  0.2671
 4390SOL    HW125148   5.846   9.268   9.637  2.5465 -2.2695  1.0953
 4390SOL    HW225149   5.859   9.241   9.489  1.4815 -1.5732  0.8594
 4391SOL     OW25150   0.676   1.307   9.154 -0.0381 -0.0770  0.3764
 4391SOL    HW125151   0.647   1.219   9.179 -2.7846  0.3583 -0.9948
 4391SOL    HW225152   0.661   1.360   9.233  1.4200 -0.7256  1.1365
 4392SOL     OW25153   4.122   5.502   8.951 -0.4127  0.1687 -0.3912
 4392SOL    HW125154   4.110   5.447   8.873 -0.2123 -0.1734 -0.1887
 4392SOL    HW225155   4.215   5.526   8.949 -0.3643  0.0061 -0.1635
 4393SOL     OW25156   1.698   0.055  10.011  0.2369  0.2935  0.4579
 4393SOL    HW125157   1.656   0.125  10.061 -2.2886  0.0705 -1.1748
 4393SOL    HW225158   1.749   0.101   9.944 -1.2205  0.6602 -0.4602
 4394SOL     OW25159   5.135   7.359   7.658  0.0865 -0.0693  0.1135
 4394SOL    HW125160   5.074   7.347   7.730 -0.3912 -0.4427 -0.3458
 4394SOL    HW225161   5.195   7.285   7.665 -0.1251 -0.2556 -0.0322
 4395SOL     OW25162   6.384   3.057   9.106 -0.3493  0.2169 -0.0450
 4395SOL    HW125163   6.466   3.102   9.087 -0.2141  0.8783  1.8881
 4395SOL    HW225164   6.318   3.126   9.110 -0.4657  0.0617  1.1687
 4396SOL     OW25165   7.897   5.079   5.849 -0.6090 -0.5290 -0.3014
 4396SOL    HW125166   7.970   5.140   5.840 -0.6186 -0.7069 -1.9983
 4396SOL    HW225167   7.936   4.992   5.840 -0.6178 -0.8336  1.9463
 4397SOL     OW25168   5.202   7.838   3.641 -0.1204  0.0295 -0.1319
 4397SOL    HW125169   5.175   7.905   3.703  1.8902  0.9338 -0.1361
 4397SOL    HW225170   5.237   7.887   3.566 -0.8608 -1.0403 -1.2106
 4398SOL     OW25171   0.062   5.470   9.029 -0.3808  0.0460  0.2075
 4398SOL    HW125172   0.039   5.381   9.001  1.2009  0.1568 -1.6732
 4398SOL    HW225173   0.061   5.466   9.124 -3.2263 -1.1693  0.2293
 4399SOL     OW25174   4.820   0.331   0.914 -0.3649 -0.3652  0.0344
 4399SOL    HW125175   4.907   0.341   0.952 -0.5161 -1.2587  0.6589
 4399SOL    HW225176   4.783   0.255   0.959 -1.2806 -0.2966 -0.5722
 4400SOL     OW25177   9.587   2.178   6.747  0.3653  0.0337  0.4991
 4400SOL    HW125178   9.537   2.114   6.796 -0.5799  0.2053 -0.2039
 4400SOL    HW225179   9.658   2.128   6.707  0.3307 -0.3490  0.9131
 4401SOL     OW25180   6.368   3.944   3.030  0.0225 -0.1197 -0.0377
 4401SOL    HW125181   6.462   3.959   3.028 -0.0582  0.3783 -0.8868
 4401SOL    HW225182   6.353   3.889   3.107  0.9035  0.4345  0.5339
 4402SOL     OW25183   7.637   6.574   6.472  0.3306  0.4644  0.2982
 4402SOL    HW125184   7.707   6.557   6.534  0.5388 -1.0802 -0.3243
 4402SOL    HW225185   7.680   6.617   6.398  0.9230 -1.6407 -0.6531
 4403SOL     OW25186   4.562   4.205   1.444 -0.1590 -0.4736 -0.1065
 4403SOL    HW125187   4.607   4.279   1.402  0.9472 -1.0495  0.0177
 4403SOL    HW225188   4.551   4.233   1.535  0.5916 -0.6003  0.0284
 4404SOL     OW25189   5.188   9.366   3.515 -0.2545 -0.4864 -0.2996
 4404SOL    HW125190   5.118   9.425   3.486 -1.0257 -1.1698  0.1404
 4404SOL    HW225191   5.251   9.424   3.558 -0.2601  0.2170 -1.1931
 4405SOL     OW25192   0.801   8.679   6.846 -0.2436  0.4405 -0.3291
 4405SOL    HW125193   0.800   8.586   6.867  1.0437  0.2710 -0.8939
 4405SOL    HW225194   0.861   8.718   6.910  0.0773  0.6907 -0.7728
 4406SOL     OW25195   9.274   3.274   5.146 -0.0941  0.1673 -0.2510
 4406SOL    HW125196   9.310   3.186   5.150 -0.3554  0.0440 -0.5274
 4406SOL    HW225197   9.223   3.275   5.065  0.4785  0.7891 -0.6199
 4407SOL     OW25198   0.030   8.557   8.237 -0.7500 -0.2632 -0.4632
 4407SOL    HW125199   0.023   8.502   8.315 -2.2049 -1.4647 -1.3744
 4407SOL    HW225200   0.124   8.561   8.219 -0.4286 -0.4511  0.9863
 4408SOL     OW25201   8.397  10.363   4.951 -0.0220  0.0231  1.0019
 4408SOL    HW125202   8.317  10.327   4.913 -0.3197 -0.0482  1.6884
 4408SOL    HW225203   8.395  10.455   4.927  0.9555 -0.4358 -1.1373
 4409SOL     OW25204   4.723   4.604   6.313  0.1616 -0.0695 -0.0755
 4409SOL    HW125205   4.786   4.542   6.350 -0.3929 -1.1153 -0.8498
 4409SOL    HW225206   4.700   4.661   6.387 -0.5188 -1.7647  1.0742
 4410SOL     OW25207   1.457   2.863  10.345 -0.2768 -0.5853 -0.1388
 4410SOL    HW125208   1.408   2.867  10.263 -1.7978 -0.9278  0.7109
 4410SOL    HW225209   1.522   2.795  10.331  0.6302  0.5292 -1.6221
 4411SOL     OW25210   5.883   6.322   9.794 -0.3124 -0.0679 -0.2934
 4411SOL    HW125211   5.869   6.331   9.700 -0.2549 -1.6513 -0.4672
 4411SOL    HW225212   5.927   6.238   9.805 -0.6001 -0.0592  1.1785
 4412SOL     OW25213   0.240   2.515   0.676  0.1120 -0.0917 -0.3208
 4412SOL    HW125214   0.144   2.518   0.678  0.1531  2.0896  0.4543
 4412SOL    HW225215   0.259   2.448   0.609 -1.9265 -0.2841 -0.8072
 4413SOL     OW25216   3.511   0.439   5.927 -0.0289 -0.6184  0.1373
 4413SOL    HW125217   3.556   0.452   5.843  0.2314 -0.1981  0.3389
 4413SOL    HW225218   3.460   0.359   5.914  1.2697 -1.4827  0.1059
 4414SOL     OW25219   0.868   2.232  10.039 -0.3185  0.1405  0.8065
 4414SOL    HW125220   0.860   2.319  10.079 -0.6239 -0.0386  1.1401
 4414SOL    HW225221   0.821   2.240   9.955  1.3911  0.8774 -0.1299
 4415SOL     OW25222   0.699   9.880   3.976 -0.0047 -0.4330  0.4775
 4415SOL    HW125223   0.790   9.905   3.962  0.3501 -0.8325  1.8534
 4415SOL    HW225224   0.675   9.925   4.058 -1.8553  1.7085 -1.1089
 4416SOL     OW25225   9.995   8.181   6.328  0.2905 -0.0928  0.4195
 4416SOL    HW125226  10.076   8.140   6.358  0.2560 -0.1298  0.4620
 4416SOL    HW225227  10.024   8.251   6.269  0.3019 -2.6298 -2.8913
 4417SOL     OW25228   6.575   7.668   9.848 -0.1738  0.0365 -0.3550
 4417SOL    HW125229   6.655   7.616   9.844  0.4612  1.0760 -2.1620
 4417SOL    HW225230   6.506   7.609   9.819  0.0943 -0.5433  0.1616
 4418SOL     OW25231   0.974   5.013   9.869  0.5803  0.2225 -0.2923
 4418SOL    HW125232   0.916   4.964   9.811  1.0900 -0.2337 -0.4276
 4418SOL    HW225233   1.041   5.049   9.811 -0.8354  2.7558 -0.4983
 4419SOL     OW25234   1.045   4.808   4.008 -1.1741  0.1022  0.8701
 4419SOL    HW125235   1.056   4.801   4.103  0.9504  0.2996  0.6907
 4419SOL    HW225236   0.991   4.733   3.985  0.4634 -1.5239  1.9599
 4420SOL     OW25237   6.103   1.390   6.762 -0.1325 -0.1534 -0.2281
 4420SOL    HW125238   6.195   1.388   6.787 -0.2249 -1.2950  0.1037
 4420SOL    HW225239   6.081   1.298   6.745 -1.5238 -0.0775  0.9184
 4421SOL     OW25240   9.092   3.748  10.023 -0.5939 -0.7672  0.0688
 4421SOL    HW125241   9.098   3.766   9.929  1.7612  2.0156  0.6058
 4421SOL    HW225242   9.000   3.723  10.037 -1.9926  2.2775 -2.4598
 4422SOL     OW25243   2.437   6.841   7.997 -0.0344 -0.2684  0.0069
 4422SOL    HW125244   2.416   6.856   8.089 -0.3808 -0.7055  0.0049
 4422SOL    HW225245   2.526   6.875   7.987  0.1980 -0.6688  0.6243
 4423SOL     OW25246   1.121   9.615   2.867 -0.4590  0.0126  0.3323
 4423SOL    HW125247   1.145   9.708   2.864  0.1772 -0.1604 -0.9756
 4423SOL    HW225248   1.132   9.590   2.958  0.1618  1.0374  0.5565
 4424SOL     OW25249   3.811   5.231   8.927  0.2416  0.0163  0.7960
 4424SOL    HW125250   3.771   5.299   8.982  1.2645  2.1373 -0.9461
 4424SOL    HW225251   3.769   5.242   8.842 -1.3774 -3.2639  1.0236
 4425SOL     OW25252   8.417   8.762   2.361  0.1848  0.2023 -0.1890
 4425SOL    HW125253   8.374   8.847   2.364  0.4212  0.3058  0.3517
 4425SOL    HW225254   8.429   8.738   2.453  0.4626 -0.2411 -0.3383
 4426SOL     OW25255   2.812   5.929   8.088  0.5629  0.1452  0.1119
 4426SOL    HW125256   2.864   5.858   8.050  0.6652  0.4405 -0.2974
 4426SOL    HW225257   2.862   5.957   8.164  0.2259 -0.6292  0.6420
 4427SOL     OW25258   0.696   9.559   7.438 -0.1817 -0.3707  0.3793
 4427SOL    HW125259   0.741   9.643   7.443 -0.4749 -0.0369 -1.6096
 4427SOL    HW225260   0.683   9.533   7.529  2.1411  0.5252  1.0453
 4428SOL     OW25261   9.631   9.279   2.336  0.1908  0.3473  0.2059
 4428SOL    HW125262   9.557   9.339   2.338  0.7180  0.9959  1.2895
 4428SOL    HW225263   9.608   9.213   2.270 -1.4757  0.3439  0.7685
 4429SOL     OW25264   0.847   5.438   9.643 -0.1889  0.1440  0.4451
 4429SOL    HW125265   0.856   5.528   9.673  3.2137 -0.0831  0.5038
 4429SOL    HW225266   0.864   5.385   9.721 -0.1766 -0.5195  0.0001
 4430SOL     OW25267   3.626   8.024  10.360  0.4281 -0.4602 -0.3178
 4430SOL    HW125268   3.578   8.044  10.440  1.1358  0.3611 -0.0890
 4430SOL    HW225269   3.652   8.109  10.325 -0.8452 -0.7140 -2.0491
 4431SOL     OW25270   5.055   8.619   8.742 -0.2149  0.0162 -0.0647
 4431SOL    HW125271   5.074   8.678   8.668  1.2609 -2.7159 -2.0328
 4431SOL    HW225272   4.960   8.625   8.753 -0.1751  2.5151 -0.3104
 4432SOL     OW25273   8.535   8.287   3.324 -0.6271  0.0960  0.3145
 4432SOL    HW125274   8.513   8.226   3.395  2.2442 -1.4866 -0.0102
 4432SOL    HW225275   8.561   8.367   3.369 -0.9532 -0.1359  0.9329
 4433SOL     OW25276   1.690   6.196   1.053  0.5588  0.0932 -0.0211
 4433SOL    HW125277   1.632   6.258   1.009 -0.4244 -1.6734 -1.3032
 4433SOL    HW225278   1.638   6.160   1.124  0.4981 -0.6032 -0.4158
 4434SOL     OW25279   1.910   5.517   8.965  0.2598 -0.2786 -0.2398
 4434SOL    HW125280   1.904   5.493   8.873  1.8838 -0.8033 -0.2403
 4434SOL    HW225281   1.820   5.512   8.998 -0.1314 -1.5430 -1.4316
 4435SOL     OW25282   3.455   0.785   8.887  0.7580  0.0392  0.6519
 4435SOL    HW125283   3.364   0.815   8.875  0.6818 -0.1749  0.6830
 4435SOL    HW225284   3.457   0.699   8.846  0.8584 -0.1013  0.9513
 4436SOL     OW25285   0.020   2.030   9.584  0.2732  0.2559  0.4742
 4436SOL    HW125286   0.010   2.120   9.551  1.9759  0.5486  0.6937
 4436SOL    HW225287   0.017   1.975   9.506 -0.5981  0.4968  0.3232
 4437SOL     OW25288   7.526   8.347   9.380  0.3294  0.2063  0.0427
 4437SOL    HW125289   7.582   8.269   9.387 -1.2270 -0.9219  0.3447
 4437SOL    HW225290   7.520   8.364   9.286 -0.6289 -1.0450 -0.1425
 4438SOL     OW25291   9.426   9.722   4.078  0.2185 -0.1707  0.0981
 4438SOL    HW125292   9.345   9.758   4.043  0.4872  0.0622 -0.2825
 4438SOL    HW225293   9.398   9.663   4.148 -0.2187  1.0099  0.9400
 4439SOL     OW25294   0.774  10.298   7.046 -0.2242  0.0942 -0.3572
 4439SOL    HW125295   0.806  10.249   6.970 -0.1516  0.5768 -0.6403
 4439SOL    HW225296   0.680  10.302   7.034 -0.5854 -2.1542  0.9584
 4440SOL     OW25297   9.708   1.133   1.863  0.0416  0.0686  0.0382
 4440SOL    HW125298   9.663   1.217   1.867 -0.8750 -0.3768 -0.5730
 4440SOL    HW225299   9.638   1.067   1.867  0.4384 -0.6198 -2.5158
 4441SOL     OW25300   3.383   9.175   4.991  0.2430  0.3277 -0.0433
 4441SOL    HW125301   3.415   9.204   5.077  0.6877  1.1682 -0.4790
 4441SOL    HW225302   3.462   9.172   4.936 -0.0596 -0.0592 -0.4603
 4442SOL     OW25303   7.038   5.660   0.270  0.8623 -0.8901 -0.2092
 4442SOL    HW125304   6.946   5.687   0.265  1.4471  1.5832  0.7162
 4442SOL    HW225305   7.037   5.583   0.327 -0.5145  0.0959  1.2183
 4443SOL     OW25306   9.253   6.349   2.518 -0.2300 -0.2704  0.3842
 4443SOL    HW125307   9.218   6.395   2.442  0.9772 -1.3233 -0.8703
 4443SOL    HW225308   9.316   6.410   2.557  1.4842 -0.7959 -1.3583
 4444SOL     OW25309   6.991   0.332   2.000 -0.0239  0.3871  0.1594
 4444SOL    HW125310   6.986   0.404   2.063  1.5386  0.5957  0.0744
 4444SOL    HW225311   6.975   0.373   1.915 -0.3715  0.4187  0.2403
 4445SOL     OW25312   3.196   0.359   0.027  0.0364 -0.0030 -0.1859
 4445SOL    HW125313   3.246   0.278   0.014 -0.7493 -0.6556  0.7339
 4445SOL    HW225314   3.252   0.413   0.082  0.4531 -0.0246 -0.5849
 4446SOL     OW25315   8.014   1.227   8.776  0.1477 -0.1521  0.3751
 4446SOL    HW125316   8.082   1.165   8.751 -0.3129 -0.6431  0.3300
 4446SOL    HW225317   7.939   1.203   8.722  0.1900  0.9106 -0.1881
 4447SOL     OW25318   0.661   3.973   0.891  0.2296  0.3919  0.1488
 4447SOL    HW125319   0.572   3.993   0.861 -0.1209 -0.3115  0.6786
 4447SOL    HW225320   0.711   4.052   0.874 -0.3557  0.5896 -0.7221
 4448SOL     OW25321   2.873   8.559   4.771 -0.0573  0.4223  0.0714
 4448SOL    HW125322   2.903   8.552   4.681  1.3854  1.2390  0.4609
 4448SOL    HW225323   2.928   8.498   4.820 -1.5752 -0.8509  0.2614
 4449SOL     OW25324   5.774   4.407   7.354  0.1942 -0.1970 -0.1949
 4449SOL    HW125325   5.768   4.312   7.359 -0.9337 -0.1253  0.2196
 4449SOL    HW225326   5.856   4.429   7.398 -0.9140 -0.8001  2.3553
 4450SOL     OW25327   4.025  10.323   0.380 -0.5714  0.2997  0.3545
 4450SOL    HW125328   4.100  10.382   0.381 -1.7907  1.8861  1.0873
 4450SOL    HW225329   4.060  10.240   0.414  0.6348  1.2562  1.5539
 4451SOL     OW25330   6.604   1.105   5.316  0.2711 -0.0099  0.0657
 4451SOL    HW125331   6.622   1.164   5.389 -0.1613  1.1928 -0.7780
 4451SOL    HW225332   6.651   1.025   5.339  0.9095  0.6613  1.2201
 4452SOL     OW25333   0.215   8.587   9.920  0.5512  0.3533 -0.2127
 4452SOL    HW125334   0.242   8.528   9.849  1.8258 -0.3293  0.7913
 4452SOL    HW225335   0.266   8.667   9.906  1.8980 -0.3085  0.7113
 4453SOL     OW25336   8.081   1.208   6.543 -0.4949  0.2187  0.6598
 4453SOL    HW125337   8.095   1.113   6.543  1.5790  0.4392  2.1496
 4453SOL    HW225338   8.086   1.232   6.636 -2.0435  1.6813  0.4030
 4454SOL     OW25339   4.878   6.511   2.470  0.1004  0.1271  0.1281
 4454SOL    HW125340   4.965   6.500   2.509  0.4902 -2.1802 -1.2090
 4454SOL    HW225341   4.895   6.527   2.378 -0.8727 -0.5879 -0.1949
 4455SOL     OW25342   2.412   1.733   8.448 -0.2769  0.0377  0.4391
 4455SOL    HW125343   2.457   1.650   8.434  0.2898  0.6116 -1.4780
 4455SOL    HW225344   2.477   1.788   8.494 -0.7345 -0.6013  1.9215
 4456SOL     OW25345   4.061   0.340   2.190  0.1544 -0.2311 -0.4565
 4456SOL    HW125346   4.123   0.394   2.140  0.0465  0.7834  0.4709
 4456SOL    HW225347   4.105   0.325   2.274 -1.8041  2.7660  1.3048
 4457SOL     OW25348   3.640   3.686   8.337  0.0977 -0.2816 -0.1866
 4457SOL    HW125349   3.645   3.737   8.256 -1.0893 -0.5715 -0.4654
 4457SOL    HW225350   3.610   3.600   8.309 -4.2874  0.6695  0.8635
 4458SOL     OW25351   1.421   6.705   9.033  0.3519 -0.2519 -0.6545
 4458SOL    HW125352   1.371   6.630   9.064  0.7251 -1.5564 -2.9982
 4458SOL    HW225353   1.421   6.766   9.107 -2.1993 -1.4142  0.4217
 4459SOL     OW25354   2.996   6.524   3.083 -0.3392 -0.1682  0.3044
 4459SOL    HW125355   3.007   6.616   3.056  2.5291 -0.6286 -0.3782
 4459SOL    HW225356   2.933   6.489   3.019 -0.8670  1.1088  0.0808
 4460SOL     OW25357   2.855   9.300   5.820  0.7298  0.0888 -0.2432
 4460SOL    HW125358   2.765   9.293   5.787  0.8460  1.1811 -0.8467
 4460SOL    HW225359   2.844   9.309   5.915 -0.0307  2.9554 -0.4981
 4461SOL     OW25360   0.424   2.066   7.090 -1.0748 -0.6655 -0.0067
 4461SOL    HW125361   0.508   2.029   7.120 -0.8742 -0.7858 -0.7075
 4461SOL    HW225362   0.436   2.080   6.996 -1.4752  0.3234  0.0806
 4462SOL     OW25363   1.315   8.982   7.962 -0.0744  0.1359 -0.1832
 4462SOL    HW125364   1.228   9.023   7.967  0.1119  1.1949 -3.2343
 4462SOL    HW225365   1.375   9.051   7.989 -0.0304  0.4783 -1.1116
 4463SOL     OW25366   8.696   3.349   7.297  0.3724  0.4499 -0.1943
 4463SOL    HW125367   8.712   3.352   7.391  2.6340 -1.9418 -0.3761
 4463SOL    HW225368   8.699   3.256   7.275 -2.8697  0.6701 -2.2952
 4464SOL     OW25369   0.358   5.786   1.496  0.2933 -0.1875 -0.1104
 4464SOL    HW125370   0.408   5.827   1.425  0.7509  0.6372  0.6670
 4464SOL    HW225371   0.268   5.781   1.462  0.6150 -0.3457 -0.9640
 4465SOL     OW25372   8.022   0.315   5.898 -0.1634 -0.4190 -0.3352
 4465SOL    HW125373   8.078   0.297   5.822 -0.4492 -0.1892 -0.6035
 4465SOL    HW225374   7.938   0.343   5.860  0.5440  2.4918  0.0316
 4466SOL     OW25375   5.287   8.778   3.596 -0.1055  0.0680 -0.6084
 4466SOL    HW125376   5.325   8.825   3.521 -2.5096  2.5552 -0.4156
 4466SOL    HW225377   5.236   8.707   3.556 -0.7651  0.9231 -1.3322
 4467SOL     OW25378   0.057   7.726   9.690 -0.3211 -0.4775 -0.1653
 4467SOL    HW125379   0.142   7.684   9.676 -0.5080 -1.1055  0.5490
 4467SOL    HW225380   0.059   7.802   9.632  1.2317  0.2284  0.7262
 4468SOL     OW25381   4.090   0.826   1.417  0.0096  0.2211 -0.0096
 4468SOL    HW125382   4.032   0.797   1.488 -0.7488  2.6541  0.4695
 4468SOL    HW225383   4.153   0.884   1.461  0.4743  0.5450 -1.0823
 4469SOL     OW25384   5.769   4.872   8.089 -0.0794 -0.3499  0.0915
 4469SOL    HW125385   5.856   4.911   8.076 -0.7460  1.2529  0.1653
 4469SOL    HW225386   5.731   4.869   8.001 -0.6613  0.7684  0.2904
 4470SOL     OW25387  10.152   0.163   0.792 -0.1626 -0.3496  0.0663
 4470SOL    HW125388  10.193   0.127   0.871  0.8878  0.0227 -0.2890
 4470SOL    HW225389  10.061   0.178   0.817  0.1432 -0.2712  1.2065
 4471SOL     OW25390   1.176   7.400   1.923 -0.2534 -0.2493 -0.0140
 4471SOL    HW125391   1.153   7.400   1.831  3.0880  1.8737 -1.0235
 4471SOL    HW225392   1.253   7.345   1.929 -0.1942 -0.0662  1.4542
 4472SOL     OW25393   1.223   8.674   9.171 -0.1179 -0.4642  0.1778
 4472SOL    HW125394   1.315   8.695   9.182 -0.1632  0.0329 -0.2910
 4472SOL    HW225395   1.177   8.743   9.219 -0.2533 -0.1368 -0.4075
 4473SOL     OW25396  10.215   7.489   8.446 -0.2456 -0.1913 -0.0664
 4473SOL    HW125397  10.202   7.397   8.422 -0.4065  0.0665 -0.9743
 4473SOL    HW225398  10.304   7.509   8.417 -0.7998  0.4112 -1.4040
 4474SOL     OW25399   6.807   9.624   3.988 -0.2591  0.1411  0.1535
 4474SOL    HW125400   6.711   9.620   3.982 -0.3699  1.5423  0.6246
 4474SOL    HW225401   6.828   9.576   4.068 -0.6722  0.6831  0.5999
 4475SOL     OW25402   5.799   0.498   7.670 -0.3850  0.0408  0.1337
 4475SOL    HW125403   5.763   0.409   7.671  0.9043 -0.5096 -0.4902
 4475SOL    HW225404   5.809   0.520   7.763  0.0378 -0.7895  0.2965
 4476SOL     OW25405   7.724   1.356   7.833 -0.0620  0.0809 -0.3639
 4476SOL    HW125406   7.778   1.425   7.872  0.5467 -0.5339 -0.1116
 4476SOL    HW225407   7.784   1.306   7.779 -0.3216 -0.7775  0.1286
 4477SOL     OW25408   2.228   1.892   8.257  0.2439 -0.1902  0.3006
 4477SOL    HW125409   2.237   1.839   8.336 -0.2923  1.5627  1.6062
 4477SOL    HW225410   2.143   1.868   8.221  0.0204 -0.2446  0.8609
 4478SOL     OW25411   6.421   0.693   4.635  0.3474 -0.1206 -0.3611
 4478SOL    HW125412   6.463   0.694   4.548  0.8060  1.2517 -0.1520
 4478SOL    HW225413   6.395   0.784   4.649  0.9755 -0.1695  1.2751
 4479SOL     OW25414   8.220   7.828   3.694  0.3556  0.2823 -0.0141
 4479SOL    HW125415   8.211   7.900   3.756  1.8271  0.8220 -0.4030
 4479SOL    HW225416   8.314   7.809   3.692  0.4418  0.6841 -2.5027
 4480SOL     OW25417   7.158   0.553   0.388 -0.5442  0.2473  0.2785
 4480SOL    HW125418   7.243   0.528   0.351 -1.5476  1.1461 -3.0426
 4480SOL    HW225419   7.169   0.644   0.415 -0.5897  0.5814 -0.7878
 4481SOL     OW25420   4.421   0.328   6.546  0.6642  0.3529 -0.5782
 4481SOL    HW125421   4.503   0.351   6.503  0.8079 -0.4543 -0.7362
 4481SOL    HW225422   4.353   0.360   6.487  0.8352  1.6382 -0.1315
 4482SOL     OW25423   5.525   9.260   5.122 -0.2758 -0.1708 -0.3428
 4482SOL    HW125424   5.616   9.234   5.107 -0.4377 -0.2898 -1.2157
 4482SOL    HW225425   5.475   9.211   5.057 -0.9303  0.1186 -0.0723
 4483SOL     OW25426   3.662   6.697   5.896 -0.3236 -0.8638  0.4275
 4483SOL    HW125427   3.613   6.687   5.977 -1.0744  1.8996  0.4132
 4483SOL    HW225428   3.596   6.692   5.827 -0.3425  0.7420  0.2846
 4484SOL     OW25429   4.969   8.353   9.867 -0.4595  0.4042  0.0165
 4484SOL    HW125430   5.027   8.301   9.922  0.7245  0.2747 -1.3222
 4484SOL    HW225431   5.013   8.437   9.858 -0.4263  0.2880 -1.0456
 4485SOL     OW25432   7.894   1.825   7.354  0.2372  0.0504  0.2794
 4485SOL    HW125433   7.906   1.752   7.415 -0.4359  0.1362  0.5264
 4485SOL    HW225434   7.800   1.829   7.339  0.1751  1.3038  0.8196
 4486SOL     OW25435   0.971   2.000   4.491  0.2408  0.6129 -0.0191
 4486SOL    HW125436   0.895   1.958   4.531  0.9372 -1.5660 -0.8458
 4486SOL    HW225437   1.031   2.016   4.564 -0.8979  2.2286  0.6161
 4487SOL     OW25438   3.584   8.190   0.585  0.1820 -0.3501  0.4288
 4487SOL    HW125439   3.615   8.132   0.655 -1.4347 -1.0477  0.5937
 4487SOL    HW225440   3.617   8.150   0.504 -1.2996 -1.7977  0.5005
 4488SOL     OW25441   7.300   1.004   7.316  0.4849  0.6428  0.3944
 4488SOL    HW125442   7.332   1.006   7.226  1.4096 -1.9689  0.5832
 4488SOL    HW225443   7.205   0.994   7.307  0.2172  3.1384 -0.2100
 4489SOL     OW25444   6.064   3.535   6.015 -0.2768  0.5349  0.9143
 4489SOL    HW125445   6.054   3.502   5.926 -1.9380  0.6630  1.0352
 4489SOL    HW225446   6.063   3.457   6.070 -0.7267  0.5526  0.9323
 4490SOL     OW25447   3.383   7.497   1.267 -0.4473 -0.7828  0.4004
 4490SOL    HW125448   3.288   7.502   1.260 -0.4195  1.0897  0.7688
 4490SOL    HW225449   3.415   7.553   1.196  0.2625  1.0777  2.0845
 4491SOL     OW25450   0.340   0.237   0.660  0.0275  0.3497 -0.3845
 4491SOL    HW125451   0.273   0.212   0.723 -0.8665  0.9481 -1.0744
 4491SOL    HW225452   0.293   0.245   0.577  1.3680 -1.4701 -1.3641
 4492SOL     OW25453   5.636   1.005   5.962  0.3323  0.3696  0.1012
 4492SOL    HW125454   5.551   1.036   5.931  1.1165  1.6350 -0.9113
 4492SOL    HW225455   5.649   1.050   6.045 -0.3044 -0.4194  0.6407
 4493SOL     OW25456   5.338   4.762   5.031  0.1941  0.1938 -0.4409
 4493SOL    HW125457   5.316   4.830   5.094 -1.0298 -0.4569 -0.1370
 4493SOL    HW225458   5.303   4.681   5.069  0.1642 -0.3387 -1.5553
 4494SOL     OW25459   2.234   0.443   6.899  0.1903 -0.5819  0.2763
 4494SOL    HW125460   2.310   0.387   6.917  1.3866  0.6322 -0.7596
 4494SOL    HW225461   2.271   0.530   6.882 -1.2898 -0.2532 -1.6784
 4495SOL     OW25462  10.049   5.063   8.677  0.1615 -0.5728 -0.0553
 4495SOL    HW125463  10.115   5.050   8.609  1.6755  0.1603  1.2192
 4495SOL    HW225464  10.095   5.109   8.747 -1.3938 -1.1560  1.4109
 4496SOL     OW25465   6.117   7.215   9.035  0.6479  0.0778  0.4528
 4496SOL    HW125466   6.094   7.219   9.128  0.4622 -0.0016  0.4097
 4496SOL    HW225467   6.153   7.128   9.022  1.0670  0.2334  0.5414
 4497SOL     OW25468   9.161   1.600   8.570  0.3380  0.3005  0.1153
 4497SOL    HW125469   9.107   1.679   8.566 -0.3858 -0.0917  1.4007
 4497SOL    HW225470   9.097   1.529   8.581  1.0349 -0.3708 -0.1118
 4498SOL     OW25471   4.676   3.318   6.132  0.6243  0.0214  0.4581
 4498SOL    HW125472   4.610   3.290   6.196  1.3858 -1.3501  0.6812
 4498SOL    HW225473   4.643   3.402   6.099 -1.2214 -0.6213  0.5470
 4499SOL     OW25474   9.127   0.872   0.475  0.0165 -0.2585 -0.4826
 4499SOL    HW125475   9.206   0.915   0.510 -0.5951 -0.1379  0.8117
 4499SOL    HW225476   9.056   0.933   0.493 -0.5938 -0.9955 -0.3198
 4500SOL     OW25477   9.564   4.945   6.761 -0.0193 -0.2735 -0.2705
 4500SOL    HW125478   9.517   4.878   6.810  0.5190  0.3723  1.1903
 4500SOL    HW225479   9.512   4.957   6.681  0.1197 -2.6957 -0.7894
 4501SOL     OW25480   7.525   8.592   0.774 -0.7765  0.5646 -0.2139
 4501SOL    HW125481   7.540   8.622   0.864 -0.4575 -1.1958  0.3620
 4501SOL    HW225482   7.608   8.608   0.730 -0.7673  0.9667 -0.0550
 4502SOL     OW25483   7.822   8.420   0.698  0.2181 -0.2302  1.4016
 4502SOL    HW125484   7.881   8.345   0.685  0.3484 -0.0496  0.9295
 4502SOL    HW225485   7.854   8.462   0.777  1.1423  0.2483  0.7922
 4503SOL     OW25486   1.843   8.189   8.810 -0.0428  0.2237  0.6481
 4503SOL    HW125487   1.845   8.097   8.838 -1.5389 -0.5929 -1.6473
 4503SOL    HW225488   1.762   8.223   8.848 -0.1590  0.2116  0.4091
 4504SOL     OW25489   0.749   8.894   7.452 -0.0311 -0.1349  0.5706
 4504SOL    HW125490   0.662   8.900   7.412 -0.5959 -2.4497  1.2938
 4504SOL    HW225491   0.775   8.985   7.467 -3.0446  0.6319  1.8587
 4505SOL     OW25492   7.881   3.211   8.743 -0.4569  0.0466 -0.8771
 4505SOL    HW125493   7.810   3.274   8.753  0.7534  1.2077  1.1319
 4505SOL    HW225494   7.836   3.127   8.731 -2.1981  0.7016  0.5549
 4506SOL     OW25495   1.785   9.679   8.058 -0.1998  0.4359  0.7008
 4506SOL    HW125496   1.698   9.653   8.089 -0.3280  0.2534  0.1976
 4506SOL    HW225497   1.786   9.774   8.067 -1.3155  0.7107 -1.4100
 4507SOL     OW25498   7.533   2.043   8.036  0.2156  0.7745  0.1837
 4507SOL    HW125499   7.494   1.966   7.996  1.9774  0.0839 -0.2702
 4507SOL    HW225500   7.504   2.116   7.981 -0.4680  0.3007 -0.0952
 4508SOL     OW25501   5.291   7.137   8.987 -0.5747  0.8257  0.1689
 4508SOL    HW125502   5.309   7.111   8.897 -0.8755  0.2375  0.2736
 4508SOL    HW225503   5.195   7.145   8.991 -0.4724  2.6786 -0.0474
 4509SOL     OW25504   8.037   5.929   5.327  0.2432 -0.0005  0.3814
 4509SOL    HW125505   8.118   5.942   5.377  1.0525 -3.0556  0.0977
 4509SOL    HW225506   7.979   5.884   5.388  0.2311 -1.2904 -0.5375
 4510SOL     OW25507   9.040   6.827   1.418  0.2600 -0.0212  0.0882
 4510SOL    HW125508   8.999   6.792   1.496  1.8155 -2.2782 -0.0269
 4510SOL    HW225509   9.089   6.904   1.449 -0.3556  0.0129  1.0201
 4511SOL     OW25510   5.349   7.939   5.331  0.3348 -0.1703 -0.2470
 4511SOL    HW125511   5.394   7.981   5.404  0.0264 -0.3762  0.0625
 4511SOL    HW225512   5.350   8.005   5.261  0.1541  0.2209  0.1175
 4512SOL     OW25513   2.821   7.582   3.199 -0.0755 -0.0562 -0.4919
 4512SOL    HW125514   2.874   7.640   3.144  0.7634  1.6935  1.9600
 4512SOL    HW225515   2.880   7.511   3.224  0.2755  0.3900 -0.0271
 4513SOL     OW25516   2.489   3.491   6.769 -0.4888  0.3710  0.2173
 4513SOL    HW125517   2.448   3.577   6.760  0.1477  0.5666 -1.0497
 4513SOL    HW225518   2.489   3.456   6.680  1.3794  0.0628  0.3017
 4514SOL     OW25519   2.444   3.702   1.032 -0.8255 -0.0739 -0.2794
 4514SOL    HW125520   2.381   3.773   1.021 -1.5272 -0.8127 -1.1880
 4514SOL    HW225521   2.518   3.743   1.076 -1.6650  0.9680  0.2304
 4515SOL     OW25522   2.385   0.015  10.042 -1.2562  0.4803  0.2930
 4515SOL    HW125523   2.455  -0.008  10.102 -0.6521  1.9839  0.2089
 4515SOL    HW225524   2.397  -0.043   9.967 -0.0012  0.7861  0.2267
 4516SOL     OW25525   3.031   0.799   1.369 -0.1099 -0.1611  0.0921
 4516SOL    HW125526   3.018   0.791   1.274 -0.5037 -0.5807  0.1830
 4516SOL    HW225527   2.962   0.746   1.408  1.0933 -1.4366  0.5906
 4517SOL     OW25528   8.300   4.591   4.541 -0.3307 -0.4120  0.0257
 4517SOL    HW125529   8.299   4.614   4.448 -1.7129  2.2414  0.6082
 4517SOL    HW225530   8.209   4.575   4.563 -0.0610 -0.6314  1.0295
 4518SOL     OW25531   2.052   1.174   5.571 -0.1294  0.2029 -0.0822
 4518SOL    HW125532   2.138   1.169   5.529 -0.4630  1.0512 -0.8951
 4518SOL    HW225533   1.993   1.201   5.501 -1.0386 -0.2063  0.5072
 4519SOL     OW25534   4.540   2.961   5.086  0.4248 -0.1729  0.1121
 4519SOL    HW125535   4.509   2.870   5.084 -0.8407  0.2216  0.5225
 4519SOL    HW225536   4.468   3.010   5.127  2.0021  0.6660  2.0775
 4520SOL     OW25537   9.764   9.054   3.218 -0.1046  0.1755  0.4173
 4520SOL    HW125538   9.761   8.959   3.212 -1.2616  0.2312 -0.0956
 4520SOL    HW225539   9.706   9.085   3.149 -1.0677  1.2181  1.6336
 4521SOL     OW25540   0.036   3.338   7.202  0.1913 -0.8148  0.2784
 4521SOL    HW125541   0.069   3.300   7.283  4.3489  0.9274 -0.3464
 4521SOL    HW225542   0.066   3.429   7.204 -0.2954 -0.4639 -2.8370
 4522SOL     OW25543   9.144   7.132   7.684  0.5081 -0.0315  0.1250
 4522SOL    HW125544   9.110   7.131   7.594 -1.9984 -1.2461  0.9783
 4522SOL    HW225545   9.176   7.221   7.696 -1.2302  0.8656 -1.2930
 4523SOL     OW25546   1.876   9.663   0.504  0.2561 -0.1612  0.1686
 4523SOL    HW125547   1.869   9.724   0.578  0.6652  0.7173 -0.5066
 4523SOL    HW225548   1.807   9.599   0.520 -0.7725  0.9735  0.4222
 4524SOL     OW25549   4.223   7.397   4.518 -0.0591  0.4171  0.1858
 4524SOL    HW125550   4.230   7.358   4.605 -0.0400 -0.8531 -0.3762
 4524SOL    HW225551   4.146   7.453   4.523 -2.1227 -2.2476  0.0738
 4525SOL     OW25552   9.754   2.694   1.808  0.5956 -0.5957  0.2880
 4525SOL    HW125553   9.770   2.698   1.714 -0.1918  0.6063  0.1923
 4525SOL    HW225554   9.662   2.668   1.816 -0.4978  2.9050  0.6005
 4526SOL     OW25555   7.593   1.782   6.221 -0.8061  0.3583  0.1122
 4526SOL    HW125556   7.519   1.838   6.197 -0.0347  0.9327 -1.0283
 4526SOL    HW225557   7.668   1.842   6.223  0.0320 -0.6046 -1.0704
 4527SOL     OW25558   3.039   9.523   0.897  0.0022 -0.1765 -0.2925
 4527SOL    HW125559   3.057   9.474   0.977 -0.4995  1.6967  1.0233
 4527SOL    HW225560   2.944   9.523   0.889 -0.1201  1.8600  0.6253
 4528SOL     OW25561   2.989  10.059   5.141 -0.3244 -0.5316 -0.0247
 4528SOL    HW125562   3.073  10.076   5.096 -0.8768  3.1136  0.0211
 4528SOL    HW225563   2.948   9.991   5.088  2.3537 -2.0199 -0.4061
 4529SOL     OW25564   5.762   6.830   4.886 -0.2498  0.2025  0.4339
 4529SOL    HW125565   5.800   6.743   4.877 -0.1014  0.0390  2.3534
 4529SOL    HW225566   5.813   6.872   4.955 -1.7315  1.0131  1.0786
 4530SOL     OW25567   8.816   4.698   3.730  0.1332 -0.5626 -0.4720
 4530SOL    HW125568   8.855   4.697   3.818  1.3901 -2.4726 -0.9924
 4530SOL    HW225569   8.732   4.654   3.741  0.9857 -2.2667 -0.4691
 4531SOL     OW25570   7.363   1.919   6.168  0.4442  0.1371  0.7468
 4531SOL    HW125571   7.337   1.892   6.256  1.0290 -0.5919  0.7107
 4531SOL    HW225572   7.280   1.934   6.122  0.1364  0.7240  1.4769
 4532SOL     OW25573   1.131   1.280   2.262  0.3447 -0.2201  0.7383
 4532SOL    HW125574   1.206   1.337   2.277  0.4819 -0.9236  3.0656
 4532SOL    HW225575   1.169   1.196   2.235  0.2023  0.3258 -1.2958
 4533SOL     OW25576   6.641   5.619   1.624 -0.0613 -0.2986  0.5161
 4533SOL    HW125577   6.682   5.539   1.589  1.1347 -0.5034  2.2688
 4533SOL    HW225578   6.686   5.690   1.579  1.4556 -0.5586  1.5540
 4534SOL     OW25579   4.099   4.050   3.806 -0.1598 -0.0524  0.4029
 4534SOL    HW125580   4.124   4.134   3.768 -1.4392  0.4698  0.6773
 4534SOL    HW225581   4.182   4.009   3.829  0.5231  0.7613 -0.5115
 4535SOL     OW25582   0.060   8.906   1.654 -0.1325  0.3308  0.1982
 4535SOL    HW125583  -0.027   8.945   1.662  0.5156  2.2049 -1.0757
 4535SOL    HW225584   0.096   8.909   1.742 -1.3543 -0.5396  0.7609
 4536SOL     OW25585   8.759   8.994   0.389  0.2697  0.4483 -0.4993
 4536SOL    HW125586   8.782   9.063   0.326  1.5192  1.0778  0.5897
 4536SOL    HW225587   8.732   9.041   0.467  0.4372 -0.2997  0.0178
 4537SOL     OW25588   9.400   8.346   0.683 -0.2349  0.1851  0.9859
 4537SOL    HW125589   9.430   8.321   0.595  2.5905 -1.5142  2.3007
 4537SOL    HW225590   9.360   8.433   0.671 -1.1029 -0.5128 -2.1225
 4538SOL     OW25591  10.059   1.344   3.130 -0.9701 -0.7695  0.2186
 4538SOL    HW125592  10.139   1.359   3.080 -1.1036 -2.4384 -0.5579
 4538SOL    HW225593  10.087   1.295   3.207 -0.7844  1.6850  1.7964
 4539SOL     OW25594   0.492   5.251   2.633  0.0809  0.5532 -0.4010
 4539SOL    HW125595   0.516   5.283   2.546  0.0536  1.6713 -0.0208
 4539SOL    HW225596   0.431   5.179   2.617 -1.0559  1.6719 -1.3127
 4540SOL     OW25597   7.526   8.989   8.214  0.4480  0.0424 -0.5418
 4540SOL    HW125598   7.563   8.902   8.227  1.5776  0.3218 -1.6609
 4540SOL    HW225599   7.501   9.018   8.302 -0.1214 -1.4625 -0.1744
 4541SOL     OW25600   8.928   1.017   2.556  0.0085 -0.0855 -0.0960
 4541SOL    HW125601   8.902   1.030   2.465  1.2865 -0.5622 -0.5534
 4541SOL    HW225602   9.023   1.023   2.554  0.0773 -0.5721  1.1381
 4542SOL     OW25603   7.174   6.180   7.909  0.4376  0.3278 -0.3389
 4542SOL    HW125604   7.099   6.155   7.856 -0.5417  1.6071  0.3924
 4542SOL    HW225605   7.191   6.272   7.888 -0.5563  1.1694  2.1198
 4543SOL     OW25606   6.170   1.853   4.743 -0.2825  0.3995 -0.4262
 4543SOL    HW125607   6.126   1.919   4.796  0.3639  0.2340  0.3436
 4543SOL    HW225608   6.152   1.770   4.788 -0.0265  0.2149 -0.6598
 4544SOL     OW25609   3.160   2.218   5.297  0.0293  0.0154 -0.2040
 4544SOL    HW125610   3.228   2.284   5.284 -0.0202  0.0944 -0.0568
 4544SOL    HW225611   3.173   2.156   5.225  0.4261 -0.1146 -0.0192
 4545SOL     OW25612   3.520   2.647   6.027 -0.7203  0.0087  0.2521
 4545SOL    HW125613   3.596   2.613   5.979 -1.4297 -1.0455 -0.1777
 4545SOL    HW225614   3.453   2.658   5.960 -0.9531  0.9435  0.6289
 4546SOL     OW25615   5.821   5.644   0.665 -0.1634  0.3325  0.0280
 4546SOL    HW125616   5.869   5.722   0.637 -0.2100 -0.0370 -1.1555
 4546SOL    HW225617   5.764   5.624   0.591 -2.9595  1.3671  1.7511
 4547SOL     OW25618   8.828   7.155   7.733  0.2295 -0.6124 -0.4771
 4547SOL    HW125619   8.872   7.095   7.672 -0.2476 -1.2993 -0.1697
 4547SOL    HW225620   8.833   7.240   7.691  0.3238 -0.9921 -1.2627
 4548SOL     OW25621   6.617   5.950   9.585  0.1920 -0.3192  0.5963
 4548SOL    HW125622   6.632   5.866   9.630  1.3347  0.4550  1.7326
 4548SOL    HW225623   6.689   5.956   9.523 -1.1094 -1.1539 -1.0565
 4549SOL     OW25624   9.040  10.387   1.597 -0.1154  0.2068 -0.3463
 4549SOL    HW125625   8.963  10.428   1.557 -0.5633 -0.5383 -0.2671
 4549SOL    HW225626   9.004  10.334   1.668  0.6752  1.5922  1.1302
 4550SOL     OW25627   8.727   6.037   4.831  0.2741  0.1228  0.0084
 4550SOL    HW125628   8.796   5.971   4.828 -0.1104 -0.4324  2.0962
 4550SOL    HW225629   8.774   6.121   4.826  1.1077 -0.2520  1.1502
 4551SOL     OW25630   3.274   9.781   6.990  0.2177  0.2550 -0.4933
 4551SOL    HW125631   3.281   9.874   6.969  0.3651 -0.0475 -1.9006
 4551SOL    HW225632   3.181   9.762   6.980 -0.2249  0.7096  2.0531
 4552SOL     OW25633   7.061   7.817   0.612  0.3679 -0.1472 -0.2255
 4552SOL    HW125634   7.028   7.854   0.530  0.3254 -1.0332 -0.6261
 4552SOL    HW225635   7.016   7.733   0.620  0.3481 -0.0606  0.7321
 4553SOL     OW25636   1.436   4.339   9.895 -0.4015  0.4169  0.2922
 4553SOL    HW125637   1.470   4.424   9.924  0.2584  0.2033  0.1491
 4553SOL    HW225638   1.382   4.360   9.819  0.3867  0.6211 -0.2182
 4554SOL     OW25639   0.080   9.115  10.081  0.1221 -0.0757 -0.1395
 4554SOL    HW125640   0.073   9.183  10.149 -0.5168  0.0566 -0.3312
 4554SOL    HW225641   0.012   9.052  10.103 -0.9673  0.6163 -1.3616
 4555SOL     OW25642   9.775   3.126   1.118 -0.0064 -0.4526  0.0314
 4555SOL    HW125643   9.790   3.050   1.061  0.2048  0.0734 -0.6376
 4555SOL    HW225644   9.853   3.131   1.172  0.2009 -0.4296 -0.2635
 4556SOL     OW25645   0.749   1.714   5.256 -0.2367  0.0368 -0.3320
 4556SOL    HW125646   0.684   1.676   5.195 -0.6148  1.1838 -0.6643
 4556SOL    HW225647   0.799   1.774   5.202  0.2840  0.1001  0.2191
 4557SOL     OW25648  10.255   4.618   9.603 -0.2394 -0.4263 -0.2591
 4557SOL    HW125649  10.307   4.556   9.655  0.4031 -0.6761 -1.1792
 4557SOL    HW225650  10.190   4.564   9.560  1.1067 -0.7138 -2.0705
 4558SOL     OW25651   8.074   6.557   9.815  0.0929 -0.2073 -0.4314
 4558SOL    HW125652   8.140   6.554   9.745  0.2659  0.1473 -0.2816
 4558SOL    HW225653   8.113   6.612   9.883 -0.3200 -0.0693 -0.3020
 4559SOL     OW25654   9.480   2.953   9.755 -0.0669 -0.1709 -0.4067
 4559SOL    HW125655   9.436   2.932   9.673  0.0786 -0.1132 -0.4992
 4559SOL    HW225656   9.507   3.044   9.746 -0.7913  0.1049  0.0368
 4560SOL     OW25657   4.606   8.317   8.377 -0.9713 -0.4711  0.8661
 4560SOL    HW125658   4.658   8.378   8.324 -1.8678 -1.7104 -1.6018
 4560SOL    HW225659   4.657   8.305   8.457  0.5816  1.3345  0.2140
 4561SOL     OW25660   8.940   5.704   8.639 -0.6963  0.1024 -0.6249
 4561SOL    HW125661   8.871   5.639   8.634  0.1239 -0.7358 -1.6861
 4561SOL    HW225662   8.965   5.720   8.548  0.9591 -0.1465 -0.2640
 4562SOL     OW25663   9.713   6.121   3.638 -0.3052  0.0666  0.0514
 4562SOL    HW125664   9.719   6.039   3.687 -1.8398  0.7021  1.4035
 4562SOL    HW225665   9.628   6.158   3.663  0.0281  1.7254 -1.0800
 4563SOL     OW25666  10.234   5.871   1.429  0.1667 -0.4080  0.6375
 4563SOL    HW125667  10.321   5.850   1.396 -0.7020 -0.1336 -2.0900
 4563SOL    HW225668  10.211   5.954   1.386 -2.1679 -1.4523 -0.3518
 4564SOL     OW25669   5.565   6.631   0.966 -0.5110  0.1785 -0.4531
 4564SOL    HW125670   5.564   6.614   1.061 -0.0413 -1.8795 -0.7550
 4564SOL    HW225671   5.656   6.619   0.941 -0.6759  0.4797 -1.2047
 4565SOL     OW25672   2.684   3.891   1.577 -0.0395  0.3209  0.7162
 4565SOL    HW125673   2.699   3.808   1.531 -0.1604 -0.0688  1.3696
 4565SOL    HW225674   2.771   3.928   1.587  0.0981 -0.1024  1.1128
 4566SOL     OW25675   5.524   6.589   7.307 -0.4490  0.6863  0.0275
 4566SOL    HW125676   5.483   6.674   7.289 -0.7679  0.8832  1.5313
 4566SOL    HW225677   5.591   6.608   7.373 -2.1060 -0.5219  2.1997
 4567SOL     OW25678   0.326   7.104   2.878  0.3232 -0.1261  0.1148
 4567SOL    HW125679   0.412   7.132   2.845 -1.2259  1.7061 -2.7618
 4567SOL    HW225680   0.300   7.173   2.938  0.7188 -0.5447  0.7770
 4568SOL     OW25681   2.272   7.550   6.636 -0.1893 -0.1604  0.3111
 4568SOL    HW125682   2.292   7.533   6.728  0.4259 -0.7377  0.0810
 4568SOL    HW225683   2.343   7.606   6.605  0.7331 -1.5989 -0.3112
 4569SOL     OW25684   9.227   0.013   3.307 -0.5321  0.0154 -0.2786
 4569SOL    HW125685   9.232   0.018   3.211  0.2464 -1.3745 -0.3336
 4569SOL    HW225686   9.277  -0.065   3.330  1.0273  1.4241  1.4171
 4570SOL     OW25687   5.292   5.065   5.742  0.2091 -0.4872 -0.0655
 4570SOL    HW125688   5.304   5.035   5.652 -0.6388 -0.1852 -0.2879
 4570SOL    HW225689   5.321   5.156   5.741 -0.6830 -0.1994 -0.2602
 4571SOL     OW25690   8.239   5.003   8.237 -0.3478  0.0602  0.2881
 4571SOL    HW125691   8.334   4.996   8.247 -0.3983 -0.0579  0.6917
 4571SOL    HW225692   8.225   5.094   8.209 -0.1933  0.3786  1.2185
 4572SOL     OW25693   2.561   9.287   6.472 -0.1476  0.9246 -0.1872
 4572SOL    HW125694   2.653   9.314   6.475  0.3083 -0.2547 -1.8569
 4572SOL    HW225695   2.530   9.316   6.386 -1.5998  1.9880  0.6531
 4573SOL     OW25696   3.424   8.033   9.370 -0.2325 -0.0391  0.7197
 4573SOL    HW125697   3.429   7.944   9.335  1.3172  1.0642 -2.2022
 4573SOL    HW225698   3.481   8.031   9.447  2.3461 -0.9534 -1.0591
 4574SOL     OW25699   1.644   2.310   8.541 -0.5090  0.0713 -1.0731
 4574SOL    HW125700   1.563   2.348   8.506 -0.6740  1.6135  0.8059
 4574SOL    HW225701   1.617   2.266   8.622  0.1608 -1.7300 -1.7691
 4575SOL     OW25702   3.176   4.207   8.437  0.7591 -0.4338  0.2373
 4575SOL    HW125703   3.230   4.186   8.513 -0.9124  0.5284  1.7569
 4575SOL    HW225704   3.098   4.152   8.446 -0.5186  1.3470  0.5344
 4576SOL     OW25705   3.986   0.673   2.065 -0.7466 -1.2233 -0.0733
 4576SOL    HW125706   4.069   0.625   2.070 -0.3214 -0.4411  0.6883
 4576SOL    HW225707   3.934   0.625   2.001  0.0132 -2.1632 -0.0060
 4577SOL     OW25708  10.164   9.749   1.523  0.5001 -0.1771 -0.3868
 4577SOL    HW125709  10.249   9.708   1.508  0.4236 -0.2431 -0.6450
 4577SOL    HW225710  10.184   9.827   1.575  0.5200 -1.1908  1.2016
 4578SOL     OW25711   0.134   1.901   0.666 -0.0114 -0.9907 -0.0173
 4578SOL    HW125712   0.160   1.985   0.704 -2.1330 -1.1067  1.8936
 4578SOL    HW225713   0.203   1.840   0.693 -0.0065 -0.4568  1.2616
 4579SOL     OW25714   4.154   9.438   1.751  0.2993  0.0634  0.3545
 4579SOL    HW125715   4.247   9.429   1.729 -0.2618 -1.6746 -1.6915
 4579SOL    HW225716   4.133   9.529   1.732  1.3363  0.1803 -0.3007
 4580SOL     OW25717   2.257   2.321   3.583  0.1680  0.6159 -0.3478
 4580SOL    HW125718   2.203   2.242   3.586  0.7283  0.2557  0.6183
 4580SOL    HW225719   2.259   2.345   3.490  1.1582 -1.3272 -0.8812
 4581SOL     OW25720   4.959  10.128   3.303  0.2872 -0.0731  0.2893
 4581SOL    HW125721   4.908  10.200   3.266  0.0918 -0.4053 -0.0872
 4581SOL    HW225722   4.991  10.080   3.227 -2.5149 -2.4921  0.5099
 4582SOL     OW25723   7.930  10.228   3.417 -0.1523  0.1333 -0.2151
 4582SOL    HW125724   7.923  10.228   3.512 -0.3910  1.5522 -0.2155
 4582SOL    HW225725   7.856  10.280   3.387  0.9545  1.2683 -1.0772
 4583SOL     OW25726   8.626   4.006   2.781  0.1944 -0.3620  0.2562
 4583SOL    HW125727   8.683   3.936   2.750  2.2334  1.1909  0.3068
 4583SOL    HW225728   8.685   4.079   2.800 -1.9140  1.7624 -0.7806
 4584SOL     OW25729   1.803   8.100   5.746 -0.2667  0.0621 -0.3563
 4584SOL    HW125730   1.863   8.107   5.820 -0.1803 -0.6819 -0.3558
 4584SOL    HW225731   1.716   8.100   5.785 -0.2924  1.3348 -0.3687
 4585SOL     OW25732   0.513   0.444   6.512 -0.3718  0.1668 -0.2683
 4585SOL    HW125733   0.505   0.489   6.597 -1.6673  0.2819 -0.4323
 4585SOL    HW225734   0.485   0.509   6.448  0.7656  0.1335 -0.8222
 4586SOL     OW25735   2.374   1.056   7.639  0.1105 -0.3089  0.5121
 4586SOL    HW125736   2.449   1.096   7.596 -0.3037  1.6517  1.5472
 4586SOL    HW225737   2.374   1.091   7.727 -0.4827 -2.3872  1.4104
 4587SOL     OW25738   1.560   2.154   6.639  0.3137  0.2469 -0.0040
 4587SOL    HW125739   1.644   2.156   6.683 -1.1172 -0.5606  3.0255
 4587SOL    HW225740   1.522   2.240   6.654 -0.5509 -0.3179  1.2242
 4588SOL     OW25741   0.368   3.797   1.053 -0.1594 -0.4356  0.5026
 4588SOL    HW125742   0.447   3.794   1.107  0.1784 -0.4157  0.0136
 4588SOL    HW225743   0.373   3.881   1.008  0.8662 -1.4745 -1.4867
 4589SOL     OW25744   1.484   4.523   4.545 -0.1002  0.0749 -0.2294
 4589SOL    HW125745   1.401   4.476   4.542  0.4968 -0.9971 -0.1843
 4589SOL    HW225746   1.506   4.539   4.454  0.0477 -0.3678 -0.2727
 4590SOL     OW25747   8.651   1.975   2.753  1.0806  0.0963  0.1432
 4590SOL    HW125748   8.720   2.029   2.714  1.7695 -0.3196  0.7572
 4590SOL    HW225749   8.672   1.972   2.846 -1.4118  2.3377  0.8771
 4591SOL     OW25750   0.127   2.496   3.362  0.5301  0.5179  0.1835
 4591SOL    HW125751   0.122   2.401   3.375 -0.6327  0.2378 -1.8069
 4591SOL    HW225752   0.205   2.523   3.410  0.5405 -1.3443  1.3112
 4592SOL     OW25753   9.764   7.645   3.325  0.4239 -0.1017 -0.0473
 4592SOL    HW125754   9.734   7.707   3.392 -0.0074 -0.6095  0.2334
 4592SOL    HW225755   9.703   7.659   3.252  1.0776  0.6654 -0.4651
 4593SOL     OW25756   3.680   0.791   2.408 -0.1581 -0.5715  0.6391
 4593SOL    HW125757   3.610   0.844   2.372  0.6655  0.1806  0.0925
 4593SOL    HW225758   3.644   0.702   2.412 -0.9862 -0.2779 -0.0377
 4594SOL     OW25759   8.368   8.203   1.300  0.7674 -0.5111  0.1514
 4594SOL    HW125760   8.312   8.276   1.329  0.8669 -1.6098  3.5038
 4594SOL    HW225761   8.320   8.125   1.326  1.0828 -1.7109 -2.5827
 4595SOL     OW25762  10.126   7.296   5.648  0.0527  0.6677  0.2994
 4595SOL    HW125763  10.062   7.338   5.590 -1.5159  0.2696  1.6711
 4595SOL    HW225764  10.172   7.234   5.592 -1.8436 -0.1658 -0.4279
 4596SOL     OW25765   0.889   7.218   6.241  1.0717 -0.3261  0.2625
 4596SOL    HW125766   0.804   7.191   6.206  0.4016  2.0845 -0.1250
 4596SOL    HW225767   0.929   7.267   6.170  1.2849  1.5176  1.6017
 4597SOL     OW25768   4.991   6.682   5.967  0.2352  0.4457 -0.1145
 4597SOL    HW125769   5.008   6.776   5.963  1.7561  0.2201  0.5399
 4597SOL    HW225770   4.899   6.673   5.942  0.3108  2.0175 -1.0731
 4598SOL     OW25771   5.428   5.919   5.645  0.2827  0.0914  0.0367
 4598SOL    HW125772   5.436   5.854   5.714 -0.9099  0.6530  0.7396
 4598SOL    HW225773   5.510   5.970   5.650  1.0051 -1.0104 -0.2018
 4599SOL     OW25774   6.490   9.151   2.518  0.2722  0.6769 -0.1503
 4599SOL    HW125775   6.406   9.153   2.472  0.3540  0.0429 -0.3454
 4599SOL    HW225776   6.523   9.062   2.503 -0.4719 -0.1526  2.5360
 4600SOL     OW25777   2.216   9.059   6.005 -0.0994  0.2361 -0.4467
 4600SOL    HW125778   2.121   9.051   6.015 -0.4026  3.4592  0.5393
 4600SOL    HW225779   2.229   9.081   5.913 -0.3130 -0.0368 -0.5439
 4601SOL     OW25780   2.015   0.595   5.699 -0.1820  0.3793 -0.1540
 4601SOL    HW125781   2.013   0.553   5.785  0.8814  1.9354  0.6760
 4601SOL    HW225782   1.945   0.551   5.649  0.2781 -1.7099  0.9238
 4602SOL     OW25783   5.036   9.531   6.999  0.4737 -0.1179  0.4492
 4602SOL    HW125784   5.013   9.546   7.090  0.0421  1.4300  0.1186
 4602SOL    HW225785   4.975   9.585   6.949  0.7866 -0.8279 -0.7576
 4603SOL     OW25786   1.783   2.375   5.361 -0.6795  0.0180 -0.4880
 4603SOL    HW125787   1.760   2.463   5.389  2.3537  0.8507 -0.2729
 4603SOL    HW225788   1.791   2.380   5.266  3.3193  1.2127 -0.2866
 4604SOL     OW25789   8.411   5.218   1.008 -0.2024  0.4228  0.4245
 4604SOL    HW125790   8.427   5.306   0.975  1.1590  0.0976  0.1764
 4604SOL    HW225791   8.370   5.173   0.934 -0.6788  0.7724  0.4713
 4605SOL     OW25792   3.899  10.345   6.882 -0.1473  0.2458  0.1408
 4605SOL    HW125793   3.991  10.373   6.883 -0.3181  1.0177 -1.7412
 4605SOL    HW225794   3.853  10.411   6.933 -0.0627  1.6086 -1.4761
 4606SOL     OW25795   0.052   7.668   0.961 -0.7570 -0.3253  0.4451
 4606SOL    HW125796   0.142   7.637   0.959 -0.8471 -0.5864 -0.7742
 4606SOL    HW225797  -0.001   7.589   0.946 -1.2709 -0.3802  2.3503
 4607SOL     OW25798   8.987   6.151   8.418  0.2344  0.2190 -0.6096
 4607SOL    HW125799   9.027   6.211   8.482  0.6226  0.5160 -1.1245
 4607SOL    HW225800   9.061   6.112   8.373 -0.0398 -0.0339 -0.8386
 4608SOL     OW25801   3.182   8.303  10.317  0.2645  0.1570 -0.6451
 4608SOL    HW125802   3.173   8.273  10.408  0.6475 -0.3547 -0.7714
 4608SOL    HW225803   3.269   8.273  10.291 -0.3823 -0.9165 -1.6417
 4609SOL     OW25804   3.016   9.187   8.307 -0.3246 -0.8132  0.3813
 4609SOL    HW125805   2.926   9.155   8.306 -1.0356  1.0272  1.0575
 4609SOL    HW225806   3.015   9.259   8.371  2.0174 -1.8426  1.7138
 4610SOL     OW25807   1.136   4.552   5.070  0.1779  0.1355 -0.7295
 4610SOL    HW125808   1.067   4.495   5.103 -0.9017  2.3640  1.2329
 4610SOL    HW225809   1.109   4.640   5.098  2.3076  1.4810 -2.5615
 4611SOL     OW25810   9.604   9.894   0.315 -0.0990 -0.0557  0.0553
 4611SOL    HW125811   9.543   9.851   0.255  0.7236 -0.9594 -0.1572
 4611SOL    HW225812   9.581   9.859   0.401 -1.6838  1.6978  0.4221
 4612SOL     OW25813   2.588  10.312  10.196  0.2592 -0.3576  0.1186
 4612SOL    HW125814   2.635  10.228  10.199  1.0710  0.0963  0.6789
 4612SOL    HW225815   2.646  10.372  10.243 -0.3995  0.4751 -0.1292
 4613SOL     OW25816   6.084   9.818   9.065 -0.0390 -0.0488  0.2854
 4613SOL    HW125817   6.131   9.734   9.063 -3.0988 -1.9420 -2.4097
 4613SOL    HW225818   6.111   9.862   8.984 -1.9200 -0.6882 -0.7498
 4614SOL     OW25819   9.429   5.620   7.398 -0.1000 -0.2549 -0.2451
 4614SOL    HW125820   9.378   5.653   7.325  1.3353  0.4602 -0.9735
 4614SOL    HW225821   9.450   5.529   7.375  3.3993  0.9288 -2.6321
 4615SOL     OW25822   3.398   6.092   6.478 -0.3000 -0.5822 -0.2403
 4615SOL    HW125823   3.367   6.021   6.534 -2.4199 -0.7489 -1.4916
 4615SOL    HW225824   3.444   6.151   6.537  0.4072 -2.3509  1.0557
 4616SOL     OW25825   1.597   1.615   9.331 -0.1586 -0.2739  0.1430
 4616SOL    HW125826   1.593   1.525   9.297 -0.7265  0.2797 -1.3737
 4616SOL    HW225827   1.510   1.651   9.311  0.6044  1.1179 -0.8403
 4617SOL     OW25828   5.283   1.650   8.836 -0.8673 -0.1661 -0.3492
 4617SOL    HW125829   5.335   1.708   8.892 -0.5301  0.1606 -1.0008
 4617SOL    HW225830   5.193   1.663   8.866 -0.7560  0.4586 -0.2769
 4618SOL     OW25831   0.746   8.060   5.944 -0.3591 -0.7109  0.4114
 4618SOL    HW125832   0.723   8.144   5.985  0.4462  0.5220 -1.5066
 4618SOL    HW225833   0.828   8.034   5.986  0.6053  0.6728 -0.5219
 4619SOL     OW25834   4.342   5.570   7.576 -0.0470 -0.4626 -0.2880
 4619SOL    HW125835   4.372   5.487   7.541 -1.4503 -0.9125 -0.4663
 4619SOL    HW225836   4.414   5.631   7.559  0.0699 -1.0987 -2.2416
 4620SOL     OW25837   5.070   3.698   5.651  0.2797 -0.0133  0.2380
 4620SOL    HW125838   5.163   3.704   5.672 -0.0240  0.1787  1.6139
 4620SOL    HW225839   5.028   3.763   5.708 -0.9485 -1.7081  1.3816
 4621SOL     OW25840   5.517   0.023   4.430  0.3398 -0.0991  0.1793
 4621SOL    HW125841   5.493   0.007   4.339  0.3084 -0.5391  0.2654
 4621SOL    HW225842   5.475   0.106   4.452 -1.0834 -0.8399  0.3284
 4622SOL     OW25843   1.384   9.358   5.223  0.3045  0.6844 -0.6936
 4622SOL    HW125844   1.400   9.448   5.249 -2.3650  1.1565 -0.3402
 4622SOL    HW225845   1.456   9.308   5.261  0.6979  2.4019  0.9389
 4623SOL     OW25846   4.757   9.432  10.188  0.4752 -0.3328 -0.0104
 4623SOL    HW125847   4.742   9.487  10.265  1.2575 -0.4824  0.2590
 4623SOL    HW225848   4.723   9.483  10.115  0.2352  0.0519  0.3654
 4624SOL     OW25849   8.068   1.200   3.029 -0.1563 -0.0628  0.5100
 4624SOL    HW125850   8.108   1.124   3.071 -0.0872 -0.2925  0.0350
 4624SOL    HW225851   8.037   1.168   2.945 -0.5322  0.3307  0.4929
 4625SOL     OW25852   9.196   6.504   0.152 -0.0684 -0.0442  0.1971
 4625SOL    HW125853   9.109   6.488   0.187 -0.1169  0.0293  0.1116
 4625SOL    HW225854   9.189   6.482   0.059  0.1411 -0.5442  0.2921
 4626SOL     OW25855   6.177   5.888   2.953  0.2506  0.1008  0.1569
 4626SOL    HW125856   6.248   5.862   2.896  0.1719  1.4257 -0.5906
 4626SOL    HW225857   6.212   5.878   3.042  1.1096  0.0605 -0.1856
 4627SOL     OW25858   9.710   7.870   2.712  0.0673  0.3330  0.2571
 4627SOL    HW125859   9.773   7.799   2.728 -0.3712 -0.0778  0.1823
 4627SOL    HW225860   9.764   7.949   2.704  0.4143  0.4703  3.0296
 4628SOL     OW25861   0.285   1.487   4.670 -0.9862 -0.0529  0.3810
 4628SOL    HW125862   0.190   1.479   4.685 -1.4382  2.5630 -0.5532
 4628SOL    HW225863   0.302   1.430   4.595 -1.7213 -0.9053  0.8472
 4629SOL     OW25864   0.161   0.056   3.317  0.1396 -0.2759  0.0568
 4629SOL    HW125865   0.086   0.095   3.361  1.0439  4.0712 -1.7699
 4629SOL    HW225866   0.238   0.090   3.364  1.0081 -0.1966 -1.3561
 4630SOL     OW25867   7.063   5.331   5.421  0.2620  0.1838  0.2363
 4630SOL    HW125868   7.099   5.389   5.354  0.5373  0.6706  0.7907
 4630SOL    HW225869   7.090   5.243   5.395 -0.0790  0.3098 -0.5621
 4631SOL     OW25870   6.232   0.319   6.595 -0.3213  0.2315 -0.5070
 4631SOL    HW125871   6.166   0.293   6.531 -2.7219 -0.1079  1.8981
 4631SOL    HW225872   6.257   0.237   6.638  1.6758  0.3754 -1.2933
 4632SOL     OW25873   6.041   7.675   7.926 -0.0975 -0.4778 -0.3611
 4632SOL    HW125874   5.951   7.682   7.895 -1.0198 -0.0970  2.1125
 4632SOL    HW225875   6.088   7.745   7.882 -1.4048  0.3544 -0.4784
 4633SOL     OW25876   2.749   0.725   5.892 -0.2071 -0.3001  0.1918
 4633SOL    HW125877   2.716   0.815   5.898 -0.0664 -0.2052 -0.4619
 4633SOL    HW225878   2.670   0.671   5.901 -0.1663 -0.1641  1.7869
 4634SOL     OW25879   8.320   9.799   3.251 -0.3930 -0.1181  0.3301
 4634SOL    HW125880   8.225   9.792   3.255 -0.3856 -1.7516 -1.2035
 4634SOL    HW225881   8.339   9.837   3.165  0.3594 -0.5503  0.2932
 4635SOL     OW25882   2.691   0.733   9.425 -0.2027 -0.1286 -0.0854
 4635SOL    HW125883   2.656   0.755   9.512 -1.5756  0.3278 -0.7288
 4635SOL    HW225884   2.739   0.811   9.399 -1.2293  0.4060 -0.4360
 4636SOL     OW25885   8.791   1.884   2.503 -0.5489 -0.2204 -0.3642
 4636SOL    HW125886   8.778   1.912   2.594 -1.1547  0.0143 -0.5216
 4636SOL    HW225887   8.879   1.916   2.481  0.1851 -1.5156  0.5855
 4637SOL     OW25888   5.061   5.043   2.000  0.0692  0.2525 -0.4400
 4637SOL    HW125889   5.097   5.123   1.963  0.8323  1.2874  2.2990
 4637SOL    HW225890   5.001   5.072   2.068 -1.1408 -1.5207 -0.6822
 4638SOL     OW25891   0.199   0.194   9.476 -0.0832 -0.2405  0.0548
 4638SOL    HW125892   0.177   0.213   9.384  0.7050 -0.4501 -0.1860
 4638SOL    HW225893   0.224   0.102   9.476  1.0244  0.0488  0.2582
 4639SOL     OW25894   4.274   6.439   4.217  0.3716 -0.0656 -0.6097
 4639SOL    HW125895   4.329   6.437   4.296 -0.8397 -0.9516  0.2366
 4639SOL    HW225896   4.188   6.408   4.247  0.0363 -0.9567 -2.3931
 4640SOL     OW25897   9.631   9.105   3.578  0.6674  0.2657  0.1026
 4640SOL    HW125898   9.703   9.078   3.636  2.2194  1.5134 -1.1713
 4640SOL    HW225899   9.645   9.198   3.563 -1.0664  0.4774 -0.4391
 4641SOL     OW25900   3.287   3.373   7.850  0.2104  0.1093 -0.0610
 4641SOL    HW125901   3.372   3.344   7.815  1.2069  0.2432  2.1101
 4641SOL    HW225902   3.242   3.292   7.874  0.8596  0.1043  1.2302
 4642SOL     OW25903   6.260   2.432   5.173 -0.7109 -0.2785 -0.2560
 4642SOL    HW125904   6.237   2.520   5.144 -2.1978 -0.5001  0.1671
 4642SOL    HW225905   6.306   2.446   5.256 -0.6336  0.1233 -0.3629
 4643SOL     OW25906   1.816   9.217   5.876 -0.0551 -0.2793 -0.1462
 4643SOL    HW125907   1.896   9.270   5.877  0.5049 -1.1236  0.6793
 4643SOL    HW225908   1.831   9.148   5.940 -0.6655 -1.6305 -1.4064
 4644SOL     OW25909   6.451   7.184   0.729  0.0543  0.4505  0.0254
 4644SOL    HW125910   6.415   7.130   0.800 -2.9038  0.6020 -1.2081
 4644SOL    HW225911   6.523   7.132   0.693 -0.5450 -1.1238  1.0005
 4645SOL     OW25912   3.114   6.366   7.206  0.1847  0.3626  0.3816
 4645SOL    HW125913   3.122   6.408   7.292  0.0293  0.2921  0.4290
 4645SOL    HW225914   3.183   6.300   7.205  0.9543  1.1352  0.0113
 4646SOL     OW25915   3.727   2.679   8.529  0.1622  0.0150  0.3422
 4646SOL    HW125916   3.781   2.606   8.498 -1.7899 -2.1108  1.6341
 4646SOL    HW225917   3.752   2.690   8.621 -0.1778  0.3759  0.3936
 4647SOL     OW25918   0.388   0.096   2.679 -0.0607  0.6470 -0.0687
 4647SOL    HW125919   0.441   0.176   2.672  0.5756  0.1382 -1.1559
 4647SOL    HW225920   0.323   0.105   2.610 -0.3460  0.4781  0.1781
 4648SOL     OW25921   1.170   6.621   5.190  0.3282 -0.1557 -0.0289
 4648SOL    HW125922   1.102   6.603   5.125 -0.9135  0.5558  1.0254
 4648SOL    HW225923   1.208   6.704   5.164 -0.5946  0.4389  0.4716
 4649SOL     OW25924   5.010   5.592   7.406 -0.1295 -0.0498  0.2043
 4649SOL    HW125925   5.020   5.497   7.401 -0.3495 -0.1104  0.9069
 4649SOL    HW225926   5.100   5.625   7.396 -0.0825 -0.3181 -0.2857
 4650SOL     OW25927   7.212   5.820   0.404  0.5618  0.1537 -0.1297
 4650SOL    HW125928   7.160   5.896   0.376  1.8623  1.8039  1.6760
 4650SOL    HW225929   7.162   5.744   0.374 -0.2640  1.6801 -2.9656
 4651SOL     OW25930   9.185   2.217   9.482  0.0365  0.3550  0.4004
 4651SOL    HW125931   9.238   2.137   9.485  3.0919  2.2041 -0.0029
 4651SOL    HW225932   9.188   2.245   9.391 -1.0595  0.9228  0.5174
 4652SOL     OW25933   1.480   3.665   5.127 -0.6222 -0.1911 -0.0923
 4652SOL    HW125934   1.553   3.693   5.182  0.0737 -0.8270 -0.6831
 4652SOL    HW225935   1.439   3.747   5.099 -0.8012  0.1428  1.1184
 4653SOL     OW25936   1.013   8.804  10.125  0.5318 -0.2448 -0.3488
 4653SOL    HW125937   0.950   8.794  10.197 -0.5123 -0.1263 -1.2208
 4653SOL    HW225938   1.083   8.743  10.147  0.0882 -0.4365  0.6156
 4654SOL     OW25939   0.734   7.892   6.263  0.1137 -0.2688  0.0812
 4654SOL    HW125940   0.807   7.936   6.220  0.0547 -0.1238  0.1296
 4654SOL    HW225941   0.660   7.953   6.255 -0.3845 -0.9879 -1.1989
 4655SOL     OW25942   2.161   7.926   3.038 -0.7607  0.2795  0.2092
 4655SOL    HW125943   2.076   7.923   3.084 -0.3191  0.7564  1.0834
 4655SOL    HW225944   2.139   7.956   2.950 -1.4287  1.1308  0.6418
 4656SOL     OW25945   8.010   6.403  10.138 -0.4729  0.0687 -0.0368
 4656SOL    HW125946   8.028   6.491  10.105 -2.7452  1.3526  1.8253
 4656SOL    HW225947   8.042   6.344  10.069  0.9280  2.3201 -1.4253
 4657SOL     OW25948   0.823   8.447   2.808 -0.0923  0.1371 -0.0691
 4657SOL    HW125949   0.818   8.420   2.716 -0.6403 -1.0711  0.2969
 4657SOL    HW225950   0.884   8.521   2.808 -0.0324  0.1070 -1.3925
 4658SOL     OW25951   9.520   6.355   7.395  0.1624 -0.2742 -0.0433
 4658SOL    HW125952   9.601   6.394   7.427  0.2419 -0.4165 -0.0690
 4658SOL    HW225953   9.466   6.345   7.474  0.6305 -1.2793  0.1704
 4659SOL     OW25954   9.884   6.565   6.452  0.2513 -0.1029 -0.0865
 4659SOL    HW125955   9.879   6.475   6.485  1.0821 -0.1310 -0.0107
 4659SOL    HW225956   9.806   6.607   6.486  1.4949  0.1201  2.7268
 4660SOL     OW25957   4.068   8.276   3.318  0.2748  0.7290 -0.0284
 4660SOL    HW125958   4.120   8.249   3.394  0.5652  0.7937 -0.2026
 4660SOL    HW225959   4.127   8.332   3.267  0.3243  0.0928 -0.6811
 4661SOL     OW25960   1.504   2.282   3.056  0.1146 -0.1599 -0.9300
 4661SOL    HW125961   1.436   2.347   3.038  1.7597  1.6515 -0.9914
 4661SOL    HW225962   1.488   2.255   3.146 -0.9794 -0.1601 -1.1114
 4662SOL     OW25963   9.675   0.665   8.021 -0.4054  0.1145  0.1057
 4662SOL    HW125964   9.698   0.757   8.009  0.9582 -0.1394  0.5926
 4662SOL    HW225965   9.584   0.658   7.991  0.0971  1.2100 -1.7743
 4663SOL     OW25966   9.008   1.837   3.838  0.0251  0.2236  0.4862
 4663SOL    HW125967   8.940   1.870   3.897 -0.5707 -0.1610  0.0298
 4663SOL    HW225968   9.035   1.754   3.876  0.3675  0.4537  0.7567
 4664SOL     OW25969   8.689   3.068   5.126 -0.2941 -0.1572  0.5154
 4664SOL    HW125970   8.766   3.079   5.070  0.0583 -0.4581  0.9399
 4664SOL    HW225971   8.706   3.124   5.201 -0.6993  0.1256  0.3975
 4665SOL     OW25972   6.339   9.509   1.068  0.4002 -0.0519  0.1995
 4665SOL    HW125973   6.357   9.425   1.112 -0.1644 -0.0655  0.4118
 4665SOL    HW225974   6.252   9.499   1.031  1.9044 -1.1054 -3.4962
 4666SOL     OW25975   7.258   4.585   5.807 -0.4767 -0.0278  0.1733
 4666SOL    HW125976   7.312   4.635   5.745  0.4074  0.0907  1.0177
 4666SOL    HW225977   7.273   4.627   5.892  0.4198 -1.7877  0.9382
 4667SOL     OW25978   1.492   3.112   2.136  0.0329  0.3023  0.2323
 4667SOL    HW125979   1.573   3.081   2.096  0.3861  0.8462  0.5147
 4667SOL    HW225980   1.520   3.159   2.214 -0.5465  0.6636  0.2315
 4668SOL     OW25981   5.758   0.149   1.288 -0.3438 -0.0222 -0.9224
 4668SOL    HW125982   5.805   0.076   1.326 -0.7991  0.5902  0.9174
 4668SOL    HW225983   5.815   0.181   1.218  1.6107  0.2086  0.7015
 4669SOL     OW25984   7.062   2.722   7.680  0.3321  0.2727 -0.1655
 4669SOL    HW125985   7.124   2.669   7.630  0.5387 -0.4050  0.7711
 4669SOL    HW225986   7.026   2.784   7.617  2.8623  1.5314 -0.5330
 4670SOL     OW25987  10.028  10.366   4.626 -0.4314 -0.3211 -0.0805
 4670SOL    HW125988   9.985  10.323   4.701 -1.1005  0.5908  0.0722
 4670SOL    HW225989  10.004  10.458   4.635  0.9636  0.0883 -0.4230
 4671SOL     OW25990   1.901   2.092   4.420 -0.4816  0.0031 -0.1608
 4671SOL    HW125991   1.881   2.186   4.423 -2.9590 -0.4616 -0.1335
 4671SOL    HW225992   1.912   2.074   4.327 -0.4121  0.2493 -0.2021
 4672SOL     OW25993  10.330   8.710   9.394  0.7821 -0.4090  0.2250
 4672SOL    HW125994  10.389   8.756   9.336  1.7499 -0.6643  0.9683
 4672SOL    HW225995  10.331   8.619   9.362 -0.4147 -0.1243 -0.6848
 4673SOL     OW25996   6.825   9.064   8.974  0.1818  0.2792 -0.3180
 4673SOL    HW125997   6.796   9.143   8.928 -0.4550  1.2759  1.6821
 4673SOL    HW225998   6.744   9.018   8.996  0.4720 -0.2050 -0.2440
 4674SOL     OW25999   7.387   0.187   2.350 -0.5645  0.3690 -0.3378
 4674SOL    HW126000   7.392   0.128   2.274  0.4980 -0.1539  0.1212
 4674SOL    HW226001   7.306   0.160   2.394 -1.3010  0.8045 -1.3596
 4675SOL     OW26002   2.853   5.775   2.075  0.5532  0.2005 -0.3628
 4675SOL    HW126003   2.840   5.693   2.121  1.8342 -1.0282 -2.0745
 4675SOL    HW226004   2.946   5.775   2.051  0.6111  2.1979 -0.3331
 4676SOL     OW26005   0.991   6.863   6.974 -0.1852  0.0615 -0.1803
 4676SOL    HW126006   0.962   6.826   7.058  0.0703  1.7948  0.7281
 4676SOL    HW226007   0.934   6.939   6.961 -0.6456 -0.5529 -1.9274
 4677SOL     OW26008   6.258   2.876   4.164 -0.3941  0.3587  0.4475
 4677SOL    HW126009   6.208   2.956   4.147  1.2633  1.3014 -0.1747
 4677SOL    HW226010   6.270   2.875   4.259 -0.6126  0.7232  0.4804
 4678SOL     OW26011   2.942   7.247   9.781  0.6466 -0.1663  0.6053
 4678SOL    HW126012   2.864   7.232   9.728  2.7879  1.6373 -3.5570
 4678SOL    HW226013   2.932   7.337   9.813  0.3210 -0.5008  1.4560
 4679SOL     OW26014   2.058   7.003   0.015  0.0447  0.0788 -0.1469
 4679SOL    HW126015   2.084   7.094   0.025 -0.1991  0.2881 -1.2072
 4679SOL    HW226016   2.056   6.989  -0.080  0.0464 -1.0203 -0.0039
 4680SOL     OW26017   1.537   7.096   5.369 -0.0466 -0.5695  0.6061
 4680SOL    HW126018   1.483   7.161   5.414  0.6192 -0.8905  1.9101
 4680SOL    HW226019   1.550   7.027   5.433  1.4408 -0.7658  0.1319
 4681SOL     OW26020   3.354   8.503   2.338 -0.3345  0.4430  0.3499
 4681SOL    HW126021   3.418   8.565   2.372 -1.8577  0.6980  3.1254
 4681SOL    HW226022   3.347   8.523   2.245  0.9071  2.8724  0.7048
 4682SOL     OW26023   6.174   1.564   0.729 -0.3648  0.4905  0.2933
 4682SOL    HW126024   6.143   1.509   0.657  0.9639  0.5016 -0.3135
 4682SOL    HW226025   6.172   1.653   0.694 -1.6051  0.7551  0.9592
 4683SOL     OW26026   4.140   0.987   0.368 -0.3593 -0.1288  0.0762
 4683SOL    HW126027   4.184   0.995   0.453  0.8263  2.2582 -0.6877
 4683SOL    HW226028   4.092   0.904   0.374  0.1252 -0.3090  2.8511
 4684SOL     OW26029   9.346   5.142   7.910  0.4970 -0.1101 -0.0957
 4684SOL    HW126030   9.418   5.152   7.972  1.3762 -1.9088 -0.7633
 4684SOL    HW226031   9.389   5.140   7.824 -0.4869  0.0727 -0.6116
 4685SOL     OW26032   9.733   8.854   0.961  0.2661 -0.2176  0.4608
 4685SOL    HW126033   9.790   8.907   0.906  0.8640  1.0193  2.1724
 4685SOL    HW226034   9.778   8.769   0.967  0.4666 -0.1874 -0.4743
 4686SOL     OW26035   6.831   5.188   4.064 -0.1395  0.2598  0.6520
 4686SOL    HW126036   6.825   5.110   4.118  0.0297 -0.5424 -0.4662
 4686SOL    HW226037   6.759   5.180   4.001  1.0611  0.0122 -0.7278
 4687SOL     OW26038  10.226   4.678   5.713 -0.2762 -0.1605  0.0015
 4687SOL    HW126039  10.297   4.711   5.768 -0.0304 -0.2554 -0.2567
 4687SOL    HW226040  10.238   4.723   5.629  1.2040 -2.2556 -1.0004
 4688SOL     OW26041   0.607   7.118   5.623 -0.4072  0.3204 -0.1234
 4688SOL    HW126042   0.577   7.143   5.710 -2.2423 -3.8514  0.6643
 4688SOL    HW226043   0.683   7.062   5.638 -0.4639 -0.0858 -1.2407
 4689SOL     OW26044   8.449   6.404   5.258 -0.1582  0.2273 -0.1361
 4689SOL    HW126045   8.372   6.384   5.205 -0.9186 -0.9113  1.2998
 4689SOL    HW226046   8.422   6.382   5.347  1.1227  1.8887  0.7067
 4690SOL     OW26047   9.936   7.157   0.575 -0.1899 -0.0582 -0.4380
 4690SOL    HW126048   9.867   7.097   0.547  0.7024 -0.0831 -2.8572
 4690SOL    HW226049  10.015   7.102   0.579  0.1502  0.4467 -0.0957
 4691SOL     OW26050   8.768   7.509   4.621  0.1811  0.2158  0.1302
 4691SOL    HW126051   8.856   7.491   4.588  0.1629 -0.2581  0.3442
 4691SOL    HW226052   8.736   7.425   4.652 -0.4599  0.3292 -0.2054
 4692SOL     OW26053   3.099   1.915   6.561 -0.1912 -0.2842  0.2393
 4692SOL    HW126054   3.078   1.916   6.654 -0.4052 -0.1844  0.1923
 4692SOL    HW226055   3.014   1.906   6.518 -0.2541  1.1448  0.0044
 4693SOL     OW26056   8.587   6.710   2.747  0.1278  0.1245  0.4669
 4693SOL    HW126057   8.654   6.712   2.815  0.8573  0.3433 -0.2403
 4693SOL    HW226058   8.634   6.685   2.668 -0.5950  0.4448 -0.0789
 4694SOL     OW26059   1.410   1.055   4.347  0.3533  0.2482 -0.4416
 4694SOL    HW126060   1.340   1.021   4.291 -1.0799 -0.2505  1.5578
 4694SOL    HW226061   1.481   1.076   4.286 -1.1487 -0.1593 -2.4414
 4695SOL     OW26062   8.887   3.324   0.766  0.5978  0.5730 -0.1399
 4695SOL    HW126063   8.886   3.261   0.694 -0.5726  0.3835  0.0203
 4695SOL    HW226064   8.808   3.377   0.753 -0.2060 -0.1233  1.5450
 4696SOL     OW26065   8.125   9.326   8.432 -0.3704 -0.1814 -0.3854
 4696SOL    HW126066   8.183   9.327   8.356  1.4693 -0.9020  0.9355
 4696SOL    HW226067   8.177   9.365   8.502 -0.8648 -2.3491  1.2723
 4697SOL     OW26068   7.026   7.746   3.593 -0.5870  0.1580 -0.5945
 4697SOL    HW126069   6.948   7.798   3.615 -1.3061 -1.0002 -0.3205
 4697SOL    HW226070   7.098   7.795   3.631 -1.5787 -0.8320  3.0301
 4698SOL     OW26071   4.067   4.537   0.968 -0.8837  0.4162  0.0106
 4698SOL    HW126072   4.048   4.508   1.057 -0.0731  2.3275  0.8447
 4698SOL    HW226073   4.146   4.590   0.976 -1.1196  1.0997 -1.7544
 4699SOL     OW26074   8.987   7.451   5.115 -0.0649 -0.0219  0.1179
 4699SOL    HW126075   8.983   7.539   5.076  2.2070 -0.3596 -0.9987
 4699SOL    HW226076   8.995   7.467   5.209 -0.9380  0.9016  0.0615
 4700SOL     OW26077   2.033   7.512   8.379 -0.1196 -0.2541  0.2138
 4700SOL    HW126078   2.041   7.478   8.290 -0.7463 -0.6124  0.2924
 4700SOL    HW226079   2.064   7.602   8.373 -0.0882 -0.2999 -0.3505
 4701SOL     OW26080   9.487   6.335   1.195  0.0225 -0.0002 -0.2950
 4701SOL    HW126081   9.578   6.305   1.199 -0.4345 -1.3165  3.0475
 4701SOL    HW226082   9.463   6.325   1.103  3.2812  0.5915 -1.3402
 4702SOL     OW26083   8.086   0.184   0.097 -0.0887  0.5740 -0.2097
 4702SOL    HW126084   8.068   0.245   0.169  0.6156  1.4754 -0.7886
 4702SOL    HW226085   8.024   0.208   0.029 -0.1857  0.2689 -0.2310
 4703SOL     OW26086   3.617   1.650   9.690  0.2805 -0.2453 -0.0843
 4703SOL    HW126087   3.596   1.589   9.619 -2.9282  0.8921 -0.2868
 4703SOL    HW226088   3.578   1.610   9.768  1.3546 -0.1614  0.5148
 4704SOL     OW26089   0.448   8.851   5.055 -0.0710 -0.1679  0.3250
 4704SOL    HW126090   0.472   8.761   5.075 -0.2498 -0.3451 -0.2300
 4704SOL    HW226091   0.529   8.901   5.070 -0.4327 -0.1249  2.3627
 4705SOL     OW26092   1.196  10.297   5.485 -0.8280  0.2406  0.2811
 4705SOL    HW126093   1.112  10.326   5.520 -0.0245  0.2944  2.3335
 4705SOL    HW226094   1.232  10.239   5.553  0.5691 -0.1764 -0.7609
 4706SOL     OW26095   3.731   4.855   6.227 -0.5839 -0.0081  0.2147
 4706SOL    HW126096   3.735   4.871   6.321 -0.7059  0.7930  0.0887
 4706SOL    HW226097   3.755   4.938   6.187 -3.8948  0.7124 -0.5100
 4707SOL     OW26098   0.566   9.385   3.439 -0.0929  0.2393  0.2236
 4707SOL    HW126099   0.554   9.297   3.477 -3.3079 -0.0378 -1.0524
 4707SOL    HW226100   0.605   9.369   3.354 -0.7650  0.0101 -0.0477
 4708SOL     OW26101   2.405   7.797   0.972  0.1547  0.4402  0.7511
 4708SOL    HW126102   2.405   7.701   0.978  1.6995  0.2668 -1.1447
 4708SOL    HW226103   2.487   7.823   1.013  0.1472  0.8949  0.4761
 4709SOL     OW26104   7.529   0.255   4.203 -0.0633 -0.1212 -0.1993
 4709SOL    HW126105   7.523   0.188   4.134 -0.4266  1.2880 -1.6033
 4709SOL    HW226106   7.525   0.338   4.156  0.5103  0.9126  1.4825
 4710SOL     OW26107   4.135   1.877   8.513  0.2687 -0.3633  0.2486
 4710SOL    HW126108   4.162   1.830   8.592 -0.1057  0.0024  0.5976
 4710SOL    HW226109   4.055   1.833   8.485  0.4606 -0.5618  0.0089
 4711SOL     OW26110   1.562   9.888   2.870 -0.2673 -0.6409  0.5206
 4711SOL    HW126111   1.532   9.797   2.870  1.6909 -1.3475 -0.8572
 4711SOL    HW226112   1.657   9.882   2.878 -0.1258  1.3316  0.8945
 4712SOL     OW26113   6.361   0.411   1.671  0.0050 -0.3709  0.0849
 4712SOL    HW126114   6.384   0.322   1.696  0.3281 -0.1380  0.6621
 4712SOL    HW226115   6.390   0.465   1.746 -3.2162 -0.1141  1.3138
 4713SOL     OW26116   4.723   8.013   0.302  0.2110  0.0815  0.6708
 4713SOL    HW126117   4.758   8.068   0.372  1.6415 -0.7308  0.6422
 4713SOL    HW226118   4.784   8.026   0.229 -1.2382  0.9053 -0.4565
 4714SOL     OW26119   0.057   3.856   6.776  0.0269 -0.0373 -0.5496
 4714SOL    HW126120  -0.029   3.887   6.748 -0.6471 -1.3271  0.0341
 4714SOL    HW226121   0.076   3.783   6.717  0.2524 -0.4226 -0.0018
 4715SOL     OW26122   4.384   2.272   8.570  0.4571 -0.1447 -0.2836
 4715SOL    HW126123   4.384   2.243   8.661  1.1183  0.8098  0.0291
 4715SOL    HW226124   4.328   2.350   8.569  1.0105  0.2525 -0.5599
 4716SOL     OW26125   5.590   4.625   3.741 -0.7618 -0.2964 -0.0925
 4716SOL    HW126126   5.685   4.632   3.755 -0.7309 -1.2690  0.3220
 4716SOL    HW226127   5.580   4.620   3.646 -0.3929 -0.1782 -0.1413
 4717SOL     OW26128   3.476   1.293   7.648  0.4177  0.3363  0.1927
 4717SOL    HW126129   3.382   1.279   7.659  0.5353 -2.1220 -1.1411
 4717SOL    HW226130   3.515   1.259   7.729  0.1965  0.6436  0.4274
 4718SOL     OW26131   5.809  10.318   9.595  0.3260  0.2265 -0.5207
 4718SOL    HW126132   5.720  10.322   9.560 -0.0647  0.0596  0.4116
 4718SOL    HW226133   5.847  10.240   9.555  0.2433  0.5831 -1.3241
 4719SOL     OW26134   3.153   3.449   7.623 -0.4915 -0.1028  0.0542
 4719SOL    HW126135   3.203   3.382   7.576  0.1022 -0.4570  1.1624
 4719SOL    HW226136   3.180   3.440   7.714  0.2473  2.1989  0.1215
 4720SOL     OW26137   3.357   2.161   0.852  0.3452  0.3104 -0.0280
 4720SOL    HW126138   3.342   2.205   0.935 -0.0782 -0.2701  0.2109
 4720SOL    HW226139   3.414   2.087   0.873  1.2473  0.8574 -0.4652
 4721SOL     OW26140   0.674   3.740   5.921  0.1751 -0.3338 -0.2631
 4721SOL    HW126141   0.744   3.757   5.858  0.3558 -1.3955 -0.3630
 4721SOL    HW226142   0.717   3.695   5.993 -0.1653  0.2263  0.2996
 4722SOL     OW26143  10.069   6.187   6.152 -0.6263  0.2378  0.3364
 4722SOL    HW126144  10.097   6.212   6.240  1.5032  0.1019 -0.2480
 4722SOL    HW226145  10.010   6.257   6.125  1.2491  2.0267  0.6575
 4723SOL     OW26146   3.453   6.847   8.705  0.0902  0.4458  0.1394
 4723SOL    HW126147   3.377   6.842   8.647 -0.3002  0.9117  0.5959
 4723SOL    HW226148   3.487   6.758   8.708  0.4989  0.5225 -1.2981
 4724SOL     OW26149   2.062   3.732   0.812  0.0086  0.7433  0.0152
 4724SOL    HW126150   2.043   3.757   0.721  1.1662 -0.9622 -0.7414
 4724SOL    HW226151   2.153   3.757   0.825  0.2288 -0.1489  0.2761
 4725SOL     OW26152   0.235   8.486   9.602  0.3004 -0.4451  0.0842
 4725SOL    HW126153   0.209   8.578   9.605  2.0910  0.1731 -1.1313
 4725SOL    HW226154   0.165   8.439   9.647 -0.9901  1.4339  0.1525
 4726SOL     OW26155   0.228   7.540   8.695  0.6626  0.1554 -0.0783
 4726SOL    HW126156   0.155   7.545   8.757  1.4321  0.7301  0.8021
 4726SOL    HW226157   0.196   7.585   8.617  0.4697  1.4125  0.7056
 4727SOL     OW26158   9.314   8.617   5.324 -0.8393 -0.3304  0.4406
 4727SOL    HW126159   9.232   8.572   5.342 -0.8690  0.4201  2.3843
 4727SOL    HW226160   9.288   8.703   5.290 -0.8118 -0.7304 -0.6299
 4728SOL     OW26161   7.045   7.327   5.812  0.3459  0.4162  0.4144
 4728SOL    HW126162   7.111   7.365   5.870  0.3747 -0.2091  0.8048
 4728SOL    HW226163   7.088   7.251   5.773 -0.5926 -0.8902  1.8189
 4729SOL     OW26164   3.345   7.957   0.361 -0.4818 -0.4069  0.7461
 4729SOL    HW126165   3.386   7.953   0.447 -0.6292 -0.3825  0.8180
 4729SOL    HW226166   3.406   8.009   0.308  0.3393 -1.6506  0.4222
 4730SOL     OW26167   4.023   7.819   9.784 -0.0973  0.0229  0.2915
 4730SOL    HW126168   4.094   7.775   9.830  0.3257 -0.1426 -0.4907
 4730SOL    HW226169   4.013   7.769   9.702 -0.2489  0.8115 -0.1819
 4731SOL     OW26170   0.575   7.713   5.905 -0.5636 -0.0726  0.1437
 4731SOL    HW126171   0.482   7.729   5.889 -0.1595  1.4809 -0.8806
 4731SOL    HW226172   0.582   7.701   5.999 -1.5788  1.6076  0.4765
 4732SOL     OW26173   9.178   3.463   8.647 -0.3049  0.3001  0.1123
 4732SOL    HW126174   9.243   3.476   8.716 -0.1772 -0.5002  0.1508
 4732SOL    HW226175   9.187   3.540   8.590  0.6260  0.2380  0.1602
 4733SOL     OW26176   5.181   5.590   2.134 -0.1870 -0.3089  0.2816
 4733SOL    HW126177   5.132   5.628   2.207 -2.5966 -1.9982 -0.3320
 4733SOL    HW226178   5.120   5.530   2.092  1.7437 -0.8928 -1.9642
 4734SOL     OW26179   1.761   4.183   4.958 -0.2958  0.2914  0.3076
 4734SOL    HW126180   1.678   4.211   4.996 -1.2581 -1.1720 -0.5768
 4734SOL    HW226181   1.758   4.087   4.962  1.2332  0.2074  0.0173
 4735SOL     OW26182   5.857   9.447   6.721 -0.0052  0.3662  0.1384
 4735SOL    HW126183   5.812   9.363   6.722  1.7597 -0.6313 -0.5988
 4735SOL    HW226184   5.874   9.466   6.814  0.8581 -0.8266  0.2450
 4736SOL     OW26185   8.547   4.727   6.789 -0.0868 -0.3980 -0.5754
 4736SOL    HW126186   8.605   4.678   6.731 -1.1515 -0.8471 -1.2887
 4736SOL    HW226187   8.496   4.783   6.730 -0.9484 -0.6150 -0.0522
 4737SOL     OW26188   1.028   9.757   5.754 -0.1567  0.2090  0.0621
 4737SOL    HW126189   0.979   9.687   5.797 -1.2227  0.0308 -1.3632
 4737SOL    HW226190   1.060   9.717   5.673 -0.7395  1.3449 -0.7521
 4738SOL     OW26191   0.739   4.530  10.391 -0.0343 -0.0979  0.0363
 4738SOL    HW126192   0.714   4.439  10.404  0.4204 -0.0371  1.5008
 4738SOL    HW226193   0.667   4.581  10.429  1.0113  0.0935  1.8965
 4739SOL     OW26194  10.049   3.657   5.102  0.0533  0.2416 -0.4222
 4739SOL    HW126195  10.046   3.743   5.060 -0.1542 -0.0969 -1.1237
 4739SOL    HW226196   9.968   3.652   5.153 -0.7097 -0.1342 -1.6191
 4740SOL     OW26197   1.575   5.673   0.197 -0.7310 -0.6482  0.4370
 4740SOL    HW126198   1.486   5.652   0.169 -0.3741  0.0090 -1.3820
 4740SOL    HW226199   1.611   5.590   0.228 -1.5219 -1.2367 -0.1650
 4741SOL     OW26200   0.224   5.091   6.696  0.0399 -0.3793  0.2561
 4741SOL    HW126201   0.139   5.111   6.735 -0.5119 -1.9817 -0.0417
 4741SOL    HW226202   0.230   5.150   6.621 -0.5824  0.1129  0.5820
 4742SOL     OW26203   4.916   5.084   1.353 -0.0011  0.5136 -0.5950
 4742SOL    HW126204   4.895   5.037   1.272  0.7035  2.2577 -1.8543
 4742SOL    HW226205   5.005   5.056   1.374 -0.4780 -0.5603  0.0632
 4743SOL     OW26206   2.831   2.400   0.644 -0.1047  0.1236  0.0544
 4743SOL    HW126207   2.769   2.457   0.599  0.0131  0.0460 -0.2045
 4743SOL    HW226208   2.843   2.442   0.730  1.3176  1.4584 -0.7511
 4744SOL     OW26209   3.062  10.021   2.990 -0.6573 -0.3266 -0.4865
 4744SOL    HW126210   3.064  10.021   2.894 -1.7372 -0.6883 -0.5270
 4744SOL    HW226211   2.980   9.977   3.012  0.3871 -1.8388  0.6403
 4745SOL     OW26212   3.264   2.103   5.605  0.2708 -0.3312  0.1323
 4745SOL    HW126213   3.178   2.071   5.579 -0.0049  0.1644  0.4141
 4745SOL    HW226214   3.250   2.141   5.692  0.7510 -0.1472  0.1337
 4746SOL     OW26215   8.733   0.238   1.973  0.1521 -0.1035 -0.1481
 4746SOL    HW126216   8.667   0.281   1.919 -0.9239 -0.9623  0.4229
 4746SOL    HW226217   8.689   0.225   2.058  0.8855 -1.1313  0.0910
 4747SOL     OW26218   3.956   8.072   0.823 -0.6646 -0.4251 -0.2599
 4747SOL    HW126219   3.925   8.143   0.766  0.2136 -0.1084 -0.3622
 4747SOL    HW226220   3.883   8.010   0.825 -0.7878 -0.3657 -1.6002
 4748SOL     OW26221   7.385   4.262   9.489  0.1125  0.2029 -0.5478
 4748SOL    HW126222   7.292   4.269   9.466  0.1770 -0.7005 -1.1678
 4748SOL    HW226223   7.429   4.325   9.433 -0.0847  0.3302 -0.5599
 4749SOL     OW26224   7.537   5.866   9.358 -0.3794 -0.5316 -0.4239
 4749SOL    HW126225   7.493   5.918   9.291 -0.8744 -1.5863 -0.9531
 4749SOL    HW226226   7.466   5.822   9.405 -0.0903  0.8375  1.3809
 4750SOL     OW26227   2.651   7.102   8.713 -0.1377  0.3765 -0.1202
 4750SOL    HW126228   2.728   7.138   8.757  0.4150 -1.0762  0.1871
 4750SOL    HW226229   2.655   7.008   8.733 -1.5935  0.1637 -0.7129
 4751SOL     OW26230   9.390   8.892   9.446  0.0396 -0.5563  0.0888
 4751SOL    HW126231   9.446   8.935   9.382 -0.4848 -1.1574 -0.8009
 4751SOL    HW226232   9.412   8.799   9.439  0.6340 -0.5538  1.4590
 4752SOL     OW26233   0.716  10.212   3.638  0.4014 -0.0335 -0.0837
 4752SOL    HW126234   0.751  10.171   3.559  0.1875 -0.2927 -0.0461
 4752SOL    HW226235   0.790  10.216   3.698  1.0537  1.8735 -0.9510
 4753SOL     OW26236   3.641   6.776   8.378 -0.2816 -0.8897 -0.0353
 4753SOL    HW126237   3.585   6.814   8.310  0.9849  0.1739 -0.5160
 4753SOL    HW226238   3.637   6.682   8.362 -2.1878 -0.8692  0.1577
 4754SOL     OW26239   7.503   4.192   9.001  0.0839 -0.0853 -0.0543
 4754SOL    HW126240   7.444   4.169   9.072 -0.6056  3.3376  0.6301
 4754SOL    HW226241   7.484   4.128   8.932 -0.3216 -2.5286  2.1816
 4755SOL     OW26242   6.458   2.344   8.196  0.4049 -0.5903 -0.5531
 4755SOL    HW126243   6.507   2.263   8.177  0.3274 -0.4654 -1.3036
 4755SOL    HW226244   6.526   2.407   8.221  0.4645 -0.8799  0.0514
 4756SOL     OW26245   8.377   6.849   5.319 -0.2837 -0.9787 -0.2964
 4756SOL    HW126246   8.465   6.828   5.285  0.1226 -2.4059  1.5067
 4756SOL    HW226247   8.393   6.913   5.388 -0.7913 -0.4468 -0.6638
 4757SOL     OW26248   1.192   1.060   9.958 -0.1487 -0.0447 -0.0971
 4757SOL    HW126249   1.230   1.134   9.912 -2.3132  0.9551 -0.3772
 4757SOL    HW226250   1.175   1.092  10.046  0.3052 -0.7148  0.2466
 4758SOL     OW26251   4.246  10.185   9.654  0.0916 -0.4356 -0.2344
 4758SOL    HW126252   4.188  10.115   9.685 -1.7530 -0.0305 -2.4604
 4758SOL    HW226253   4.331  10.142   9.641  0.2610 -1.1662  2.6502
 4759SOL     OW26254   1.432   3.232   5.468  0.1803 -0.7671 -0.2958
 4759SOL    HW126255   1.464   3.285   5.542  0.9328 -0.9168 -0.4995
 4759SOL    HW226256   1.457   3.283   5.390 -0.1351 -0.8647 -0.4621
 4760SOL     OW26257   0.009  10.116  10.247  0.4066 -0.6528 -0.0166
 4760SOL    HW126258  -0.013  10.134  10.155 -0.8421 -1.3635  0.1125
 4760SOL    HW226259   0.024  10.021  10.250  1.3753 -0.5000  0.3488
 4761SOL     OW26260   3.764   0.417   5.824 -0.5880 -0.1680 -0.1490
 4761SOL    HW126261   3.727   0.329   5.824  1.2754 -1.0266 -1.2570
 4761SOL    HW226262   3.796   0.430   5.913 -2.4220  0.1366  0.5030
 4762SOL     OW26263   0.309   2.296   4.601  0.1425  0.1425 -0.0504
 4762SOL    HW126264   0.385   2.344   4.634  0.0786  1.8845 -2.2188
 4762SOL    HW226265   0.346   2.220   4.556  0.4069 -0.3657  0.9803
 4763SOL     OW26266   9.815   6.900   1.411  0.0786 -0.3349  0.2031
 4763SOL    HW126267   9.800   6.875   1.502 -0.2881 -0.7501  0.0325
 4763SOL    HW226268   9.895   6.852   1.386  1.0269  0.9151  0.7380
 4764SOL     OW26269   9.556   8.944   1.174  0.1427  0.4393  0.1656
 4764SOL    HW126270   9.471   8.901   1.188 -0.4236  1.7791  1.0716
 4764SOL    HW226271   9.593   8.899   1.099 -0.8180 -1.0072  0.5178
 4765SOL     OW26272   8.291   9.852   8.830 -0.1082 -0.3390  0.1258
 4765SOL    HW126273   8.262   9.928   8.880 -0.2680 -0.9317  0.9584
 4765SOL    HW226274   8.219   9.834   8.770  0.2987  0.6900 -0.7092
 4766SOL     OW26275   1.559   3.528   6.073  0.1332 -0.0496 -0.0882
 4766SOL    HW126276   1.577   3.622   6.074 -1.7827  0.3731 -1.1430
 4766SOL    HW226277   1.642   3.489   6.046  1.1547  1.2495  0.9762
 4767SOL     OW26278   4.489   1.014   9.276  0.3662  0.1498  0.1653
 4767SOL    HW126279   4.487   1.103   9.240  0.4896  0.2349  0.3665
 4767SOL    HW226280   4.501   0.958   9.200 -1.5884  0.1566 -0.1829
 4768SOL     OW26281   0.882   6.788   9.344 -0.0982 -0.1441 -0.1527
 4768SOL    HW126282   0.837   6.749   9.418  0.6878  1.9114  1.5030
 4768SOL    HW226283   0.966   6.742   9.340 -0.5210 -0.9164 -0.4145
 4769SOL     OW26284   8.027   8.807   6.584 -0.5999  0.0145 -0.2402
 4769SOL    HW126285   7.952   8.838   6.533 -0.9160  0.4943  0.5092
 4769SOL    HW226286   8.094   8.874   6.573 -0.5556 -0.0344 -0.2750
 4770SOL     OW26287   8.628   1.111   1.646 -0.1105 -0.3265 -0.7330
 4770SOL    HW126288   8.608   1.046   1.578 -2.0799  1.1413 -1.6573
 4770SOL    HW226289   8.649   1.059   1.723  0.0696 -2.0558 -1.8998
 4771SOL     OW26290   1.745   9.765   7.591 -0.1532  1.0180 -0.0688
 4771SOL    HW126291   1.736   9.712   7.512  0.1191  1.0428 -0.1181
 4771SOL    HW226292   1.802   9.713   7.648 -1.1935  0.5171  0.5396
 4772SOL     OW26293   7.690   7.102   9.149 -0.1215 -0.3072 -0.2383
 4772SOL    HW126294   7.770   7.150   9.127 -0.8597  1.5033  0.8288
 4772SOL    HW226295   7.721   7.019   9.183  1.4023  0.8044  1.2761
 4773SOL     OW26296   8.234   8.311   5.545  0.1838 -0.4702  0.1263
 4773SOL    HW126297   8.310   8.285   5.596  0.1599 -1.4232 -0.2963
 4773SOL    HW226298   8.165   8.251   5.572 -0.4644  0.4551  0.5873
 4774SOL     OW26299   5.672  10.098   2.863  0.9425 -0.3357  0.3727
 4774SOL    HW126300   5.605  10.046   2.818  0.5383  0.5478 -0.0557
 4774SOL    HW226301   5.747  10.096   2.805  1.1289 -0.9086  0.6222
 4775SOL     OW26302   4.509   1.041   7.853 -0.5324 -0.0990 -0.0462
 4775SOL    HW126303   4.419   1.013   7.834 -0.0457 -2.6169  0.9794
 4775SOL    HW226304   4.513   1.046   7.948  0.2991  0.4510 -0.0994
 4776SOL     OW26305   8.958   1.733   4.435  0.0076 -0.2951 -0.0375
 4776SOL    HW126306   8.871   1.759   4.404 -1.0958 -1.5040  1.8598
 4776SOL    HW226307   8.945   1.648   4.476  2.0177 -0.3339  0.6368
 4777SOL     OW26308   2.341   2.421   2.486  0.2262 -0.0034  0.1803
 4777SOL    HW126309   2.268   2.450   2.431  1.1470  2.9023  0.2911
 4777SOL    HW226310   2.368   2.338   2.448 -0.3804  0.9536 -2.6227
 4778SOL     OW26311   9.041   8.058   2.698 -0.7326 -0.5062 -0.6556
 4778SOL    HW126312   9.078   8.037   2.612  1.2328  0.9003 -0.2246
 4778SOL    HW226313   8.991   7.981   2.722 -1.3756 -0.9140 -3.0816
 4779SOL     OW26314   5.538   4.218   8.147 -0.7430  0.2473 -0.1571
 4779SOL    HW126315   5.610   4.277   8.167  0.6363 -1.3439 -0.2318
 4779SOL    HW226316   5.506   4.190   8.233 -1.2699  0.9267 -0.1247
 4780SOL     OW26317   3.429   2.505   0.811 -0.4193  0.4083 -0.2205
 4780SOL    HW126318   3.448   2.475   0.722 -0.3218  1.6598 -0.6339
 4780SOL    HW226319   3.350   2.558   0.803  0.6753  2.1867  0.0605
 4781SOL     OW26320   3.047   0.957   6.582 -0.0640  0.0219  0.2939
 4781SOL    HW126321   2.953   0.945   6.571 -0.1175 -1.1225  1.7380
 4781SOL    HW226322   3.056   1.004   6.665  0.6261  0.3068  0.0652
 4782SOL     OW26323   7.150   3.863   1.003  0.0839  0.6155 -0.1563
 4782SOL    HW126324   7.224   3.924   1.011 -1.3657  2.3607  0.4370
 4782SOL    HW226325   7.076   3.918   0.979 -1.0163 -1.1372 -0.9562
 4783SOL     OW26326   1.072   2.141   0.307 -0.2271  0.0261 -0.0724
 4783SOL    HW126327   1.142   2.200   0.337  0.5210 -1.4640  1.2375
 4783SOL    HW226328   1.091   2.127   0.214  0.4546  0.6424 -0.0387
 4784SOL     OW26329   2.720   3.949   8.016  0.3033  0.3341 -0.2871
 4784SOL    HW126330   2.629   3.937   7.987  0.4163  1.0961 -0.9982
 4784SOL    HW226331   2.758   3.861   8.012 -0.1656  0.1472 -0.8247
 4785SOL     OW26332   4.879   6.062   8.159  0.5486  0.3701 -0.0493
 4785SOL    HW126333   4.940   6.131   8.134 -1.3094  2.1500 -0.0289
 4785SOL    HW226334   4.843   6.091   8.243 -1.2203  0.0857 -0.6586
 4786SOL     OW26335   3.570   8.764   2.812  0.0558 -0.0729 -0.1174
 4786SOL    HW126336   3.477   8.746   2.798 -0.0140 -2.3644  2.3885
 4786SOL    HW226337   3.610   8.677   2.818  2.3991  0.8669 -1.2233
 4787SOL     OW26338   5.322   7.196   8.083 -0.0934 -0.4822  0.2529
 4787SOL    HW126339   5.349   7.247   8.007 -1.2422  1.9360  1.3486
 4787SOL    HW226340   5.304   7.109   8.048 -0.2813  0.4437 -2.1756
 4788SOL     OW26341   8.799   1.294   4.927 -0.1526 -0.1615 -0.0573
 4788SOL    HW126342   8.707   1.306   4.903 -0.2011  0.7387  0.5313
 4788SOL    HW226343   8.800   1.305   5.022  0.3772 -1.4280  0.0896
 4789SOL     OW26344   6.882   2.039   0.290  0.5652 -0.2052 -0.0749
 4789SOL    HW126345   6.976   2.058   0.294  0.0023  3.4298 -0.8226
 4789SOL    HW226346   6.847   2.078   0.370 -0.3629 -1.5700  0.2193
 4790SOL     OW26347   5.267   2.580   8.672  0.3123 -0.5795  0.4731
 4790SOL    HW126348   5.317   2.613   8.597 -0.8867 -0.5911 -0.3547
 4790SOL    HW226349   5.226   2.500   8.640 -1.1681  0.0332  0.7459
 4791SOL     OW26350   3.131   5.638   1.260  0.1773  0.1771  0.0485
 4791SOL    HW126351   3.157   5.557   1.216 -1.8181  0.2675 -1.4192
 4791SOL    HW226352   3.174   5.708   1.210  0.5522  0.1310  0.2969
 4792SOL     OW26353   1.887   8.590   0.656  0.3133  0.0340  0.0662
 4792SOL    HW126354   1.866   8.643   0.579  0.3390  0.0226  0.0516
 4792SOL    HW226355   1.838   8.509   0.644 -0.1526  0.2664  0.3525
 4793SOL     OW26356   4.333   1.958   4.891 -0.0619 -0.3531 -0.1265
 4793SOL    HW126357   4.249   2.000   4.909 -0.7179 -1.0701 -1.3608
 4793SOL    HW226358   4.395   2.004   4.947 -0.9697  1.3900 -0.4780
 4794SOL     OW26359   8.980   7.575   3.257  0.0837  0.2430  0.2638
 4794SOL    HW126360   8.977   7.665   3.224 -1.0564 -0.0823 -0.5996
 4794SOL    HW226361   9.044   7.578   3.328 -2.7092  2.6552  2.9651
 4795SOL     OW26362   8.236   7.728   9.253  0.2689  0.0664  0.4993
 4795SOL    HW126363   8.305   7.758   9.312 -0.9595  0.8356  1.5893
 4795SOL    HW226364   8.197   7.808   9.218 -0.2254 -0.3543  0.0615
 4796SOL     OW26365   6.097   4.275   7.589 -0.0868 -0.4760  0.2033
 4796SOL    HW126366   6.029   4.337   7.616  0.0971 -0.7287  1.3240
 4796SOL    HW226367   6.132   4.242   7.672  1.7234 -0.0049 -0.3217
 4797SOL     OW26368   4.149   8.822   4.594 -0.5869  0.6526 -0.3980
 4797SOL    HW126369   4.151   8.801   4.501  0.3117  0.6867 -0.3954
 4797SOL    HW226370   4.235   8.860   4.612 -0.3174 -0.4050  0.6861
 4798SOL     OW26371   2.034   6.899   4.240 -0.0269 -0.3775 -0.4515
 4798SOL    HW126372   1.971   6.878   4.172 -1.2377  1.3157  0.0867
 4798SOL    HW226373   2.040   6.995   4.239 -0.7040 -0.2132  2.3120
 4799SOL     OW26374   3.227   2.668   4.293 -0.1623  0.1029 -0.0701
 4799SOL    HW126375   3.266   2.586   4.324 -0.7469 -0.6579 -1.2783
 4799SOL    HW226376   3.300   2.729   4.289  0.8195 -1.0821 -1.5440
 4800SOL     OW26377   0.510   8.324   2.122  0.0605 -0.4360  0.1834
 4800SOL    HW126378   0.566   8.266   2.173  1.6506  1.4128  0.7015
 4800SOL    HW226379   0.512   8.288   2.033 -0.3765 -2.0600  0.8010
 4801SOL     OW26380   5.895   6.143   8.962  0.0136 -0.1628 -0.1138
 4801SOL    HW126381   5.918   6.064   9.012 -0.7010  0.4738  1.2558
 4801SOL    HW226382   5.978   6.189   8.952  0.4284 -1.0257 -0.8582
 4802SOL     OW26383   2.837   4.299   9.648 -0.3743 -0.3938 -0.3509
 4802SOL    HW126384   2.911   4.354   9.669  0.2848 -1.3675 -0.0498
 4802SOL    HW226385   2.872   4.233   9.588 -0.7426 -1.4469  0.5600
 4803SOL     OW26386  10.070   2.302   5.109 -0.4142 -0.3604  0.4164
 4803SOL    HW126387  10.100   2.390   5.086 -0.8152  0.0564  1.4510
 4803SOL    HW226388   9.994   2.287   5.053  0.4754 -0.6095 -0.7525
 4804SOL     OW26389   4.418   8.701   5.147 -0.0140 -0.0510  0.5739
 4804SOL    HW126390   4.424   8.737   5.058 -1.0606  0.0094  0.5130
 4804SOL    HW226391   4.447   8.610   5.137 -0.4478 -0.1448  0.0933
 4805SOL     OW26392   9.979   5.913   7.556  0.3398 -0.1301  0.0739
 4805SOL    HW126393  10.056   5.920   7.500 -1.0679  0.6676 -1.8810
 4805SOL    HW226394   9.935   5.998   7.548 -0.5103 -0.3922  1.5333
 4806SOL     OW26395   1.028   0.093   6.548  0.5216  0.0835  0.1150
 4806SOL    HW126396   1.066   0.162   6.493  0.4529  0.2719  0.3017
 4806SOL    HW226397   1.098   0.072   6.610  0.3813  0.3120  0.3518
 4807SOL     OW26398   8.825   3.488   0.417 -0.3023 -0.5740 -0.1913
 4807SOL    HW126399   8.832   3.393   0.404 -1.9269 -0.7251 -0.2435
 4807SOL    HW226400   8.893   3.508   0.481  1.5355 -1.3822 -1.7954
 4808SOL     OW26401   9.642   6.669   9.389 -0.2776  0.2274  0.4825
 4808SOL    HW126402   9.664   6.666   9.482 -0.4236  0.3308  0.5211
 4808SOL    HW226403   9.723   6.698   9.346 -0.4394  0.9704  0.6628
 4809SOL     OW26404   1.089   9.739   4.131 -0.0987 -0.9996  0.1772
 4809SOL    HW126405   1.080   9.670   4.066  0.9798 -1.7130  0.7584
 4809SOL    HW226406   1.175   9.777   4.115 -0.8034  0.4704 -0.3478
 4810SOL     OW26407   7.762   8.109   8.876 -0.3635  0.3072 -0.5312
 4810SOL    HW126408   7.806   8.119   8.961 -0.4281 -0.0419 -0.4564
 4810SOL    HW226409   7.680   8.157   8.887 -2.0503 -2.6315  0.8370
 4811SOL     OW26410   9.125   1.914   5.024 -0.1190 -0.0712 -0.5792
 4811SOL    HW126411   9.045   1.928   5.075  0.3300  3.4786 -0.5807
 4811SOL    HW226412   9.103   1.947   4.936  0.7375 -1.0087 -1.1574
 4812SOL     OW26413   1.416   9.617   4.319 -0.2570 -0.3461  0.0984
 4812SOL    HW126414   1.504   9.582   4.333 -0.6429 -0.9023  1.2483
 4812SOL    HW226415   1.380   9.628   4.407 -0.4251  2.3120 -0.2220
 4813SOL     OW26416  10.292   7.024   9.662 -0.0611 -0.2828  0.1954
 4813SOL    HW126417  10.244   7.024   9.579 -0.7508 -1.4016  0.5755
 4813SOL    HW226418  10.251   7.094   9.714 -0.1661 -0.1252 -0.0948
 4814SOL     OW26419   3.466   9.817   3.285  0.4351  0.2204 -0.4223
 4814SOL    HW126420   3.536   9.770   3.331  1.5315  2.5938  0.5568
 4814SOL    HW226421   3.498   9.825   3.195  1.6884  1.6154  0.1019
 4815SOL     OW26422   4.307   6.930   8.471 -0.0203 -0.6878 -0.4162
 4815SOL    HW126423   4.383   6.961   8.422 -0.0241  1.3549  0.7434
 4815SOL    HW226424   4.233   6.946   8.413 -0.0675  2.0627  0.2747
 4816SOL     OW26425   7.731   8.418   0.449 -0.3168  0.5013 -0.7686
 4816SOL    HW126426   7.742   8.432   0.543 -0.6217  1.2526 -0.8351
 4816SOL    HW226427   7.681   8.337   0.442  0.9669 -0.3546 -0.3317
 4817SOL     OW26428   8.182   6.609   2.549 -0.1058 -0.0323 -0.3948
 4817SOL    HW126429   8.102   6.636   2.593  0.0424 -1.1731  0.6253
 4817SOL    HW226430   8.244   6.680   2.565 -0.4039  0.0825  0.2523
 4818SOL     OW26431   3.021   8.384   7.540 -0.2045 -0.0625  0.6296
 4818SOL    HW126432   2.944   8.416   7.588  0.3282  0.7612  0.9457
 4818SOL    HW226433   3.057   8.316   7.597 -0.5664 -0.2960  0.5841
 4819SOL     OW26434   7.402   0.178   6.887  0.6246  0.2157 -0.3388
 4819SOL    HW126435   7.476   0.167   6.827 -0.1794  1.0444 -1.5453
 4819SOL    HW226436   7.421   0.259   6.934  0.7737  0.1006 -0.1989
 4820SOL     OW26437   6.631   7.312   5.552  0.0048  0.2816 -0.0944
 4820SOL    HW126438   6.659   7.404   5.550 -2.0302  0.9999  0.9642
 4820SOL    HW226439   6.562   7.307   5.486  1.2650 -0.9881 -1.4037
 4821SOL     OW26440   8.265   5.261   4.786 -0.2612  0.1694  0.1694
 4821SOL    HW126441   8.266   5.357   4.788 -1.1541  0.1724  0.8858
 4821SOL    HW226442   8.256   5.236   4.878 -1.0959 -0.5811 -0.1079
 4822SOL     OW26443   8.293   5.489   8.948  0.2442 -0.3116 -0.6053
 4822SOL    HW126444   8.367   5.537   8.910  0.0366 -1.0049 -1.9224
 4822SOL    HW226445   8.332   5.407   8.978  0.3055  0.0126  0.2179
 4823SOL     OW26446   5.230   8.768   1.535  0.3124 -0.2170  0.6802
 4823SOL    HW126447   5.254   8.857   1.512 -0.5386  0.2005  1.3510
 4823SOL    HW226448   5.140   8.774   1.567 -0.7431 -1.7025 -1.6939
 4824SOL     OW26449   8.686   5.569   0.915  0.0850  0.2002 -0.2260
 4824SOL    HW126450   8.777   5.593   0.898  0.0672  0.7121  0.3730
 4824SOL    HW226451   8.642   5.652   0.935 -0.2219 -0.1940  0.8003
 4825SOL     OW26452   8.413   1.875   8.363 -0.0383 -0.1605 -0.0792
 4825SOL    HW126453   8.415   1.965   8.329  0.6698 -0.9163 -2.2158
 4825SOL    HW226454   8.495   1.866   8.412 -0.5354  0.6188  0.9131
 4826SOL     OW26455   9.146   7.231   5.953 -0.2554  0.0392 -0.3808
 4826SOL    HW126456   9.219   7.266   6.004 -1.0146  1.5609 -0.2972
 4826SOL    HW226457   9.145   7.138   5.975  0.6794  0.2804  0.8353
 4827SOL     OW26458   0.516   0.523   1.262 -0.1721 -0.2805  0.3404
 4827SOL    HW126459   0.550   0.552   1.347  3.2257  2.0868 -1.5770
 4827SOL    HW226460   0.590   0.480   1.220 -1.0935  0.3883 -2.1486
 4828SOL     OW26461   8.429   2.148   5.952  0.4279 -0.2796  0.2382
 4828SOL    HW126462   8.479   2.066   5.957  1.2241  0.0441 -1.4989
 4828SOL    HW226463   8.361   2.130   5.887 -0.2854  0.0127  0.8923
 4829SOL     OW26464   3.268   4.624   9.591 -0.0424 -0.1780  0.8382
 4829SOL    HW126465   3.316   4.542   9.602  2.3195  1.1578  1.1490
 4829SOL    HW226466   3.271   4.666   9.677 -0.6089  0.5531  0.5148
 4830SOL     OW26467   8.887   1.489   2.130 -1.0359 -0.0633  0.7016
 4830SOL    HW126468   8.927   1.562   2.083  1.5946 -1.7012  0.2012
 4830SOL    HW226469   8.808   1.526   2.169 -0.7630  2.5636 -0.9951
 4831SOL     OW26470   0.612   4.764   3.838 -0.4405 -0.2544 -0.2299
 4831SOL    HW126471   0.569   4.682   3.813  0.4583 -1.1243  0.9715
 4831SOL    HW226472   0.662   4.742   3.917  1.0657  1.0636 -0.7630
 4832SOL     OW26473   5.045   1.868   9.696 -0.5892 -0.0581  0.1264
 4832SOL    HW126474   5.127   1.914   9.710 -1.5123  1.0591  2.2989
 4832SOL    HW226475   4.989   1.894   9.769 -2.9665 -0.6285 -1.3586
 4833SOL     OW26476   2.766   2.811   9.260  0.1148 -0.4320 -0.5956
 4833SOL    HW126477   2.859   2.834   9.267  0.2343 -0.9443 -0.3977
 4833SOL    HW226478   2.725   2.888   9.223  0.9937 -0.9629 -2.8810
 4834SOL     OW26479   0.368   9.911   0.282 -0.8287 -0.1348  0.3857
 4834SOL    HW126480   0.388   9.904   0.376 -0.8663 -1.0033  0.3337
 4834SOL    HW226481   0.299   9.847   0.267  0.1136 -0.9862 -0.4890
 4835SOL     OW26482   4.925   7.425   3.615  0.1773 -0.3326 -0.2817
 4835SOL    HW126483   4.859   7.434   3.683  1.5652  0.0897  1.0804
 4835SOL    HW226484   5.005   7.400   3.662  2.0224  3.0584 -1.2399
 4836SOL     OW26485   0.995   6.430   3.548  0.1834  0.4502  0.1242
 4836SOL    HW126486   0.998   6.505   3.607 -0.4106  0.0797  0.6465
 4836SOL    HW226487   1.056   6.367   3.586  1.3511  0.9819 -0.7930
 4837SOL     OW26488   4.794   0.626   0.009  0.1179  0.2890  0.3165
 4837SOL    HW126489   4.715   0.632  -0.046  0.5958  0.0316 -0.4183
 4837SOL    HW226490   4.763   0.588   0.091 -0.9892  2.5808  1.0447
 4838SOL     OW26491   9.348   5.827   5.356  0.9932  0.3100  0.0678
 4838SOL    HW126492   9.337   5.821   5.262 -0.9426  1.1672  0.1877
 4838SOL    HW226493   9.379   5.741   5.383  3.1711  0.5240 -1.4845
 4839SOL     OW26494  10.148   8.081   0.312  0.0338 -0.1610 -0.4842
 4839SOL    HW126495  10.150   7.987   0.294  0.2705 -0.2788  0.1222
 4839SOL    HW226496  10.078   8.115   0.257 -0.3706 -0.7690 -0.3497
 4840SOL     OW26497   9.733   1.773   3.240 -0.1098 -0.1929 -0.1437
 4840SOL    HW126498   9.804   1.721   3.202 -0.2127  0.2173 -0.9132
 4840SOL    HW226499   9.721   1.846   3.179 -0.2605  0.5022  0.6910
 4841SOL     OW26500   8.147   8.176   3.040 -0.7144  0.3339 -0.2869
 4841SOL    HW126501   8.202   8.108   3.001 -0.2894  0.2191  0.4786
 4841SOL    HW226502   8.210   8.239   3.077 -1.0996  0.3844  0.2905
 4842SOL     OW26503   0.124  10.333   7.547 -0.3906  0.4188 -0.2941
 4842SOL    HW126504   0.159  10.263   7.602 -3.4454  0.1703  1.5565
 4842SOL    HW226505   0.168  10.412   7.579  2.5703 -0.4074 -1.9329
 4843SOL     OW26506   9.689   9.094   2.771  0.3251 -0.3670  0.5744
 4843SOL    HW126507   9.729   9.022   2.721 -0.9877 -0.2532 -0.7305
 4843SOL    HW226508   9.604   9.108   2.728  0.2531  1.5079  1.2369
 4844SOL     OW26509   0.448   8.720   2.652  0.1296  0.3091 -0.1036
 4844SOL    HW126510   0.394   8.709   2.574 -0.5518  0.2281  0.3677
 4844SOL    HW226511   0.538   8.720   2.619 -0.1591  0.5821 -0.9180
 4845SOL     OW26512   3.159   8.545   1.228  0.6901  0.2043  0.0711
 4845SOL    HW126513   3.221   8.618   1.217  2.0543 -1.2297 -2.5243
 4845SOL    HW226514   3.096   8.556   1.157 -0.0907 -0.2295  0.6860
 4846SOL     OW26515   8.324   1.444   9.291 -0.1754  0.3236 -0.1409
 4846SOL    HW126516   8.278   1.528   9.291 -0.6046  0.0961 -0.6296
 4846SOL    HW226517   8.388   1.451   9.363  0.1662  1.2664 -0.5189
 4847SOL     OW26518   2.811   9.653   9.947 -0.0281 -0.4016  0.0879
 4847SOL    HW126519   2.789   9.650  10.040 -0.0639 -1.5964  0.0579
 4847SOL    HW226520   2.840   9.743   9.932 -1.9145  0.3659  0.8021
 4848SOL     OW26521   4.348   5.244   8.445  0.2602 -0.0958 -0.7575
 4848SOL    HW126522   4.402   5.227   8.367  0.9713  1.8205 -0.7264
 4848SOL    HW226523   4.313   5.332   8.431  2.9043  1.6636  2.4046
 4849SOL     OW26524   2.481   0.546   4.291 -0.4031  0.4328 -0.4076
 4849SOL    HW126525   2.440   0.615   4.238 -1.4392 -0.5325 -0.9092
 4849SOL    HW226526   2.511   0.482   4.227  1.7624  0.9941 -0.0349
 4850SOL     OW26527   8.396   8.682   5.861 -0.0175 -0.3212 -0.1611
 4850SOL    HW126528   8.326   8.747   5.865  0.7129  0.4749 -0.0024
 4850SOL    HW226529   8.369   8.622   5.791 -2.5742 -2.1027  2.1323
 4851SOL     OW26530   2.477   4.139   0.947  0.1174 -0.0649 -0.4036
 4851SOL    HW126531   2.527   4.163   0.869  1.1090 -0.6569  0.0326
 4851SOL    HW226532   2.539   4.092   1.002 -1.1672 -1.6767 -0.2460
 4852SOL     OW26533   5.662   7.378   9.667 -0.6856 -0.1242 -0.1184
 4852SOL    HW126534   5.604   7.385   9.743  0.1198 -0.1186  0.5149
 4852SOL    HW226535   5.681   7.469   9.643  0.6411 -0.0773  0.9452
 4853SOL     OW26536   4.506   9.604   4.960  0.3934  0.0865 -0.5297
 4853SOL    HW126537   4.518   9.642   5.047 -0.0070  1.7761 -1.1648
 4853SOL    HW226538   4.594   9.579   4.932  0.6791  0.5409 -0.0639
 4854SOL     OW26539   1.821   1.314   0.144  0.3715  0.6264 -0.0374
 4854SOL    HW126540   1.767   1.391   0.128  1.2755  1.8173  2.1991
 4854SOL    HW226541   1.901   1.330   0.094  0.0004  0.4484 -0.6973
 4855SOL     OW26542   4.437  10.100  10.240  0.5422  0.2638  0.6276
 4855SOL    HW126543   4.377  10.151  10.295 -1.0533 -1.1625  0.2845
 4855SOL    HW226544   4.382  10.033  10.199  2.2969 -0.8350 -0.0706
 4856SOL     OW26545   5.687   0.576   2.499 -0.3099  0.2430 -0.4685
 4856SOL    HW126546   5.745   0.643   2.535 -0.8289  0.7043 -0.4786
 4856SOL    HW226547   5.737   0.540   2.425  0.3917 -0.0971  0.1555
 4857SOL     OW26548   1.550   6.128   4.721 -0.3836  0.4238  0.1129
 4857SOL    HW126549   1.455   6.116   4.723 -0.1680 -1.4703  0.5514
 4857SOL    HW226550   1.583   6.064   4.783  1.1840  1.2716  0.1943
 4858SOL     OW26551   2.376   5.557   8.844 -0.2906  0.2820  0.2926
 4858SOL    HW126552   2.427   5.622   8.796 -0.3412  0.8639  1.0210
 4858SOL    HW226553   2.303   5.606   8.881  1.4151  0.5723  3.6476
 4859SOL     OW26554   8.737   7.497   2.767  0.0003  0.5667 -0.1566
 4859SOL    HW126555   8.803   7.529   2.705  0.1259 -1.6847 -1.3044
 4859SOL    HW226556   8.771   7.522   2.853  0.6850  2.2667 -0.8636
 4860SOL     OW26557   0.394   4.211   3.653 -0.0136  0.4761  0.5287
 4860SOL    HW126558   0.486   4.216   3.625 -0.5047 -1.5943 -1.7938
 4860SOL    HW226559   0.366   4.302   3.659  0.9646  1.2072 -3.3240
 4861SOL     OW26560   6.022   0.168   1.664 -0.7697 -0.2861  0.0935
 4861SOL    HW126561   5.940   0.134   1.701 -0.0917 -0.1449  1.8508
 4861SOL    HW226562   6.065   0.212   1.738  0.1186  1.1215 -1.2007
 4862SOL     OW26563   1.193   4.558   0.539  0.3910  0.0268  0.1320
 4862SOL    HW126564   1.282   4.589   0.556  0.7220 -1.2620  0.9686
 4862SOL    HW226565   1.187   4.551   0.444  1.1703  0.1666  0.0689
 4863SOL     OW26566   5.226   2.125   2.808 -0.2682  0.4159 -0.7326
 4863SOL    HW126567   5.142   2.133   2.763  0.4724  0.6572 -2.1149
 4863SOL    HW226568   5.249   2.215   2.832 -0.6172  0.2976  0.0803
 4864SOL     OW26569   4.646   8.829   3.475 -0.1157 -0.4108  0.3381
 4864SOL    HW126570   4.739   8.816   3.458  0.0355  1.5425 -0.5733
 4864SOL    HW226571   4.630   8.783   3.557  1.6263 -0.8623  0.4679
 4865SOL     OW26572   0.942   9.825   9.407 -0.0161  0.3798  0.4734
 4865SOL    HW126573   1.003   9.889   9.371  0.7192  0.4913  1.8267
 4865SOL    HW226574   0.859   9.873   9.415 -0.2621  0.2840 -1.2055
 4866SOL     OW26575   4.910   0.796  10.033  0.0477 -0.1612  0.0619
 4866SOL    HW126576   4.942   0.860   9.969 -2.0022  0.3455 -0.5473
 4866SOL    HW226577   4.900   0.715   9.982 -2.2238  0.4100 -0.5374
 4867SOL     OW26578   7.406   5.589   2.447  0.2551 -0.0754  0.1067
 4867SOL    HW126579   7.343   5.633   2.390 -0.4733  0.2100  1.0924
 4867SOL    HW226580   7.491   5.604   2.406  0.0363  2.2193  0.3663
 4868SOL     OW26581   0.983   6.034   0.603  0.1439  0.2152  0.0851
 4868SOL    HW126582   0.917   5.968   0.582  3.0972 -2.6915 -1.0037
 4868SOL    HW226583   0.963   6.061   0.693 -3.8457  1.4394 -0.9688
 4869SOL     OW26584   6.724   8.748   9.207  0.1697  0.6929 -0.1260
 4869SOL    HW126585   6.685   8.667   9.175 -0.2836  1.3905 -1.4310
 4869SOL    HW226586   6.799   8.763   9.150  0.3338  1.1202  0.1908
 4870SOL     OW26587   8.770   1.523   7.615  0.0248  0.3467  0.5836
 4870SOL    HW126588   8.820   1.579   7.674 -1.2037  2.1284  0.0303
 4870SOL    HW226589   8.833   1.460   7.582  1.0429  0.1847  2.7014
 4871SOL     OW26590   2.962   7.358   4.663 -0.1920 -0.5291  0.0500
 4871SOL    HW126591   2.986   7.339   4.572  0.3527 -0.3144  0.1454
 4871SOL    HW226592   2.910   7.439   4.657 -0.5200 -0.7477 -0.1090
 4872SOL     OW26593   5.239   8.032  10.207  0.1258 -0.8464  0.1371
 4872SOL    HW126594   5.164   8.075  10.166 -0.0195 -1.9513 -0.8200
 4872SOL    HW226595   5.296   8.008  10.134  0.0937 -2.4353  0.5913
 4873SOL     OW26596   6.331   3.307   1.599 -0.3316 -0.6960  0.2946
 4873SOL    HW126597   6.323   3.388   1.549  1.3990 -1.0643 -0.6521
 4873SOL    HW226598   6.267   3.316   1.669 -0.3950  1.3447  0.0352
 4874SOL     OW26599   8.843   0.989   0.179 -0.1693  0.2702 -0.2937
 4874SOL    HW126600   8.888   1.054   0.126  0.3751  0.8204  0.8090
 4874SOL    HW226601   8.898   0.911   0.176  0.4603  0.6768  0.3844
 4875SOL     OW26602   1.827   6.760   3.653 -0.1164 -0.4178  0.1639
 4875SOL    HW126603   1.840   6.853   3.672 -0.4315 -0.3708  0.1428
 4875SOL    HW226604   1.781   6.759   3.570  0.1398 -0.6010  0.0225
 4876SOL     OW26605   7.916   1.111   2.812 -0.2309 -0.2557 -0.9676
 4876SOL    HW126606   7.836   1.123   2.761 -1.1437  0.6361  0.6051
 4876SOL    HW226607   7.932   1.017   2.810 -1.5590 -0.5024 -0.9725
 4877SOL     OW26608   2.629   9.250   3.915  0.3811 -0.4923 -0.1025
 4877SOL    HW126609   2.627   9.248   3.819  0.0598 -1.4310 -0.0763
 4877SOL    HW226610   2.697   9.187   3.939  0.9754  0.2646  0.2818
 4878SOL     OW26611   3.839   1.836   9.970  0.2286  0.1503 -0.3082
 4878SOL    HW126612   3.771   1.893  10.004  0.1733 -0.3954  0.5353
 4878SOL    HW226613   3.921   1.883   9.986  0.1793  0.0271  0.3259
 4879SOL     OW26614   6.527   8.571   7.649 -0.5898 -0.1563  0.2446
 4879SOL    HW126615   6.433   8.572   7.664 -0.5676  2.7979  0.9249
 4879SOL    HW226616   6.564   8.612   7.728  1.2712 -1.1274 -0.0522
 4880SOL     OW26617   5.740   7.030   4.170  0.0437  0.1574 -0.1167
 4880SOL    HW126618   5.746   7.101   4.106 -1.1861  1.7690  1.4821
 4880SOL    HW226619   5.648   7.027   4.195 -0.0031 -2.2253 -0.3258
 4881SOL     OW26620   7.790   1.434   8.271  0.3411 -0.0874 -0.0480
 4881SOL    HW126621   7.732   1.359   8.281  1.4949 -0.6494  5.0493
 4881SOL    HW226622   7.878   1.398   8.282  1.2968  1.5660 -1.5573
 4882SOL     OW26623   0.290   0.108   1.278  0.4053  0.1755  0.5213
 4882SOL    HW126624   0.276   0.172   1.208 -0.3683  1.0957  1.4799
 4882SOL    HW226625   0.350   0.152   1.338  2.8934 -1.4593 -0.6013
 4883SOL     OW26626   0.961   2.685   5.734 -0.3580  0.7052  0.3311
 4883SOL    HW126627   1.051   2.704   5.761 -0.2282  0.9150 -0.2467
 4883SOL    HW226628   0.937   2.608   5.786  0.3728  0.2651  0.0299
 4884SOL     OW26629  10.010   0.323   9.521  0.1327  0.1604 -0.4093
 4884SOL    HW126630  10.099   0.355   9.537  0.8939 -1.9342 -0.1614
 4884SOL    HW226631  10.022   0.239   9.476 -1.7064 -0.2554 -0.2232
 4885SOL     OW26632  10.183   5.082   8.406 -0.0035  0.3277 -0.0822
 4885SOL    HW126633  10.197   4.988   8.398 -0.3806  0.2168  0.5195
 4885SOL    HW226634  10.119   5.102   8.337  2.8221  0.8341 -2.8268
 4886SOL     OW26635   0.230   5.067   1.213  0.6960  0.0768 -0.3006
 4886SOL    HW126636   0.313   5.111   1.230 -1.0749  3.0950  1.4232
 4886SOL    HW226637   0.193   5.113   1.138 -0.4242  0.3913  0.4166
 4887SOL     OW26638   6.249   9.129   8.534 -0.7722 -0.4197 -0.0108
 4887SOL    HW126639   6.223   9.162   8.448  0.4481  2.1424  0.5009
 4887SOL    HW226640   6.194   9.178   8.596  0.4485  0.0068  0.7651
 4888SOL     OW26641   0.846  10.331   0.674  0.2448 -0.1396  0.9196
 4888SOL    HW126642   0.820  10.242   0.654 -2.5678  0.9304 -0.6974
 4888SOL    HW226643   0.765  10.381   0.678  1.7622  2.6226  0.4208
 4889SOL     OW26644   9.931   8.649   3.459 -0.0931  0.2197  0.4061
 4889SOL    HW126645   9.997   8.582   3.442 -1.0849 -0.5022 -0.7841
 4889SOL    HW226646   9.851   8.600   3.479 -1.1964  0.9594 -1.8699
 4890SOL     OW26647   2.442   5.106   8.147  0.5882  0.1659  0.2248
 4890SOL    HW126648   2.383   5.032   8.134  1.0772  0.1069 -2.1698
 4890SOL    HW226649   2.389   5.173   8.191 -0.1882 -1.1429  1.3594
 4891SOL     OW26650   1.785   4.408   6.305  0.1907 -0.2705 -0.0091
 4891SOL    HW126651   1.807   4.352   6.380 -1.4326  0.2831  0.9346
 4891SOL    HW226652   1.707   4.368   6.268 -0.2417  0.6546 -0.1065
 4892SOL     OW26653   2.843   1.300   6.737 -0.1016  0.2840  0.0721
 4892SOL    HW126654   2.846   1.396   6.743  0.7900  0.3318 -0.8832
 4892SOL    HW226655   2.759   1.282   6.694  0.7753  0.8044 -1.9915
 4893SOL     OW26656   7.830   4.997   0.369  0.0058 -0.2302 -0.1626
 4893SOL    HW126657   7.744   4.954   0.374  0.9726 -2.5166 -1.4473
 4893SOL    HW226658   7.891   4.933   0.406  1.2594  1.0518  0.0762
 4894SOL     OW26659   3.230   4.231   0.618 -0.5392  0.0903  0.3518
 4894SOL    HW126660   3.292   4.175   0.664 -0.0972  0.3188  0.0493
 4894SOL    HW226661   3.144   4.208   0.654 -0.4959 -1.4984 -0.4775
 4895SOL     OW26662   5.770   5.707   0.965 -0.0593 -0.1771  0.5499
 4895SOL    HW126663   5.798   5.723   0.875 -1.3593 -1.1563 -0.0564
 4895SOL    HW226664   5.707   5.635   0.958  0.1390 -0.5625  2.2928
 4896SOL     OW26665   6.780  10.151   8.650  0.0475 -0.0272  0.2670
 4896SOL    HW126666   6.736  10.217   8.597  0.3523  1.5420  1.8551
 4896SOL    HW226667   6.864  10.191   8.673  0.7122 -1.4247  0.3924
 4897SOL     OW26668   4.297   9.792   7.318  0.4967 -0.0265  0.3077
 4897SOL    HW126669   4.358   9.719   7.327 -0.1187 -0.5591  0.1882
 4897SOL    HW226670   4.282   9.822   7.408 -0.2198 -0.8508  0.4659
 4898SOL     OW26671   2.196   0.733   3.088  0.0015 -0.9354 -0.0636
 4898SOL    HW126672   2.192   0.658   3.028  0.6840  0.4331 -1.8873
 4898SOL    HW226673   2.199   0.810   3.031  1.5591  0.4093  1.7087
 4899SOL     OW26674   2.464   1.100   2.356  0.4173 -0.2043  0.0467
 4899SOL    HW126675   2.370   1.099   2.336  0.8625 -0.5586 -2.2900
 4899SOL    HW226676   2.493   1.187   2.330  0.9741 -0.5535 -0.5229
 4900SOL     OW26677   3.268   1.686  10.242 -0.4789  0.3090  0.0169
 4900SOL    HW126678   3.290   1.772  10.207 -1.3387 -0.0938 -1.5776
 4900SOL    HW226679   3.187   1.662  10.198  0.4615 -1.9093 -0.6007
 4901SOL     OW26680   4.516   8.639   4.337 -0.3150 -0.2464  0.1239
 4901SOL    HW126681   4.567   8.645   4.418 -0.8535  2.1305  0.3659
 4901SOL    HW226682   4.431   8.605   4.365 -0.5433  0.6892  0.6184
 4902SOL     OW26683   0.133   6.978   3.292  0.9315 -0.1664 -0.1258
 4902SOL    HW126684   0.084   6.994   3.372  1.6939 -1.6777  0.6993
 4902SOL    HW226685   0.099   7.041   3.229 -1.3690 -0.5109  0.6808
 4903SOL     OW26686   3.921   7.928   1.554  0.2993 -0.5826  0.0518
 4903SOL    HW126687   3.980   7.854   1.567 -2.1294 -2.4524  1.2957
 4903SOL    HW226688   3.912   7.967   1.641 -0.1774 -0.2313 -0.1478
 4904SOL     OW26689   2.846   5.698   9.727 -0.6388 -0.0456 -0.5279
 4904SOL    HW126690   2.854   5.783   9.769 -1.1362 -0.3534  0.2054
 4904SOL    HW226691   2.918   5.695   9.664  0.9916 -0.1263  1.2498
 4905SOL     OW26692   2.031   3.170   1.634 -0.1917 -0.5905  0.3263
 4905SOL    HW126693   2.037   3.246   1.576  1.2049 -0.3195  0.7814
 4905SOL    HW226694   1.941   3.173   1.668  0.0172  1.2652  0.8601
 4906SOL     OW26695   9.794   2.616   8.652 -0.7153  0.1391 -0.1891
 4906SOL    HW126696   9.886   2.607   8.631 -0.8714 -0.7723 -0.5382
 4906SOL    HW226697   9.788   2.696   8.704  0.4329 -0.3766  0.7770
 4907SOL     OW26698   5.506   1.665   5.430  0.1645 -0.6068 -0.3813
 4907SOL    HW126699   5.450   1.594   5.398  0.0595 -0.6943 -0.0056
 4907SOL    HW226700   5.579   1.621   5.474 -0.4418 -0.4819  0.7816
 4908SOL     OW26701   9.243   1.857   6.950  0.3285 -0.7812 -0.3691
 4908SOL    HW126702   9.192   1.838   6.871 -0.1829  0.3661 -0.3500
 4908SOL    HW226703   9.200   1.806   7.018 -0.1020 -0.7016 -0.5722
 4909SOL     OW26704   2.790   0.778   6.881  0.5388  0.1330  0.4846
 4909SOL    HW126705   2.834   0.698   6.853  1.3825  1.2565 -1.6632
 4909SOL    HW226706   2.861   0.840   6.898 -0.0809  0.3012  2.6658
 4910SOL     OW26707   7.241   2.159   2.860 -0.3483 -0.2542  0.8956
 4910SOL    HW126708   7.320   2.212   2.861 -1.1314  0.9552  0.8238
 4910SOL    HW226709   7.271   2.071   2.838  0.6492  0.7152 -2.0080
 4911SOL     OW26710   1.332   5.982   8.552  0.0314 -0.6788  0.5069
 4911SOL    HW126711   1.338   5.900   8.602  1.4862  0.3877  2.1898
 4911SOL    HW226712   1.423   6.006   8.535 -0.3884  0.4523 -0.2149
 4912SOL     OW26713   2.092   2.501   2.313  0.1822 -0.0938 -0.7177
 4912SOL    HW126714   2.075   2.440   2.241  0.9759 -0.5865 -0.5110
 4912SOL    HW226715   2.035   2.575   2.296 -1.7486 -1.4116 -0.3115
 4913SOL     OW26716   4.857   4.453   5.167 -0.0603  0.1587 -0.2052
 4913SOL    HW126717   4.874   4.498   5.084  0.9106 -1.9306 -1.2215
 4913SOL    HW226718   4.762   4.451   5.175 -0.1420  1.5397 -0.5714
 4914SOL     OW26719   8.107   0.049   2.290  0.1240  0.4382  0.3454
 4914SOL    HW126720   8.095   0.023   2.199  1.1645  0.3454  0.2279
 4914SOL    HW226721   8.201   0.064   2.299  0.3455 -1.4125  1.8966
 4915SOL     OW26722   4.253   9.411   2.644  0.7426 -0.1390  0.3875
 4915SOL    HW126723   4.183   9.402   2.708  1.2990 -2.4669  0.7538
 4915SOL    HW226724   4.217   9.470   2.577 -0.7516  0.3755  1.5947
 4916SOL     OW26725   0.393   9.471   8.250  0.3200 -0.6787 -0.1099
 4916SOL    HW126726   0.310   9.455   8.295 -0.1542  0.9934 -0.3274
 4916SOL    HW226727   0.385   9.559   8.214  1.7992 -0.8722 -1.0329
 4917SOL     OW26728   7.202   5.166   4.998  0.3693 -0.2400 -0.2220
 4917SOL    HW126729   7.149   5.194   4.924 -1.5087  0.8057  1.4329
 4917SOL    HW226730   7.205   5.242   5.055 -0.8233 -1.8884  2.1940
 4918SOL     OW26731   2.579   1.341   5.477  0.3567 -0.4062 -0.1837
 4918SOL    HW126732   2.654   1.281   5.478  0.6171 -0.0907  1.1320
 4918SOL    HW226733   2.607   1.416   5.530 -0.9067 -0.3050  0.3819
 4919SOL     OW26734   1.232   7.509   6.554  0.0901  0.2342  0.0900
 4919SOL    HW126735   1.203   7.541   6.639  1.2784 -0.2978  0.7203
 4919SOL    HW226736   1.212   7.415   6.556  0.7035  0.0978  0.0507
 4920SOL     OW26737   8.081   0.841   1.552  0.1166  0.0686  0.0743
 4920SOL    HW126738   7.995   0.841   1.595 -0.8094  2.2197 -1.5908
 4920SOL    HW226739   8.134   0.900   1.605  0.2087 -0.3495  0.4514
 4921SOL     OW26740   7.577   2.907   5.984  0.4589  0.1393 -0.4916
 4921SOL    HW126741   7.660   2.932   6.024 -0.6333  2.7485  0.3287
 4921SOL    HW226742   7.512   2.964   6.024 -1.5702 -0.9642 -2.0015
 4922SOL     OW26743   6.942   6.340   1.897  0.0261  0.1274  0.3017
 4922SOL    HW126744   7.004   6.331   1.825  1.0685 -1.1902  1.3012
 4922SOL    HW226745   6.915   6.432   1.895  0.5060  0.2544 -1.3569
 4923SOL     OW26746   1.932   5.207   1.953  0.3483  0.4082  0.0677
 4923SOL    HW126747   2.025   5.205   1.929  0.5398  1.6562  0.6307
 4923SOL    HW226748   1.890   5.253   1.881  0.3140  0.6661  0.2512
 4924SOL     OW26749   7.811   3.066   1.003 -0.3876 -0.0604  0.1778
 4924SOL    HW126750   7.853   3.060   1.089 -0.6192 -2.3912  0.1868
 4924SOL    HW226751   7.724   3.029   1.016  0.0660 -1.7973 -1.3327
 4925SOL     OW26752   3.283   2.403   6.347  0.3605 -0.3651  0.4553
 4925SOL    HW126753   3.216   2.394   6.416 -1.2344 -1.0613 -1.1059
 4925SOL    HW226754   3.260   2.336   6.283  2.2059 -0.1756 -0.4520
 4926SOL     OW26755   4.369   3.236   8.797 -0.0704  0.4213 -0.2911
 4926SOL    HW126756   4.400   3.268   8.712  2.5372  1.5775  1.0194
 4926SOL    HW226757   4.404   3.147   8.803  1.5783  1.0910  0.4260
 4927SOL     OW26758   0.545   2.563   2.996  0.0090 -0.4010 -0.0443
 4927SOL    HW126759   0.475   2.620   3.027 -0.8763 -1.4401 -0.0732
 4927SOL    HW226760   0.625   2.615   3.006 -0.5838  0.2876  1.3374
 4928SOL     OW26761   1.902   0.688   4.035  0.2337  0.3226  0.3410
 4928SOL    HW126762   1.881   0.756   3.971  0.9985  0.3429  0.1016
 4928SOL    HW226763   1.962   0.730   4.096 -1.3777  0.6591  1.7874
 4929SOL     OW26764   0.246  10.098   4.849 -0.4961  0.5993 -0.3198
 4929SOL    HW126765   0.266  10.006   4.869  0.9031  0.4997 -1.9034
 4929SOL    HW226766   0.153  10.098   4.828 -0.5451 -0.4463 -0.1760
 4930SOL     OW26767   2.821   5.087   4.734 -0.3850  0.0351  0.2986
 4930SOL    HW126768   2.738   5.086   4.687 -0.0581  1.2825 -0.3577
 4930SOL    HW226769   2.887   5.087   4.665  0.1207  1.2139  0.7621
 4931SOL     OW26770   8.793   2.672   9.445 -0.1542  0.2300  0.5152
 4931SOL    HW126771   8.767   2.731   9.515 -0.7400 -2.2771  2.5969
 4931SOL    HW226772   8.807   2.588   9.489  0.8146 -1.1670 -2.2031
 4932SOL     OW26773   6.597   8.436   3.375 -1.0384 -0.7210  0.1581
 4932SOL    HW126774   6.680   8.437   3.329 -0.7301 -2.6185  0.5851
 4932SOL    HW226775   6.591   8.522   3.416  1.5459 -1.0952  1.5347
 4933SOL     OW26776  10.216   0.456   3.907  0.0113 -0.3273  0.1263
 4933SOL    HW126777  10.260   0.478   3.989 -0.9215  0.2221  0.4905
 4933SOL    HW226778  10.157   0.529   3.891 -0.0893 -0.6088 -0.8431
 4934SOL     OW26779   7.843   8.486   2.015  0.2364 -0.3694 -0.5323
 4934SOL    HW126780   7.923   8.436   1.999  0.8798 -0.2780  2.0245
 4934SOL    HW226781   7.816   8.461   2.103 -1.6771  0.8248 -0.7196
 4935SOL     OW26782   6.811  10.037   9.628  0.1378 -0.4734 -0.1270
 4935SOL    HW126783   6.865   9.959   9.637 -1.8258 -1.9349 -0.3509
 4935SOL    HW226784   6.759  10.039   9.708  0.8501  1.2056  0.3338
 4936SOL     OW26785   1.084   6.510   6.265 -0.6153 -0.1853 -0.0627
 4936SOL    HW126786   1.000   6.484   6.228 -0.5121  0.3642 -0.7197
 4936SOL    HW226787   1.094   6.602   6.239  0.5100 -0.4456 -0.6307
 4937SOL     OW26788   0.447   7.348   6.907  0.0613 -0.1514 -0.2456
 4937SOL    HW126789   0.424   7.433   6.944  0.1864 -0.4575  0.5754
 4937SOL    HW226790   0.384   7.333   6.837  0.0295  0.6049 -0.3840
 4938SOL     OW26791   6.838   0.729   4.386 -0.0356  0.4381 -0.0967
 4938SOL    HW126792   6.873   0.724   4.475 -0.8967 -0.1556  0.2145
 4938SOL    HW226793   6.912   0.704   4.331  0.1140 -0.6009  0.5407
 4939SOL     OW26794   7.981   4.169   4.097 -0.0365 -0.3131  0.0962
 4939SOL    HW126795   8.051   4.215   4.144 -2.0984  0.3250  2.7539
 4939SOL    HW226796   7.947   4.233   4.035  1.3768 -0.4902 -0.9125
 4940SOL     OW26797   7.974   1.777   6.393 -0.0976 -0.0693  0.2205
 4940SOL    HW126798   7.958   1.716   6.321  0.0719  0.0798  0.0564
 4940SOL    HW226799   7.944   1.862   6.359  0.7049  0.1481  0.0395
 4941SOL     OW26800   8.852   7.319   9.303  0.3375  0.3055  0.3017
 4941SOL    HW126801   8.901   7.373   9.241  0.1007 -0.3417 -0.4645
 4941SOL    HW226802   8.789   7.272   9.249  0.0962 -0.2347  1.0443
 4942SOL     OW26803   8.270   7.002   3.275 -0.2085  0.5746  0.3459
 4942SOL    HW126804   8.217   7.033   3.201  0.6655  1.6608  0.1576
 4942SOL    HW226805   8.359   6.999   3.241 -0.1431 -1.6205  0.5409
 4943SOL     OW26806   0.257   1.810   6.533 -0.6629  0.2627 -0.5909
 4943SOL    HW126807   0.221   1.891   6.569 -0.2967  0.5806 -0.9352
 4943SOL    HW226808   0.189   1.778   6.474 -1.8773 -0.9903  1.3491
 4944SOL     OW26809   1.051   0.533   1.755 -0.0927 -0.3044  0.2384
 4944SOL    HW126810   1.033   0.541   1.661 -0.6266  1.4403  0.4607
 4944SOL    HW226811   1.133   0.581   1.768 -0.7333  0.6606  0.8530
 4945SOL     OW26812   2.980   3.732   4.366 -0.3193  0.2015  0.4639
 4945SOL    HW126813   2.982   3.641   4.336 -2.0258  0.4168 -0.4219
 4945SOL    HW226814   2.893   3.742   4.405 -0.3992  1.6229 -0.0387
 4946SOL     OW26815   2.324   9.139   1.605  0.6164 -0.2291  0.1203
 4946SOL    HW126816   2.242   9.090   1.615  0.1724  0.6647  1.0116
 4946SOL    HW226817   2.380   9.106   1.675  0.2266  0.6858  0.8807
 4947SOL     OW26818   0.412   3.422   1.037  0.1152 -0.2963  0.4108
 4947SOL    HW126819   0.344   3.408   0.971  0.2162 -1.3657  0.5226
 4947SOL    HW226820   0.486   3.369   1.007 -0.5114 -2.4298  2.3860
 4948SOL     OW26821   7.226  10.082   7.826  0.0140  0.2525 -0.0621
 4948SOL    HW126822   7.193   9.993   7.837 -1.4256  0.9114  1.3123
 4948SOL    HW226823   7.181  10.133   7.893 -0.5271  2.3650 -1.9248
 4949SOL     OW26824   3.679   5.128   4.603  0.0346  0.0455 -0.2545
 4949SOL    HW126825   3.590   5.161   4.596  0.3027  0.5443 -1.7416
 4949SOL    HW226826   3.721   5.185   4.668 -0.5354  0.2510 -0.0622
 4950SOL     OW26827   8.720  10.218   8.580 -0.5772  0.0284  0.0088
 4950SOL    HW126828   8.779  10.202   8.507 -1.1116 -0.4722 -0.3194
 4950SOL    HW226829   8.717  10.135   8.627  0.3798  0.5635  1.0718
 4951SOL     OW26830   0.894   8.874   0.287 -0.1070  0.2710 -0.3453
 4951SOL    HW126831   0.973   8.924   0.309  0.9762 -1.3977 -0.2955
 4951SOL    HW226832   0.851   8.926   0.219  0.7511  1.4708  0.0015
 4952SOL     OW26833   2.948   6.352   2.532 -0.6667  0.1516  0.5352
 4952SOL    HW126834   2.994   6.405   2.467 -1.0521  0.3967  0.4562
 4952SOL    HW226835   2.925   6.414   2.602 -0.8897  0.0392  0.5631
 4953SOL     OW26836   7.259   9.978   2.379  0.1328  0.6261  0.3911
 4953SOL    HW126837   7.288  10.069   2.380  0.8334  0.4146  2.1826
 4953SOL    HW226838   7.264   9.950   2.470 -1.0186 -0.9243  0.0195
 4954SOL     OW26839   9.375   0.864   7.775 -0.0896  0.0506 -0.5245
 4954SOL    HW126840   9.287   0.829   7.784 -1.0822  1.9740 -1.9001
 4954SOL    HW226841   9.417   0.808   7.710 -0.3705 -0.7282 -0.0404
 4955SOL     OW26842   5.209   7.572   2.879  0.3134  0.2630 -0.2610
 4955SOL    HW126843   5.168   7.646   2.924 -0.5111 -0.1691 -0.2848
 4955SOL    HW226844   5.291   7.558   2.926 -0.0318  0.5049  0.4314
 4956SOL     OW26845   9.059   6.388   3.476  0.0004 -0.0356 -0.1592
 4956SOL    HW126846   9.004   6.398   3.554  1.2510 -0.2168  0.7694
 4956SOL    HW226847   9.062   6.475   3.437 -0.0256  0.2221  0.4105
 4957SOL     OW26848   3.409   9.056   3.776 -0.1918  0.2623 -0.5309
 4957SOL    HW126849   3.483   9.107   3.740  0.8748 -0.8280  0.0421
 4957SOL    HW226850   3.437   9.033   3.864 -1.7193  0.7602  0.1133
 4958SOL     OW26851   8.812   0.809   0.533 -0.4311 -0.2555  0.2886
 4958SOL    HW126852   8.868   0.749   0.485  0.3940  0.3335  0.4977
 4958SOL    HW226853   8.867   0.843   0.604 -1.1028  0.1963  0.6132
 4959SOL     OW26854   9.120   9.821   6.307 -0.5972  0.2069 -0.0314
 4959SOL    HW126855   9.101   9.915   6.302  0.1679  0.3512 -0.2879
 4959SOL    HW226856   9.148   9.807   6.398 -1.3091  0.1041  0.1809
 4960SOL     OW26857   2.544   8.887   8.805  0.6497 -0.0523 -0.1399
 4960SOL    HW126858   2.537   8.982   8.807 -0.9899 -0.1337 -0.5058
 4960SOL    HW226859   2.624   8.870   8.755  0.8491  1.1100 -0.2532
 4961SOL     OW26860   7.460   5.859   7.359  0.8251  0.0898  0.4609
 4961SOL    HW126861   7.455   5.815   7.444 -0.1780 -0.2335  0.2460
 4961SOL    HW226862   7.418   5.799   7.298  0.6881  0.7369 -0.0965
 4962SOL     OW26863   4.275   7.325   2.158  0.2203  0.1821 -0.1839
 4962SOL    HW126864   4.230   7.408   2.173 -2.0902 -0.7977 -1.2249
 4962SOL    HW226865   4.354   7.348   2.110  0.5063  1.9131  1.0396
 4963SOL     OW26866   9.220   6.959   9.814 -0.1560 -0.3729 -0.5255
 4963SOL    HW126867   9.150   6.894   9.815 -0.2833 -0.2384  0.4807
 4963SOL    HW226868   9.273   6.939   9.892  0.2779  0.2228 -0.6595
 4964SOL     OW26869   3.015   4.210   4.306  0.4276  0.1632  0.4266
 4964SOL    HW126870   3.053   4.126   4.334  0.4612  0.3462  0.9417
 4964SOL    HW226871   2.925   4.188   4.281 -0.0138  0.1840  1.8753
 4965SOL     OW26872   4.962   2.065   0.195 -0.2162 -0.0834 -0.7288
 4965SOL    HW126873   4.879   2.033   0.160 -1.0203  1.9727 -0.8265
 4965SOL    HW226874   5.018   2.075   0.118 -1.2892  2.4344 -1.2757
 4966SOL     OW26875   1.335   0.512   6.506  0.9744 -0.2554  0.1721
 4966SOL    HW126876   1.387   0.472   6.576 -0.1390 -1.8682  0.1366
 4966SOL    HW226877   1.388   0.501   6.427  2.2522  1.6000  0.6939
 4967SOL     OW26878   5.758   9.436   6.125  0.0093 -0.1729  0.1249
 4967SOL    HW126879   5.745   9.441   6.030  1.8581 -2.1516 -0.2959
 4967SOL    HW226880   5.743   9.526   6.155 -0.1961  0.6009 -2.0787
 4968SOL     OW26881   8.156   6.936   9.622  0.0863  0.6951  0.3150
 4968SOL    HW126882   8.154   6.850   9.581  3.8812  0.4025  0.4091
 4968SOL    HW226883   8.108   6.924   9.705 -1.2056 -0.6988 -0.5760
 4969SOL     OW26884   9.431   6.823   7.015 -0.0138  0.1601  0.0561
 4969SOL    HW126885   9.364   6.885   7.042 -0.8996  0.0618 -1.7497
 4969SOL    HW226886   9.394   6.737   7.033 -0.0880  0.1161 -0.2963
 4970SOL     OW26887   5.828   3.213   2.081 -0.3036  0.2497  0.3164
 4970SOL    HW126888   5.827   3.250   2.170 -1.1958  0.8552  0.0584
 4970SOL    HW226889   5.762   3.262   2.033  0.0733 -0.1689 -0.6594
 4971SOL     OW26890   0.654   5.806   2.699  0.3372  0.1867 -0.1759
 4971SOL    HW126891   0.592   5.738   2.671  1.1697  0.1433 -2.0499
 4971SOL    HW226892   0.695   5.770   2.778  0.5481 -1.3859 -0.9651
 4972SOL     OW26893   7.648   5.188   8.593  0.1352  0.1791 -0.3493
 4972SOL    HW126894   7.703   5.258   8.628  0.1388 -0.1077  0.2337
 4972SOL    HW226895   7.559   5.214   8.615  0.0198  0.6875 -1.3714
 4973SOL     OW26896  10.037   0.822   2.048 -0.0660  0.2935 -0.0176
 4973SOL    HW126897  10.047   0.741   1.998 -0.9149 -0.8963  1.6157
 4973SOL    HW226898  10.020   0.889   1.982  1.3134 -0.7203 -1.4655
 4974SOL     OW26899   1.726   9.238   6.306 -0.1692  0.3754  0.6464
 4974SOL    HW126900   1.665   9.214   6.237  0.0435  2.0985 -0.2026
 4974SOL    HW226901   1.736   9.158   6.359 -1.7766 -0.4289 -0.2041
 4975SOL     OW26902   6.354   2.522   7.889  0.7559  0.0763  0.1112
 4975SOL    HW126903   6.445   2.490   7.885  0.6451 -0.1066 -2.8592
 4975SOL    HW226904   6.334   2.549   7.800 -1.4349  2.2071  1.1485
 4976SOL     OW26905   0.317   8.968   9.210 -0.4052 -0.0826  0.5254
 4976SOL    HW126906   0.337   8.916   9.132 -0.3344  1.0828 -0.2574
 4976SOL    HW226907   0.401   8.981   9.253  0.2712  2.6291 -1.3821
 4977SOL     OW26908   5.356   3.051   5.443  0.5603 -0.7884  0.4070
 4977SOL    HW126909   5.344   3.129   5.389  1.3424  0.2775  1.6944
 4977SOL    HW226910   5.298   2.986   5.404  1.2301 -0.1491 -1.8071
 4978SOL     OW26911   1.204   0.967   2.267 -0.1344  0.3818 -0.3864
 4978SOL    HW126912   1.291   0.966   2.225 -0.5468  0.2957 -1.2691
 4978SOL    HW226913   1.210   0.899   2.334  0.0808 -0.5475 -1.3091
 4979SOL     OW26914   7.516   0.719   5.552 -0.5137  0.1020  0.2312
 4979SOL    HW126915   7.534   0.679   5.467 -2.0013 -0.8610  0.3367
 4979SOL    HW226916   7.602   0.747   5.583  0.2997 -1.0728 -0.8337
 4980SOL     OW26917   0.762   2.690   6.204  0.1555  0.0239  0.3477
 4980SOL    HW126918   0.757   2.711   6.297  0.2159  0.9903  0.1360
 4980SOL    HW226919   0.855   2.698   6.183 -0.0372  1.1429 -0.0997
 4981SOL     OW26920   8.073   6.267   5.506  0.6761  0.0287  0.7521
 4981SOL    HW126921   8.023   6.348   5.490  2.2495  1.0640  0.8704
 4981SOL    HW226922   8.100   6.238   5.419  2.3556  1.1456  0.8588
 4982SOL     OW26923   0.917   5.224   5.747  0.3426 -0.4380  0.3865
 4982SOL    HW126924   0.897   5.306   5.701 -1.4358 -1.0904 -0.0904
 4982SOL    HW226925   0.998   5.193   5.707 -0.7973 -0.6526 -1.9171
 4983SOL     OW26926   2.525   7.658   2.874 -0.3351  0.3748 -0.8142
 4983SOL    HW126927   2.551   7.721   2.807 -1.4122 -0.6682 -2.2648
 4983SOL    HW226928   2.457   7.703   2.925 -0.3610  0.7502 -1.1824
 4984SOL     OW26929   1.372   5.313   1.198 -0.2326 -0.3389 -0.2258
 4984SOL    HW126930   1.366   5.319   1.293  1.0273 -0.6246 -0.1115
 4984SOL    HW226931   1.466   5.318   1.179 -0.5143  0.5730 -1.5169
 4985SOL     OW26932   1.372   5.228   4.215 -0.1641 -0.6423  0.2676
 4985SOL    HW126933   1.296   5.177   4.242  0.2555 -0.2587  2.2757
 4985SOL    HW226934   1.447   5.178   4.245  0.4013 -0.7511 -1.2268
 4986SOL     OW26935   6.501   5.824   8.347 -0.2062 -0.0075  0.5610
 4986SOL    HW126936   6.563   5.879   8.299 -2.5377 -0.6720 -3.6659
 4986SOL    HW226937   6.554   5.750   8.377  1.6281  1.0098  0.0025
 4987SOL     OW26938   2.953   3.936   1.642 -0.2176  0.1077  0.2405
 4987SOL    HW126939   2.943   3.859   1.586  1.7830 -0.2097  0.2196
 4987SOL    HW226940   3.042   3.928   1.676  0.3984  2.9004 -0.4981
 4988SOL     OW26941   2.733   8.456   1.486 -0.3636  0.3708 -0.1396
 4988SOL    HW126942   2.719   8.386   1.550  0.5515  0.7206  0.4607
 4988SOL    HW226943   2.821   8.439   1.451 -0.1642  1.1703 -0.0439
 4989SOL     OW26944   1.397   4.724   9.377  0.6079  0.0971  0.6325
 4989SOL    HW126945   1.335   4.789   9.411 -0.0183 -0.4045  0.4653
 4989SOL    HW226946   1.426   4.759   9.293 -0.1564 -0.0970  0.2799
 4990SOL     OW26947   9.652   4.594   4.783 -0.5691 -0.1840 -0.5059
 4990SOL    HW126948   9.719   4.555   4.727  1.0560  0.2990  1.0321
 4990SOL    HW226949   9.683   4.579   4.872 -0.7032  3.0819  0.2227
 4991SOL     OW26950   9.433   0.781   4.371  0.0703 -0.0393  0.4094
 4991SOL    HW126951   9.407   0.872   4.358 -1.0979 -0.4664 -0.4280
 4991SOL    HW226952   9.418   0.739   4.287 -0.7046 -1.2970  1.1388
 4992SOL     OW26953   0.861   0.543   7.160 -0.5605  0.3584 -0.3891
 4992SOL    HW126954   0.838   0.470   7.102  1.4792 -0.6393 -0.0187
 4992SOL    HW226955   0.777   0.572   7.196 -1.6473 -0.3366 -2.2427
 4993SOL     OW26956   3.240   1.977   9.116  0.8009 -0.2030 -0.3468
 4993SOL    HW126957   3.145   1.969   9.120  0.7476  0.0651 -0.9468
 4993SOL    HW226958   3.271   1.931   9.194  0.1813 -0.2656 -0.1280
 4994SOL     OW26959   2.932   2.822   2.927 -0.4461  0.3005  0.0975
 4994SOL    HW126960   2.879   2.876   2.985 -0.9899  0.2369 -0.3291
 4994SOL    HW226961   2.913   2.855   2.839  0.2411  0.2908 -0.0621
 4995SOL     OW26962   9.174   8.574   4.358 -0.0077  0.2815 -0.1722
 4995SOL    HW126963   9.242   8.576   4.424 -0.0711  0.4305 -0.1097
 4995SOL    HW226964   9.193   8.650   4.302 -0.3980  0.6043  0.1252
 4996SOL     OW26965   4.564   2.095   6.435  0.1052 -0.4668  0.1916
 4996SOL    HW126966   4.578   2.008   6.471 -0.7652 -0.9145 -0.5247
 4996SOL    HW226967   4.526   2.080   6.348  1.8112  0.5756 -0.8084
 4997SOL     OW26968   6.017   3.221   2.678 -0.0411 -0.7013  0.0335
 4997SOL    HW126969   6.023   3.136   2.635 -1.6774 -0.2418 -1.2208
 4997SOL    HW226970   6.082   3.275   2.634 -0.4856 -0.7239 -0.6630
 4998SOL     OW26971   2.101   2.599   7.938 -0.0719  0.6948 -0.2186
 4998SOL    HW126972   2.135   2.537   8.003  2.3192  1.6722 -0.4233
 4998SOL    HW226973   2.007   2.582   7.936  0.2698 -1.9058  0.7777
 4999SOL     OW26974   5.119   1.754   9.436  0.4364  0.2240 -0.4936
 4999SOL    HW126975   5.075   1.743   9.520  0.7132 -0.0522 -0.3855
 4999SOL    HW226976   5.194   1.694   9.439 -1.3632 -2.3744 -2.2031
 5000SOL     OW26977   9.992   7.302   6.845  0.8273  0.1948 -0.3676
 5000SOL    HW126978   9.997   7.292   6.750 -0.2299  1.7427 -0.6304
 5000SOL    HW226979   9.899   7.315   6.863  1.1936  1.7574  0.6325
 5001SOL     OW26980   8.809   5.057   9.328 -0.3331 -0.0884 -1.0303
 5001SOL    HW126981   8.900   5.046   9.356 -0.8762 -2.1189  0.1635
 5001SOL    HW226982   8.815   5.090   9.238  1.5143  3.0718  0.0685
 5002SOL     OW26983   5.814   6.014   7.132  0.5211 -0.0106 -0.1740
 5002SOL    HW126984   5.867   6.038   7.056  1.5265 -0.8922  0.2061
 5002SOL    HW226985   5.879   6.001   7.202 -0.4086  1.1632  0.9457
 5003SOL     OW26986   4.705   0.783   4.264 -0.0766 -0.0119  0.1091
 5003SOL    HW126987   4.733   0.862   4.311 -1.3096  0.2907  0.3615
 5003SOL    HW226988   4.635   0.746   4.318 -0.6283 -0.3772 -0.8352
 5004SOL     OW26989   6.285   7.314   7.653  0.1272 -0.2468 -0.0683
 5004SOL    HW126990   6.350   7.252   7.620  0.0151 -0.8960  0.9117
 5004SOL    HW226991   6.331   7.367   7.718  0.5941  1.6480 -1.8176
 5005SOL     OW26992   9.946   8.645   8.677  0.5920  1.0371  0.4060
 5005SOL    HW126993   9.961   8.557   8.710 -0.5360  0.8714  0.5352
 5005SOL    HW226994  10.014   8.658   8.611  0.2546 -0.2731 -0.2372
 5006SOL     OW26995   4.675   5.344   8.367  0.3020 -0.2796  0.4533
 5006SOL    HW126996   4.743   5.384   8.312  0.9113 -1.9993 -0.1209
 5006SOL    HW226997   4.625   5.288   8.307  0.3827 -1.4503  1.4302
 5007SOL     OW26998   5.591   9.012  10.031 -0.7247  0.4122  0.1148
 5007SOL    HW126999   5.611   9.100  10.063 -0.1535  0.1821  0.4111
 5007SOL    HW227000   5.646   8.954  10.085 -1.5919 -0.1788  0.3769
 5008SOL     OW27001   0.408   1.780   0.017  0.3518  0.1852  0.4794
 5008SOL    HW127002   0.334   1.745  -0.033  0.0001  1.0583  0.3703
 5008SOL    HW227003   0.429   1.711   0.080 -0.0919 -0.3614  0.0427
 5009SOL     OW27004   0.903   0.332   9.451 -0.3248  0.0492 -0.1906
 5009SOL    HW127005   0.905   0.276   9.374 -0.8562 -0.4541  0.1591
 5009SOL    HW227006   0.828   0.390   9.437 -0.3718  0.0130 -0.0917
 5010SOL     OW27007   6.161   5.440   6.086  0.1619  0.5120 -0.0856
 5010SOL    HW127008   6.087   5.380   6.092  0.5931  0.0632  1.0258
 5010SOL    HW227009   6.125   5.519   6.047 -1.0815  0.5576  1.1120
 5011SOL     OW27010   0.861   4.751   2.700  0.3589  0.3855  0.1109
 5011SOL    HW127011   0.943   4.722   2.739 -0.3341  0.5479  1.7473
 5011SOL    HW227012   0.794   4.696   2.741 -0.3009 -0.3142 -1.7991
 5012SOL     OW27013   4.364   9.387   0.278  0.2492 -0.4856  0.5236
 5012SOL    HW127014   4.360   9.303   0.324 -0.4191 -0.2354  0.9354
 5012SOL    HW227015   4.456   9.397   0.253  0.4478 -1.0421  1.0232
 5013SOL     OW27016   3.481   1.122   9.340  0.0641  0.1301  0.0726
 5013SOL    HW127017   3.490   1.098   9.432  1.0946 -1.5619 -0.4394
 5013SOL    HW227018   3.414   1.062   9.306  1.1229 -0.6157 -0.7349
 5014SOL     OW27019   4.271  10.318   7.113  0.2119  0.2283 -0.0194
 5014SOL    HW127020   4.283  10.223   7.108  0.8153  0.3134 -0.3582
 5014SOL    HW227021   4.337  10.347   7.176  2.5446  0.8050 -2.5031
 5015SOL     OW27022   6.211   9.785   1.713  0.1103  0.3318  0.1060
 5015SOL    HW127023   6.228   9.824   1.627  0.4106 -0.8725 -0.3947
 5015SOL    HW227024   6.248   9.697   1.707  0.5655  0.3978  1.6340
 5016SOL     OW27025   2.840  10.030   6.570  0.3346  0.2755 -1.0653
 5016SOL    HW127026   2.822  10.083   6.648 -2.0621 -0.7108 -0.8357
 5016SOL    HW227027   2.865  10.093   6.503 -0.7545  1.5248 -0.3486
 5017SOL     OW27028   3.749  10.194   4.200  0.4054  0.0170 -0.3170
 5017SOL    HW127029   3.746  10.256   4.272  1.0715 -0.3178  0.0078
 5017SOL    HW227030   3.807  10.124   4.230 -0.9788 -1.1941 -0.3536
 5018SOL     OW27031   8.225   0.331   3.495  0.6355 -0.2872  0.1618
 5018SOL    HW127032   8.252   0.291   3.577  2.3771  0.9115  0.2244
 5018SOL    HW227033   8.306   0.365   3.457 -0.2698  0.0484 -1.5832
 5019SOL     OW27034   4.802   8.792   6.741 -0.2173  0.0196  0.1800
 5019SOL    HW127035   4.809   8.887   6.753 -0.7257  0.0053  0.6442
 5019SOL    HW227036   4.763   8.782   6.654 -1.9207  0.2988  0.8820
 5020SOL     OW27037   6.052   7.970   2.856 -0.2068 -0.0691  0.4311
 5020SOL    HW127038   5.999   8.039   2.815  0.2182 -0.0790 -0.1286
 5020SOL    HW227039   6.117   8.018   2.908  1.6569  0.0307 -1.8662
 5021SOL     OW27040   7.440   2.553   3.504 -0.1235 -0.1332 -0.1414
 5021SOL    HW127041   7.477   2.640   3.517  2.2566 -0.8756 -1.2312
 5021SOL    HW227042   7.444   2.512   3.591  1.6154 -0.1251 -0.1735
 5022SOL     OW27043   1.080   5.795   4.241  0.6694 -0.0228 -0.4575
 5022SOL    HW127044   1.050   5.709   4.210 -1.9843  0.3579  0.7019
 5022SOL    HW227045   1.146   5.774   4.308  0.0422 -1.1987 -0.1659
 5023SOL     OW27046   5.730   0.174   5.439 -0.0179  0.2647  0.0943
 5023SOL    HW127047   5.676   0.136   5.508 -0.5510  0.3265 -0.2855
 5023SOL    HW227048   5.820   0.163   5.471 -0.1862 -0.8199  0.2390
 5024SOL     OW27049   9.517   2.396   9.233 -0.3417  0.1153 -0.0294
 5024SOL    HW127050   9.545   2.383   9.143 -1.4525 -1.0082 -0.2294
 5024SOL    HW227051   9.457   2.324   9.251  0.4705 -0.1599  1.8738
 5025SOL     OW27052   4.232   4.450   7.489 -0.3147  0.1711 -0.0314
 5025SOL    HW127053   4.276   4.534   7.474 -1.1575  0.5475 -0.4207
 5025SOL    HW227054   4.254   4.427   7.580  1.5305 -0.1606 -0.5050
 5026SOL     OW27055   5.677   6.907   9.133  0.0717  0.1701  0.0629
 5026SOL    HW127056   5.667   6.847   9.059  0.7362  0.0103  0.0950
 5026SOL    HW227057   5.690   6.993   9.093  0.9039  0.0106 -0.0214
 5027SOL     OW27058   0.710   1.272   7.822 -0.4140  0.0452 -0.2778
 5027SOL    HW127059   0.683   1.247   7.910  0.8511 -3.1922 -0.6515
 5027SOL    HW227060   0.638   1.244   7.766 -1.0392  1.7224 -0.3491
 5028SOL     OW27061   0.252   5.673   6.715 -0.2725 -0.1405  0.0006
 5028SOL    HW127062   0.195   5.748   6.695 -0.4736 -0.8904 -2.6093
 5028SOL    HW227063   0.207   5.627   6.785 -2.0982  0.1692 -0.9078
 5029SOL     OW27064   4.743   9.402   7.662 -0.2457  0.6235 -0.3573
 5029SOL    HW127065   4.703   9.378   7.579  0.1370 -1.5384  0.0375
 5029SOL    HW227066   4.827   9.440   7.639 -0.6723  1.2062 -0.9885
 5030SOL     OW27067   4.924   4.744   3.379  0.1091  0.7034  0.2504
 5030SOL    HW127068   4.920   4.740   3.283 -2.4105 -0.3203  0.3244
 5030SOL    HW227069   4.968   4.663   3.404 -0.3565  0.3681 -0.0082
 5031SOL     OW27070   8.397   1.411   6.989  0.1904 -0.1466  0.7106
 5031SOL    HW127071   8.409   1.351   7.062 -0.1850 -1.6103 -0.3759
 5031SOL    HW227072   8.416   1.358   6.911 -0.9304  0.9077 -0.3298
 5032SOL     OW27073   0.413   4.060   9.287  0.2114  0.3997  0.3368
 5032SOL    HW127074   0.436   4.011   9.208 -0.4693  0.2206  0.2380
 5032SOL    HW227075   0.418   3.996   9.357  1.2459  0.6613  0.5173
 5033SOL     OW27076   5.639   8.174   8.561  0.0796 -0.1170  0.0948
 5033SOL    HW127077   5.544   8.164   8.563 -0.1187  1.4363 -0.5418
 5033SOL    HW227078   5.671   8.089   8.530 -0.9975 -1.0567  1.4313
 5034SOL     OW27079   3.817   1.940   1.885  0.1187 -0.6082  0.0196
 5034SOL    HW127080   3.862   1.873   1.936  1.0208  0.1946  0.3203
 5034SOL    HW227081   3.792   1.897   1.803 -0.0821 -1.5263  0.5560
 5035SOL     OW27082   3.465   0.974   2.935  0.0421 -0.2620  0.1081
 5035SOL    HW127083   3.527   1.024   2.881  0.3050  0.7286  1.2911
 5035SOL    HW227084   3.404   0.936   2.871  0.3745  0.8258 -0.8988
 5036SOL     OW27085   6.995   8.804   8.561 -0.1407  0.4862  0.0333
 5036SOL    HW127086   7.042   8.857   8.496  0.2995  0.3179  0.2133
 5036SOL    HW227087   7.017   8.844   8.645 -0.5052  0.5465  0.1000
 5037SOL     OW27088   3.529   5.860   5.842  0.6021  0.1598 -0.2725
 5037SOL    HW127089   3.506   5.953   5.844  2.8600  0.7730  1.2368
 5037SOL    HW227090   3.491   5.824   5.922 -2.4525 -0.8957 -2.0701
 5038SOL     OW27091   7.939   1.892   7.099  0.3819  0.0428 -0.6469
 5038SOL    HW127092   7.877   1.956   7.064 -1.3149 -1.7132 -1.0640
 5038SOL    HW227093   7.895   1.856   7.176  1.7687  0.1225  0.2018
 5039SOL     OW27094   8.786   1.540   9.422  0.1195  0.0083  0.0229
 5039SOL    HW127095   8.846   1.465   9.424 -1.0342 -0.9385  1.6379
 5039SOL    HW227096   8.824   1.602   9.486  0.1360  0.0293 -0.0073
 5040SOL     OW27097   8.644   1.950   9.457  0.3788 -0.1462 -0.0914
 5040SOL    HW127098   8.633   1.869   9.506  1.3010  0.5896  1.4170
 5040SOL    HW227099   8.700   1.927   9.383 -0.2874 -1.0974 -0.3132
 5041SOL     OW27100   6.255   9.879   5.812  0.5830 -0.4667  0.2302
 5041SOL    HW127101   6.238   9.963   5.768 -0.5277 -0.1380  1.2369
 5041SOL    HW227102   6.294   9.825   5.744 -1.1586  0.0046 -1.2451
 5042SOL     OW27103   6.125   2.269   8.757  0.1381  0.5781  0.8223
 5042SOL    HW127104   6.074   2.218   8.695  1.2141  0.9196 -0.3964
 5042SOL    HW227105   6.138   2.211   8.831  0.2529 -0.4636  0.0083
 5043SOL     OW27106   3.479   3.006   5.030 -0.2762  0.8020  0.1642
 5043SOL    HW127107   3.524   3.071   4.978  0.9176  0.3052  0.5391
 5043SOL    HW227108   3.424   2.958   4.967  1.2994  0.0647 -0.7095
 5044SOL     OW27109   3.635   3.502   7.496  0.0492 -0.0640 -0.0469
 5044SOL    HW127110   3.633   3.407   7.495  0.1582 -0.1207  1.6601
 5044SOL    HW227111   3.544   3.528   7.479  0.0972 -0.4455 -0.9317
 5045SOL     OW27112   7.966   7.914   3.296 -1.0618 -0.2855  0.1314
 5045SOL    HW127113   7.987   7.935   3.387 -0.2907  0.6311 -0.2437
 5045SOL    HW227114   8.042   7.865   3.265 -0.9759  0.0840 -0.2470
 5046SOL     OW27115   2.323   5.808   6.469 -0.1970 -0.5964 -0.7133
 5046SOL    HW127116   2.353   5.887   6.423 -0.5138  0.3571  0.6447
 5046SOL    HW227117   2.228   5.806   6.454 -0.8119  1.3254  2.0705
 5047SOL     OW27118   0.671   1.265  10.172 -0.2482 -0.8137  0.1171
 5047SOL    HW127119   0.638   1.283  10.260 -0.8217 -0.0606 -0.2462
 5047SOL    HW227120   0.753   1.217  10.187  0.5729  0.8075  1.0958
 5048SOL     OW27121   6.750   3.558   7.539 -0.6192  0.6534  0.6724
 5048SOL    HW127122   6.767   3.515   7.623 -1.5022 -1.0076  0.0329
 5048SOL    HW227123   6.837   3.565   7.498 -0.5754 -1.9416  0.1604
 5049SOL     OW27124  10.289   3.127   8.734 -0.1358  0.1901 -1.0052
 5049SOL    HW127125  10.267   3.155   8.645 -0.1964  0.4888 -0.8966
 5049SOL    HW227126  10.384   3.135   8.740 -0.0640 -0.4403 -1.2492
 5050SOL     OW27127   4.093   8.759   7.732  0.1386  0.0905 -0.0900
 5050SOL    HW127128   4.142   8.686   7.769 -0.1321  0.9063  2.0863
 5050SOL    HW227129   4.154   8.833   7.735  0.5356 -0.0776 -2.6118
 5051SOL     OW27130   4.796   8.179   7.908 -0.9838 -0.0758  0.1220
 5051SOL    HW127131   4.720   8.133   7.872 -1.1387 -0.5998  1.0927
 5051SOL    HW227132   4.871   8.140   7.862 -1.0813 -1.6028  1.2055
 5052SOL     OW27133   1.981   1.568   2.186 -0.1817  0.5588  0.1272
 5052SOL    HW127134   1.980   1.633   2.117 -0.1970  1.2715  0.7852
 5052SOL    HW227135   1.937   1.610   2.260 -0.5826 -0.3523  0.4250
 5053SOL     OW27136   1.490   0.989   1.148  0.4069  0.5196  0.4281
 5053SOL    HW127137   1.471   0.968   1.056 -1.9308  0.0030  0.9564
 5053SOL    HW227138   1.427   1.059   1.170 -1.2676 -1.4513  2.4097
 5054SOL     OW27139   6.662   7.566   6.121  0.0383  0.1024  0.6867
 5054SOL    HW127140   6.722   7.582   6.049  0.1092 -1.8569  0.2440
 5054SOL    HW227141   6.696   7.487   6.163 -1.9115 -0.7531  0.7509
 5055SOL     OW27142   8.432   8.837   7.911 -0.1721  0.0560  0.1448
 5055SOL    HW127143   8.408   8.758   7.863 -1.2875  1.0215 -0.9413
 5055SOL    HW227144   8.523   8.822   7.938 -0.5754 -1.8898  0.6146
 5056SOL     OW27145   6.160   6.133   6.527  0.4026  0.2359 -0.3784
 5056SOL    HW127146   6.082   6.084   6.548  1.9012 -2.0429  0.2164
 5056SOL    HW227147   6.198   6.157   6.612  1.3509 -0.4149 -0.5979
 5057SOL     OW27148   2.360   8.081   9.758 -0.0175 -0.8796  0.1137
 5057SOL    HW127149   2.305   8.018   9.806  1.9480 -2.0969  0.8833
 5057SOL    HW227150   2.360   8.159   9.813 -2.8826  0.1072 -1.0828
 5058SOL     OW27151   1.894   4.165   7.508  0.5954 -0.2047  0.0649
 5058SOL    HW127152   1.894   4.075   7.542 -1.6300 -0.0858  0.5496
 5058SOL    HW227153   1.900   4.220   7.586 -0.2894  0.0514 -0.0340
 5059SOL     OW27154   4.441   8.483   3.614  0.2242 -0.0598  0.4434
 5059SOL    HW127155   4.430   8.436   3.696  1.9570  1.3608  1.5632
 5059SOL    HW227156   4.472   8.417   3.552  1.4749 -0.6481  1.6552
 5060SOL     OW27157  10.025   9.471   7.567  0.0215 -0.5980 -0.3691
 5060SOL    HW127158  10.027   9.394   7.624  2.7764  1.1513  2.1932
 5060SOL    HW227159   9.945   9.517   7.593 -0.4100 -1.4067 -0.2304
 5061SOL     OW27160   1.734   2.324   9.618  0.2761  0.0374  0.3828
 5061SOL    HW127161   1.826   2.313   9.596  0.6397  2.0184  0.6720
 5061SOL    HW227162   1.712   2.411   9.585 -2.3273 -1.4584 -2.2527
 5062SOL     OW27163   6.473   6.290   7.960 -0.3697 -0.6661 -0.1948
 5062SOL    HW127164   6.391   6.324   7.997  0.4859  1.9358 -0.5008
 5062SOL    HW227165   6.529   6.274   8.036 -0.5680 -0.8415 -0.0836
 5063SOL     OW27166   2.100   1.862   9.601 -0.0423  0.4108  0.4323
 5063SOL    HW127167   2.030   1.892   9.659 -0.3237  0.5384  0.0320
 5063SOL    HW227168   2.168   1.930   9.609  1.2585 -1.0673  2.9402
 5064SOL     OW27169   6.800   3.456   8.683 -0.3401 -0.2959 -0.6392
 5064SOL    HW127170   6.740   3.392   8.719 -1.9363  1.5231  0.0852
 5064SOL    HW227171   6.774   3.539   8.723  2.0855  0.7203 -0.9898
 5065SOL     OW27172   2.709   4.947   7.847 -0.1856  0.0779 -0.1191
 5065SOL    HW127173   2.719   5.036   7.880  0.6648  0.1111 -0.4278
 5065SOL    HW227174   2.616   4.929   7.854 -0.1319  0.3334  1.6263
 5066SOL     OW27175   4.778   3.222   4.724  0.4513 -0.0855 -0.2458
 5066SOL    HW127176   4.689   3.220   4.759  0.5210 -1.8619 -0.1154
 5066SOL    HW227177   4.829   3.267   4.792 -0.1682  0.1222  0.0904
 5067SOL     OW27178   1.385   3.570   5.399  0.0223 -0.2002 -0.5684
 5067SOL    HW127179   1.436   3.584   5.319 -0.6463  1.7819 -0.7031
 5067SOL    HW227180   1.303   3.532   5.368 -0.4045  0.9598 -0.8886
 5068SOL     OW27181   3.841   3.440   1.789 -0.4213 -0.2589 -0.3089
 5068SOL    HW127182   3.780   3.366   1.791  0.0677 -0.6935 -0.9870
 5068SOL    HW227183   3.787   3.515   1.762 -0.3215 -1.0250 -2.9062
 5069SOL     OW27184   3.690   7.744   2.803 -0.2085 -0.0562 -0.2634
 5069SOL    HW127185   3.759   7.809   2.796 -0.7440  0.4762 -0.6423
 5069SOL    HW227186   3.665   7.725   2.713 -1.5621  0.8415 -0.1009
 5070SOL     OW27187   6.918   8.746   6.150 -0.2805  0.2305 -0.2369
 5070SOL    HW127188   6.982   8.797   6.199 -0.2316  1.8257 -1.8338
 5070SOL    HW227189   6.957   8.659   6.143  0.2956  0.3333  1.3783
 5071SOL     OW27190   8.998   1.128   8.001 -0.1534 -0.2519  0.8095
 5071SOL    HW127191   8.916   1.124   8.050  0.1313  0.5160  1.3664
 5071SOL    HW227192   8.984   1.198   7.936 -0.1667 -0.5671  0.4695
 5072SOL     OW27193   8.672   3.036   4.815 -0.1283  0.6214 -0.2145
 5072SOL    HW127194   8.576   3.035   4.807 -0.1688  1.5853 -0.0337
 5072SOL    HW227195   8.703   3.045   4.725 -0.1220 -1.5783 -0.4767
 5073SOL     OW27196   0.415   5.623   1.158 -0.5347 -0.2452 -0.1691
 5073SOL    HW127197   0.382   5.589   1.242 -0.0983 -0.7747 -0.2016
 5073SOL    HW227198   0.388   5.557   1.094 -2.2280  0.9138 -0.7113
 5074SOL     OW27199   1.210   1.829   9.047 -0.4471  0.4603 -0.2712
 5074SOL    HW127200   1.136   1.784   9.005 -0.4380  0.4496 -0.2758
 5074SOL    HW227201   1.178   1.918   9.062 -0.6069  0.3434  0.1066
 5075SOL     OW27202   7.801   6.973   7.028  0.5194 -0.0624 -0.3278
 5075SOL    HW127203   7.783   6.944   7.117  0.0779  0.4926 -0.2295
 5075SOL    HW227204   7.796   7.069   7.032 -1.3689 -0.0684 -1.3156
 5076SOL     OW27205   9.098   7.161   3.787  0.3500 -0.6054 -0.1578
 5076SOL    HW127206   9.106   7.254   3.763 -0.1078 -0.3134  0.7566
 5076SOL    HW227207   9.039   7.161   3.862 -0.8251 -1.7891 -1.0402
 5077SOL     OW27208   6.190   6.689   6.913  0.1287 -0.0591  0.8405
 5077SOL    HW127209   6.283   6.712   6.921  0.3547 -1.1890  1.8491
 5077SOL    HW227210   6.189   6.614   6.853  0.0248 -0.7810  1.7109
 5078SOL     OW27211   4.466   9.081   9.227 -0.0674 -0.0748  0.4646
 5078SOL    HW127212   4.472   9.130   9.309 -0.9743 -0.0786  0.5391
 5078SOL    HW227213   4.546   9.104   9.180  0.3927  0.0543  1.2765
 5079SOL     OW27214   1.928   9.072   1.774 -0.2343  0.0097  0.0708
 5079SOL    HW127215   1.833   9.060   1.762 -0.3646  2.4864 -2.3525
 5079SOL    HW227216   1.968   9.001   1.725 -0.8629 -0.2172 -0.1199
 5080SOL     OW27217   7.308   0.066   9.617  0.5522  0.5410 -0.0889
 5080SOL    HW127218   7.265   0.151   9.627  0.4280  0.3825  0.8642
 5080SOL    HW227219   7.385   0.083   9.563  0.0818  1.0976 -0.5967
 5081SOL     OW27220   7.430   1.222   9.710 -0.4938 -0.2159  0.1870
 5081SOL    HW127221   7.382   1.151   9.752 -0.9377  0.9970  1.8334
 5081SOL    HW227222   7.481   1.262   9.781 -0.8512  1.5784 -0.5208
 5082SOL     OW27223   9.966   8.368   9.750  0.6329  0.1636  0.5462
 5082SOL    HW127224   9.876   8.335   9.754  0.2632  0.7413 -1.7060
 5082SOL    HW227225  10.003   8.328   9.671  1.9720  0.8334  0.8045
 5083SOL     OW27226   7.271   9.241   4.198  0.0996  0.3713  0.0908
 5083SOL    HW127227   7.187   9.286   4.212 -0.0351  1.2128 -2.8414
 5083SOL    HW227228   7.337   9.306   4.221 -0.0786  0.7290 -0.3986
 5084SOL     OW27229   7.985   8.333   5.154  0.4615 -0.0946 -0.1559
 5084SOL    HW127230   7.947   8.257   5.196 -0.4421  0.9664  1.0224
 5084SOL    HW227231   8.059   8.357   5.210  0.8117 -0.1624 -0.5821
 5085SOL     OW27232   9.867   2.441   2.587 -0.4687  0.0446 -0.0044
 5085SOL    HW127233   9.780   2.471   2.561 -0.3692  0.5099  0.1838
 5085SOL    HW227234   9.926   2.481   2.523 -0.5751 -2.2281 -1.6567
 5086SOL     OW27235   2.913   0.007  10.136  0.4328  0.4770 -0.1371
 5086SOL    HW127236   2.896  -0.062  10.072  1.5993  0.7883 -0.8112
 5086SOL    HW227237   2.888  -0.031  10.220  1.4692 -0.9406 -0.4261
 5087SOL     OW27238   5.147   8.403   7.431  0.3971  0.5956 -0.7256
 5087SOL    HW127239   5.076   8.340   7.418  0.1194  0.3380  1.6587
 5087SOL    HW227240   5.115   8.483   7.388 -0.0685 -0.2911 -2.1241
 5088SOL     OW27241   6.050   4.911   7.735 -0.8416 -0.5715  0.2318
 5088SOL    HW127242   6.118   4.849   7.761  0.0750 -0.3386 -1.4704
 5088SOL    HW227243   6.033   4.890   7.643 -0.2744  1.8460 -0.4925
 5089SOL     OW27244   0.763   7.375  10.220  0.6007  0.0160  0.8891
 5089SOL    HW127245   0.697   7.423  10.171 -0.1479 -0.7938  1.0689
 5089SOL    HW227246   0.714   7.333  10.292  1.2104 -1.0018  0.7359
 5090SOL     OW27247   1.349   1.556   2.239  0.6981  0.1264 -0.0094
 5090SOL    HW127248   1.379   1.473   2.201 -0.0971 -0.1039 -0.1530
 5090SOL    HW227249   1.328   1.536   2.330  1.9610  0.5275  0.3870
 5091SOL     OW27250   9.150   1.307   3.027 -0.2016  0.0386 -0.7356
 5091SOL    HW127251   9.225   1.366   3.018 -0.1444 -0.0012 -0.5298
 5091SOL    HW227252   9.147   1.260   2.943  0.8032 -0.8887 -0.2862
 5092SOL     OW27253   2.324   4.751   9.587  0.3076  0.1426  0.1578
 5092SOL    HW127254   2.350   4.770   9.677  2.4259 -1.7350  0.0394
 5092SOL    HW227255   2.406   4.754   9.537 -0.8778  1.6268 -1.8593
 5093SOL     OW27256   3.871   0.709   9.785 -0.3399 -0.3411 -0.1267
 5093SOL    HW127257   3.862   0.696   9.880 -2.3037 -0.6947 -0.3255
 5093SOL    HW227258   3.785   0.690   9.750  0.8480 -2.3014 -2.2639
 5094SOL     OW27259  10.030   5.708   7.760  0.0111 -1.0896 -0.2452
 5094SOL    HW127260   9.990   5.762   7.692 -1.3607 -2.8166 -0.8867
 5094SOL    HW227261  10.115   5.749   7.775 -1.0765  1.4597 -0.3928
 5095SOL     OW27262   5.608   0.439   4.604 -0.2344 -0.7530  0.4041
 5095SOL    HW127263   5.531   0.408   4.652 -1.9370  1.8564 -0.4379
 5095SOL    HW227264   5.619   0.375   4.533 -1.4863 -1.3139  0.6811
 5096SOL     OW27265   8.408   7.841   4.845 -0.4701  0.1730  0.6237
 5096SOL    HW127266   8.430   7.880   4.760  1.1654 -0.1219  0.8652
 5096SOL    HW227267   8.430   7.749   4.836  0.2707  0.2355  1.5100
 5097SOL     OW27268   1.796   1.946   3.688 -0.3315 -0.2753  0.2033
 5097SOL    HW127269   1.815   2.034   3.656  1.1670 -0.8433 -0.5586
 5097SOL    HW227270   1.733   1.960   3.759 -0.5689  1.3526 -0.2860
 5098SOL     OW27271   5.738   7.841   3.908 -0.2489 -0.0660  0.3171
 5098SOL    HW127272   5.684   7.917   3.884 -0.7505  0.5185  2.9499
 5098SOL    HW227273   5.790   7.872   3.983  1.4625 -1.5880 -0.1690
 5099SOL     OW27274   3.963   5.531   4.768  0.0163  0.2089  0.7769
 5099SOL    HW127275   3.930   5.500   4.852 -2.1087  1.6744  0.5816
 5099SOL    HW227276   3.884   5.543   4.715  1.3750 -2.2959 -2.0580
 5100SOL     OW27277   1.104   7.614   0.414  0.0736  0.5894 -0.1006
 5100SOL    HW127278   1.185   7.601   0.463  0.8142 -0.1188 -1.4651
 5100SOL    HW227279   1.037   7.623   0.482  0.7918 -2.0011  1.1051
 5101SOL     OW27280   8.434   2.809   4.350  0.0570  0.2114  0.4756
 5101SOL    HW127281   8.418   2.725   4.393  2.0166 -0.5445 -0.1606
 5101SOL    HW227282   8.347   2.846   4.337 -0.8437 -1.5881  1.0065
 5102SOL     OW27283   4.219   7.882   7.624  0.6136  0.9598  0.4062
 5102SOL    HW127284   4.226   7.814   7.691  2.4397  1.2116  0.5189
 5102SOL    HW227285   4.169   7.952   7.666 -0.1424  0.2261  0.7403
 5103SOL     OW27286   6.505   2.948   8.399  1.0603  0.1067 -0.0317
 5103SOL    HW127287   6.425   2.985   8.363  0.0127 -0.3580  1.6958
 5103SOL    HW227288   6.497   2.853   8.386  0.2767 -0.1652  1.9828
 5104SOL     OW27289   1.391   6.421   5.174 -0.1243 -0.2198  0.4218
 5104SOL    HW127290   1.412   6.339   5.219 -0.0543 -0.3610  0.1285
 5104SOL    HW227291   1.324   6.462   5.230 -0.4717 -0.6736  0.3465
 5105SOL     OW27292   6.714   1.713   8.719 -0.1735 -0.5512  0.3505
 5105SOL    HW127293   6.632   1.664   8.705 -0.3755 -0.5581  1.4633
 5105SOL    HW227294   6.693   1.802   8.690  0.5041 -1.2582 -2.6736
 5106SOL     OW27295   0.680   9.965   6.583 -0.4530  0.0721 -0.2522
 5106SOL    HW127296   0.684  10.060   6.586  1.7036  0.2438 -3.3632
 5106SOL    HW227297   0.624   9.946   6.508 -2.4851 -1.2644  1.4803
 5107SOL     OW27298   7.565   1.722   9.308 -0.2994  0.3603 -0.3940
 5107SOL    HW127299   7.607   1.641   9.337  1.7127  2.3481  2.8000
 5107SOL    HW227300   7.471   1.700   9.304  0.2869 -2.4710 -1.3335
 5108SOL     OW27301   1.527   7.033   2.462 -0.3766 -0.1423 -0.0226
 5108SOL    HW127302   1.472   6.979   2.406  0.5999 -0.0353 -1.1194
 5108SOL    HW227303   1.541   6.980   2.541 -3.0575  0.3435  0.8779
 5109SOL     OW27304   9.848   3.574   1.680  0.8315  0.3021  0.4676
 5109SOL    HW127305   9.888   3.496   1.718 -0.0747 -0.6667 -0.5026
 5109SOL    HW227306   9.901   3.593   1.603 -0.5365 -1.0243 -0.8585
 5110SOL     OW27307   2.481   2.176   2.417  0.0427 -0.8028  0.0189
 5110SOL    HW127308   2.577   2.186   2.419  0.0063  0.3771 -2.1367
 5110SOL    HW227309   2.461   2.155   2.326 -1.7751 -1.1592  0.4692
 5111SOL     OW27310   4.164   2.527   5.030 -0.1963  0.1141  0.3983
 5111SOL    HW127311   4.085   2.483   4.998 -0.2744 -0.0629  0.8362
 5111SOL    HW227312   4.229   2.512   4.961 -0.2651 -0.5629  0.4832
 5112SOL     OW27313   7.795   1.857   7.714  0.6588  0.1657  0.1188
 5112SOL    HW127314   7.771   1.940   7.674  0.4732 -0.5006 -1.2422
 5112SOL    HW227315   7.740   1.792   7.669  1.3135 -0.7685  0.6216
 5113SOL     OW27316   2.947   2.605   7.464  0.0898  0.5265  0.2326
 5113SOL    HW127317   2.931   2.564   7.549  0.9515  0.5248  0.4086
 5113SOL    HW227318   2.879   2.671   7.456  0.1914  0.7542  1.0865
 5114SOL     OW27319   2.385   7.235   8.728  0.4431  0.1857 -0.5295
 5114SOL    HW127320   2.474   7.200   8.726  0.2472 -0.4063  0.3061
 5114SOL    HW227321   2.375   7.281   8.645  1.2239 -0.5074 -1.0252
 5115SOL     OW27322   4.966   1.829   2.786 -0.6169  0.2935  0.0858
 5115SOL    HW127323   4.901   1.899   2.786 -0.2742  0.6171 -0.3078
 5115SOL    HW227324   4.932   1.765   2.724 -0.3112  0.7044 -0.5157
 5116SOL     OW27325   4.837   5.315   7.461 -0.4529  0.2553  0.2862
 5116SOL    HW127326   4.897   5.313   7.386 -0.9012 -1.0588 -0.0491
 5116SOL    HW227327   4.894   5.301   7.537 -0.1148  0.7209  0.1252
 5117SOL     OW27328   2.832   6.639   2.536 -0.4193  0.1644  0.4634
 5117SOL    HW127329   2.756   6.597   2.578 -0.4121  0.7012  1.0331
 5117SOL    HW227330   2.830   6.729   2.569  1.4937 -0.2612  1.9155
 5118SOL     OW27331   9.335   4.648   5.361 -0.3272  0.1711  0.3542
 5118SOL    HW127332   9.320   4.554   5.366  0.3704 -0.0171 -0.8554
 5118SOL    HW227333   9.275   4.685   5.426  0.0521 -1.1609  1.5240
 5119SOL     OW27334  10.262   1.336   6.868 -0.3858  0.1529 -0.0262
 5119SOL    HW127335  10.306   1.380   6.795 -0.6662 -0.5247 -0.6127
 5119SOL    HW227336  10.181   1.301   6.830 -0.4842 -0.3007  0.5892
 5120SOL     OW27337   6.321   8.136   2.602 -1.2146  0.0119 -0.0553
 5120SOL    HW127338   6.311   8.219   2.555  1.7678  1.0381  0.8560
 5120SOL    HW227339   6.359   8.077   2.537  2.2236  1.2243  0.5856
 5121SOL     OW27340   8.913   3.519   3.973  0.1665 -0.4277  0.1487
 5121SOL    HW127341   9.004   3.545   3.987  0.2846 -0.8846  0.2322
 5121SOL    HW227342   8.907   3.503   3.879 -0.4479  1.9565 -0.2961
 5122SOL     OW27343   2.809   3.251   8.036  0.3204  0.1854 -0.3631
 5122SOL    HW127344   2.849   3.297   7.962  0.9729 -1.8923 -1.4047
 5122SOL    HW227345   2.729   3.212   7.999  0.6620 -0.8880  0.0106
 5123SOL     OW27346   8.101   9.486   4.198  0.7266  0.7121  0.0388
 5123SOL    HW127347   8.040   9.416   4.223  2.1286 -0.2037  1.0429
 5123SOL    HW227348   8.052   9.538   4.134 -0.5488 -0.8959 -0.3863
 5124SOL     OW27349   0.555   6.651   8.347 -0.3538 -0.0606  0.2019
 5124SOL    HW127350   0.538   6.718   8.414 -1.2129 -1.4274  1.4174
 5124SOL    HW227351   0.646   6.624   8.362  0.1322  1.0670 -0.5553
 5125SOL     OW27352   3.265   7.951   8.799 -0.5584  0.5492  0.1026
 5125SOL    HW127353   3.279   7.866   8.842 -1.6969 -0.0319 -0.6293
 5125SOL    HW227354   3.318   8.012   8.850  2.1320 -0.9466 -0.6770
 5126SOL     OW27355   7.446   2.145   4.970 -0.3495 -0.0782  0.5924
 5126SOL    HW127356   7.465   2.201   5.046  0.4443  0.6468 -0.1212
 5126SOL    HW227357   7.447   2.205   4.896 -2.5360 -0.5126  0.1425
 5127SOL     OW27358   6.313   4.565   8.658  0.6671 -0.2513  0.2216
 5127SOL    HW127359   6.375   4.557   8.585  0.1054 -1.3864 -0.1535
 5127SOL    HW227360   6.350   4.635   8.713  2.9610 -1.7196  0.6910
 5128SOL     OW27361   7.762   0.741   9.620 -0.2346  0.3162  0.0388
 5128SOL    HW127362   7.796   0.655   9.646  0.1926  0.2188 -0.7925
 5128SOL    HW227363   7.786   0.799   9.692  2.8071  0.5110 -0.9799
 5129SOL     OW27364   4.312   8.749   6.034 -1.0857 -0.5432  0.4339
 5129SOL    HW127365   4.281   8.796   5.957  0.4914  0.3356  0.2961
 5129SOL    HW227366   4.284   8.658   6.020 -2.0895 -0.1120 -0.4448
 5130SOL     OW27367   7.043   3.247   5.522 -0.3840 -0.3607  0.3784
 5130SOL    HW127368   7.119   3.283   5.478  0.0316 -1.8447 -0.1705
 5130SOL    HW227369   7.068   3.243   5.615 -0.2792  0.3419  0.3814
 5131SOL     OW27370   7.266   2.196   6.300  0.1807  0.6192  0.3612
 5131SOL    HW127371   7.341   2.255   6.301  0.0042  0.8438  0.5041
 5131SOL    HW227372   7.305   2.108   6.297  0.4407  0.7526 -1.3906
 5132SOL     OW27373   9.742   7.053   0.877 -1.1082 -0.6530  0.0977
 5132SOL    HW127374   9.790   6.972   0.893  0.4761  0.2014 -0.1651
 5132SOL    HW227375   9.808   7.115   0.848 -2.1597  0.9883  1.0740
 5133SOL     OW27376   7.140   0.297   3.168 -0.1713  0.1406  0.1068
 5133SOL    HW127377   7.116   0.339   3.086  2.1816 -0.0959 -0.7660
 5133SOL    HW227378   7.161   0.369   3.227  1.6712  0.2890 -0.6831
 5134SOL     OW27379   0.199   8.299   9.825 -0.3622  0.8932  0.0344
 5134SOL    HW127380   0.233   8.216   9.791  0.3883  1.1048  0.2436
 5134SOL    HW227381   0.258   8.320   9.898 -0.9874  1.2473  0.4437
 5135SOL     OW27382   0.824   5.262   2.485  0.0174  0.2660  0.5141
 5135SOL    HW127383   0.809   5.294   2.574  0.0276 -1.9638  1.3707
 5135SOL    HW227384   0.754   5.301   2.433  0.1556  1.7999  1.4172
 5136SOL     OW27385   1.165   1.065   0.188  0.2672 -0.1357  0.0190
 5136SOL    HW127386   1.234   1.021   0.137 -1.9667 -3.6174 -0.3176
 5136SOL    HW227387   1.124   1.126   0.126  0.9659 -0.4033 -0.7244
 5137SOL     OW27388   3.161   7.245   7.093 -0.0461  0.5033  0.1070
 5137SOL    HW127389   3.171   7.258   7.187  0.7700 -1.3494  0.3247
 5137SOL    HW227390   3.142   7.151   7.084  2.0883  0.1528 -1.6830
 5138SOL     OW27391   5.397   0.196   5.281 -0.0484 -0.3490 -0.3788
 5138SOL    HW127392   5.321   0.146   5.311 -0.1439 -0.1300 -0.2506
 5138SOL    HW227393   5.469   0.134   5.286 -0.2663 -0.6369 -0.7545
 5139SOL     OW27394   4.223   0.161   8.854  0.1890  0.1906 -0.7307
 5139SOL    HW127395   4.178   0.242   8.828 -1.2315 -0.5948 -0.8086
 5139SOL    HW227396   4.230   0.167   8.949 -0.5219  0.1113 -0.6689
 5140SOL     OW27397   3.332   5.080   9.406 -0.3422 -0.2712  0.8967
 5140SOL    HW127398   3.351   5.044   9.319  0.6107 -0.2541  1.0934
 5140SOL    HW227399   3.374   5.019   9.467  2.1011  1.5790  1.2207
 5141SOL     OW27400   7.044   6.924   9.535  0.7151 -0.1909 -0.0512
 5141SOL    HW127401   7.108   6.916   9.605  1.7190  1.0949 -0.7793
 5141SOL    HW227402   7.091   6.968   9.464 -0.7590  0.1001 -0.8952
 5142SOL     OW27403   5.522   5.045   2.385 -0.0515  0.1824 -0.0401
 5142SOL    HW127404   5.589   4.976   2.384 -0.2170 -0.0536  1.8398
 5142SOL    HW227405   5.516   5.073   2.294  2.1591 -0.2158 -0.3728
 5143SOL     OW27406   2.767   9.311   6.094  0.4441  0.2814  0.4434
 5143SOL    HW127407   2.675   9.316   6.120  0.0725  1.9702 -0.9874
 5143SOL    HW227408   2.808   9.385   6.139  0.4603  1.2583 -1.0917
 5144SOL     OW27409   7.947   7.872   6.951 -0.2163  0.7059  0.1696
 5144SOL    HW127410   8.014   7.804   6.955 -0.0480  0.8778  0.2697
 5144SOL    HW227411   7.991   7.948   6.915 -0.5424  0.6024 -0.4727
 5145SOL     OW27412   7.875   8.448   8.632  0.5938  0.0650 -0.4992
 5145SOL    HW127413   7.846   8.360   8.609 -1.4370  1.0423 -2.0428
 5145SOL    HW227414   7.799   8.488   8.674  1.5864  1.0174  0.4767
 5146SOL     OW27415   2.114   7.221   7.243  0.0704  0.7796  0.4629
 5146SOL    HW127416   2.140   7.310   7.265  1.8507  0.7035 -1.0546
 5146SOL    HW227417   2.155   7.167   7.311  3.3807  0.7599 -1.3168
 5147SOL     OW27418   0.195   8.867   3.679  0.0039  0.1109 -0.0978
 5147SOL    HW127419   0.246   8.862   3.759 -0.1549  1.6345  0.1291
 5147SOL    HW227420   0.104   8.875   3.709 -0.1281 -0.0384 -0.4504
 5148SOL     OW27421   9.295   6.279   9.378 -0.0832 -0.1503 -0.0728
 5148SOL    HW127422   9.341   6.357   9.348 -1.0930 -0.0106 -1.2940
 5148SOL    HW227423   9.320   6.211   9.315 -0.0473 -0.5546  0.3733
 5149SOL     OW27424   3.233   6.644   4.274 -0.2584  0.1849 -0.3231
 5149SOL    HW127425   3.230   6.578   4.343 -0.6588 -0.5792 -1.0588
 5149SOL    HW227426   3.173   6.712   4.304 -0.7950 -0.3610 -0.1335
 5150SOL     OW27427   8.062   6.889   8.522 -0.1360 -0.1152  0.1416
 5150SOL    HW127428   8.098   6.896   8.610 -0.1938  1.5686  0.0596
 5150SOL    HW227429   8.039   6.796   8.513  1.1925 -0.6017  1.3494
 5151SOL     OW27430   9.781   9.743   6.226  0.5178 -0.3035 -0.8053
 5151SOL    HW127431   9.737   9.664   6.255 -0.0853 -0.1014 -1.1578
 5151SOL    HW227432   9.754   9.810   6.289  3.5587 -1.0074  1.4785
 5152SOL     OW27433   9.588   2.384   4.944 -0.6156  0.1032  0.4551
 5152SOL    HW127434   9.543   2.365   4.862 -1.7454 -2.6534  1.5822
 5152SOL    HW227435   9.533   2.449   4.987 -0.3845  1.0457 -0.6314
 5153SOL     OW27436   0.724  10.157   5.059 -0.0684 -0.3600 -0.6911
 5153SOL    HW127437   0.736  10.191   5.147 -1.4869 -2.6055  0.4586
 5153SOL    HW227438   0.788  10.087   5.051 -0.9579 -1.1906 -0.8191
 5154SOL     OW27439   6.782   7.292   1.392  0.8509 -0.2059 -0.2522
 5154SOL    HW127440   6.710   7.306   1.331 -0.4985  0.7035  1.4361
 5154SOL    HW227441   6.739   7.268   1.474  2.5454 -0.6586  0.5485
 5155SOL     OW27442   8.259   7.569   3.487  0.3545  0.1671 -0.0534
 5155SOL    HW127443   8.330   7.616   3.442 -0.0894  1.3575  0.4823
 5155SOL    HW227444   8.179   7.612   3.458 -0.1800 -1.0890 -0.5491
 5156SOL     OW27445   2.291   7.849   4.568  0.4507  0.3690 -0.3070
 5156SOL    HW127446   2.310   7.771   4.517 -3.9041 -2.6028  1.9614
 5156SOL    HW227447   2.325   7.830   4.655 -0.5291  1.0603  0.2477
 5157SOL     OW27448   0.172   0.351   0.250  0.0418  0.3696 -0.0308
 5157SOL    HW127449   0.237   0.419   0.267  1.6169 -1.3612  1.4079
 5157SOL    HW227450   0.208   0.273   0.293 -2.1495 -1.1269 -0.7461
 5158SOL     OW27451   4.944   6.878   9.920 -0.6069 -0.4856 -0.4761
 5158SOL    HW127452   4.870   6.897   9.861 -0.3781 -1.1486 -0.9997
 5158SOL    HW227453   5.021   6.909   9.872 -0.4741 -0.4916 -0.2657
 5159SOL     OW27454   7.759   0.325   1.704 -0.2658  0.3856 -0.6333
 5159SOL    HW127455   7.702   0.273   1.648 -0.4444  1.0547 -1.0797
 5159SOL    HW227456   7.848   0.305   1.674 -0.1281 -1.6694  0.9125
 5160SOL     OW27457   0.815   2.460   9.486  0.0978  0.0993  0.0937
 5160SOL    HW127458   0.790   2.393   9.422 -0.0026  0.4072 -0.1889
 5160SOL    HW227459   0.862   2.526   9.435 -0.5930  0.6899  0.2134
 5161SOL     OW27460  10.170   3.816   4.175 -0.5562 -0.3101  0.0087
 5161SOL    HW127461  10.116   3.755   4.226 -0.4182 -1.0757 -0.7425
 5161SOL    HW227462  10.120   3.831   4.095  0.2916 -0.9476 -0.6529
 5162SOL     OW27463   6.897   3.391   8.955 -0.1859 -0.3182  0.0040
 5162SOL    HW127464   6.948   3.364   8.879  0.9673 -0.4833  0.8108
 5162SOL    HW227465   6.844   3.465   8.923  0.2169 -0.4341 -0.9738
 5163SOL     OW27466   5.813   5.826   1.386 -0.5011 -0.3057 -0.1771
 5163SOL    HW127467   5.743   5.799   1.326  0.0014 -0.8967 -0.5063
 5163SOL    HW227468   5.891   5.782   1.353 -0.0752 -0.0593  0.4916
 5164SOL     OW27469   2.755   8.270   0.884  0.6895  0.1128  0.2798
 5164SOL    HW127470   2.721   8.335   0.822  1.9204  0.7672  0.2549
 5164SOL    HW227471   2.749   8.313   0.969 -2.8877 -1.5172  1.0165
 5165SOL     OW27472   3.686   6.187   8.566  0.1041 -0.6408 -0.6658
 5165SOL    HW127473   3.730   6.270   8.583 -1.2451  0.2804 -1.4447
 5165SOL    HW227474   3.723   6.158   8.482 -0.2860 -0.1815 -1.0082
 5166SOL     OW27475   4.945   3.244   5.216  0.5506  0.0816  0.0955
 5166SOL    HW127476   4.906   3.157   5.221  0.5371 -0.0234 -1.3371
 5166SOL    HW227477   5.022   3.239   5.273  1.9620 -1.6712 -1.8245
 5167SOL     OW27478   5.692   0.609   8.162  0.2001  0.1350  0.0300
 5167SOL    HW127479   5.717   0.680   8.222  0.8527 -0.0027 -0.0721
 5167SOL    HW227480   5.617   0.568   8.205  0.5982  0.0955  0.7186
 5168SOL     OW27481   7.737   6.675   8.050  0.0107  0.5540  0.6331
 5168SOL    HW127482   7.688   6.659   8.131  1.5202 -0.5315  1.3845
 5168SOL    HW227483   7.825   6.700   8.080  0.5907  0.1627 -0.6623
 5169SOL     OW27484   6.466   7.965   8.914 -0.2091  0.2229 -0.2036
 5169SOL    HW127485   6.528   8.018   8.864 -0.3685  0.8023  0.1980
 5169SOL    HW227486   6.439   7.896   8.854  0.0722  0.5428 -0.7051
 5170SOL     OW27487   8.896   6.092   2.434 -0.0515 -0.7328  0.3305
 5170SOL    HW127488   8.965   6.075   2.370 -1.5296 -2.0537 -1.0019
 5170SOL    HW227489   8.815   6.086   2.384 -1.2384 -1.0466  2.1819
 5171SOL     OW27490   7.342   4.861   3.586 -0.2839 -0.3325  0.1972
 5171SOL    HW127491   7.361   4.907   3.668  1.0261 -0.4020 -0.0396
 5171SOL    HW227492   7.304   4.927   3.529 -1.0165 -0.2344  0.7858
 5172SOL     OW27493   1.304   7.559   0.224 -0.0063  0.0256 -0.0054
 5172SOL    HW127494   1.253   7.595   0.297 -1.5243 -0.8913 -0.5620
 5172SOL    HW227495   1.395   7.564   0.254 -0.5053  0.5692  1.5436
 5173SOL     OW27496   9.100   9.601   9.083  0.6794  0.0806  0.6957
 5173SOL    HW127497   9.113   9.662   9.010 -0.0956  0.5653  0.9571
 5173SOL    HW227498   9.183   9.602   9.130  0.7619  0.7149  0.5352
 5174SOL     OW27499   7.156   5.955   7.673  0.5613  0.2744 -0.7543
 5174SOL    HW127500   7.190   6.032   7.628 -1.8613 -0.1716 -3.6972
 5174SOL    HW227501   7.068   5.980   7.700  1.0752 -0.3298  1.7250
 5175SOL     OW27502   1.633   9.765   2.291 -0.0352 -0.4795 -0.2159
 5175SOL    HW127503   1.625   9.695   2.357 -0.0504 -0.3429 -0.0726
 5175SOL    HW227504   1.707   9.737   2.237  0.5565 -0.1491  0.4055
 5176SOL     OW27505   4.292   9.488   6.610  0.4300 -0.3375 -0.2107
 5176SOL    HW127506   4.333   9.569   6.581  2.7972 -1.4765 -0.2907
 5176SOL    HW227507   4.306   9.485   6.704 -0.1716 -0.3698 -0.1207
 5177SOL     OW27508   0.093   4.657   3.821  0.2170 -0.3879  0.8126
 5177SOL    HW127509   0.116   4.572   3.857  1.3173  0.1923  1.5514
 5177SOL    HW227510   0.157   4.717   3.859 -1.2611  0.9765  1.2401
 5178SOL     OW27511   2.949   8.096   2.243 -0.1654 -0.0676  0.1078
 5178SOL    HW127512   2.974   8.070   2.155  0.9670  0.0126  0.3926
 5178SOL    HW227513   2.963   8.191   2.246  1.4566 -0.2922  0.8641
 5179SOL     OW27514   9.269   6.167   2.195 -0.2847  0.1062  0.4610
 5179SOL    HW127515   9.260   6.138   2.285  0.4428  0.5847  0.6964
 5179SOL    HW227516   9.240   6.258   2.197 -1.2327 -0.1761  0.0063
 5180SOL     OW27517   2.620   9.045   2.423  0.2923 -0.2163 -0.8578
 5180SOL    HW127518   2.576   8.971   2.465  0.6364  0.3406  0.5340
 5180SOL    HW227519   2.696   9.006   2.379  1.0344 -0.5851  0.6947
 5181SOL     OW27520   9.259   2.896   4.109  0.1741 -0.4188 -0.0085
 5181SOL    HW127521   9.312   2.965   4.148  0.5595 -0.1463 -0.9880
 5181SOL    HW227522   9.217   2.937   4.034 -0.4794 -0.9561  0.0481
 5182SOL     OW27523   4.796   9.199   4.092 -0.0879 -0.4186 -0.4034
 5182SOL    HW127524   4.818   9.169   4.180 -1.6534  3.4538  1.5484
 5182SOL    HW227525   4.739   9.132   4.056  0.5621 -2.0825  1.5280
 5183SOL     OW27526   9.828   0.128   3.610 -0.1713  0.2797  0.0965
 5183SOL    HW127527   9.740   0.103   3.640 -0.0609 -0.3820 -0.1285
 5183SOL    HW227528   9.886   0.096   3.679  0.1069 -1.4693 -0.8957
 5184SOL     OW27529   4.031   6.874   6.390 -0.9185 -0.1234 -0.5522
 5184SOL    HW127530   4.073   6.798   6.430 -1.0888 -1.0578 -2.0721
 5184SOL    HW227531   4.103   6.924   6.351 -1.0055 -0.7199 -1.5074
 5185SOL     OW27532   7.794   4.239   8.213 -0.2003  0.6871  0.4112
 5185SOL    HW127533   7.794   4.328   8.248  0.4391  0.3710  1.2500
 5185SOL    HW227534   7.867   4.195   8.258 -0.1127 -0.0820 -0.4435
 5186SOL     OW27535   9.300   0.826   9.811  0.0227  0.5404  0.0806
 5186SOL    HW127536   9.280   0.736   9.786  0.2888  0.6607 -0.5799
 5186SOL    HW227537   9.383   0.819   9.859 -0.1716  0.3837  0.3961
 5187SOL     OW27538   8.325   7.463   1.979 -0.6273 -0.0783 -0.0855
 5187SOL    HW127539   8.253   7.402   1.992  0.7897 -2.2322 -1.6401
 5187SOL    HW227540   8.370   7.431   1.901  1.4262  1.7855  0.2154
 5188SOL     OW27541  10.339   6.738   6.972  0.1137 -0.3660 -0.2985
 5188SOL    HW127542  10.420   6.736   7.024  0.0809 -0.5277 -0.2530
 5188SOL    HW227543  10.360   6.793   6.897 -0.7865  2.5799  1.4649
 5189SOL     OW27544   0.491   2.517   1.971 -0.2640  0.2247  0.3074
 5189SOL    HW127545   0.478   2.539   1.879 -0.9040 -2.9529 -0.4895
 5189SOL    HW227546   0.578   2.478   1.974 -1.0164 -1.5229  0.5827
 5190SOL     OW27547   4.756   6.009   7.728  0.1006  0.0177 -0.4551
 5190SOL    HW127548   4.735   6.088   7.678 -1.9025 -0.5736 -0.6338
 5190SOL    HW227549   4.791   5.949   7.663  2.9957  1.1219 -0.0995
 5191SOL     OW27550   6.586   7.835   9.137  0.1725  0.1712  0.2203
 5191SOL    HW127551   6.555   7.893   9.067 -0.0035  2.3350  1.9633
 5191SOL    HW227552   6.622   7.759   9.092 -0.2427  1.3147 -2.1849
 5192SOL     OW27553   0.847   6.050   7.680 -1.2071 -0.0448  0.2678
 5192SOL    HW127554   0.860   6.145   7.687 -0.0169 -0.2990  2.8214
 5192SOL    HW227555   0.927   6.013   7.718 -1.6717 -2.0963 -0.6299
 5193SOL     OW27556   9.838  10.270   6.975 -0.3666  0.2977  0.4021
 5193SOL    HW127557   9.763  10.232   6.930 -0.7235  0.9429  0.4452
 5193SOL    HW227558   9.866  10.203   7.037 -0.6356 -0.1106  0.0849
 5194SOL     OW27559   2.351   9.964   4.584 -0.0893 -0.8907 -0.3687
 5194SOL    HW127560   2.301   9.975   4.665 -1.5873  0.9022 -1.4445
 5194SOL    HW227561   2.425  10.024   4.593 -0.2892 -0.6447 -0.3550
 5195SOL     OW27562   1.266  10.223   2.688 -0.2359 -0.3611 -0.4911
 5195SOL    HW127563   1.333  10.252   2.750 -1.7701 -0.6668  1.4120
 5195SOL    HW227564   1.283  10.130   2.675 -0.1678 -0.3999 -0.1426
 5196SOL     OW27565   6.808   0.075   3.080 -0.3358 -0.1957 -0.1166
 5196SOL    HW127566   6.822   0.153   3.026  1.6532 -0.9286 -0.7574
 5196SOL    HW227567   6.867   0.087   3.154 -0.8801 -0.5653  0.3788
 5197SOL     OW27568   1.205   6.465   0.806 -0.1562 -0.0372  0.5525
 5197SOL    HW127569   1.171   6.400   0.745 -1.9402  0.5622  0.8520
 5197SOL    HW227570   1.165   6.442   0.890 -0.9989  1.5543  0.6142
 5198SOL     OW27571   5.107   1.871   5.807 -0.0885  0.2634  0.5650
 5198SOL    HW127572   5.172   1.933   5.776 -0.1590  0.0078 -0.1069
 5198SOL    HW227573   5.035   1.925   5.839 -1.0747  0.5788 -1.9250
 5199SOL     OW27574   5.059   6.456   5.381 -0.2663 -0.1452 -0.1847
 5199SOL    HW127575   5.057   6.406   5.463 -0.7660  1.1545  0.6258
 5199SOL    HW227576   5.029   6.543   5.405  0.9441  0.6754 -1.4884
 5200SOL     OW27577   9.750   9.327   9.810  0.1707  0.1436 -0.4040
 5200SOL    HW127578   9.705   9.304   9.892  2.1183 -2.6184  0.0186
 5200SOL    HW227579   9.809   9.397   9.834  0.0420  0.0059  0.3449
 5201SOL     OW27580   4.859  10.002   3.501 -0.5667  0.7562  0.2991
 5201SOL    HW127581   4.790   9.958   3.451 -0.8752  0.2110  1.1846
 5201SOL    HW227582   4.906  10.054   3.436  0.0393 -1.1456 -0.8665
 5202SOL     OW27583   8.044   2.423   8.449  0.3292  0.1811  0.1173
 5202SOL    HW127584   8.066   2.493   8.388 -0.5801  0.8720  0.5469
 5202SOL    HW227585   8.013   2.351   8.393 -1.1863  1.0644 -0.2311
 5203SOL     OW27586   8.942   0.294   1.660  0.6596  0.0412  0.5404
 5203SOL    HW127587   9.028   0.334   1.669  0.9109 -0.4908  0.5154
 5203SOL    HW227588   8.899   0.311   1.744  0.8547  0.1485  0.6193
 5204SOL     OW27589   5.719  10.212   6.686 -0.5189 -0.1083  0.7699
 5204SOL    HW127590   5.654  10.157   6.731 -0.1299 -2.0868 -0.9639
 5204SOL    HW227591   5.737  10.166   6.604 -0.3757  2.7905 -0.9448
 5205SOL     OW27592   4.803   4.729   5.366 -0.2569 -0.6710 -0.0577
 5205SOL    HW127593   4.870   4.778   5.412 -0.2561 -2.7047  2.3501
 5205SOL    HW227594   4.851   4.658   5.323 -0.4017  0.5499 -2.3658
 5206SOL     OW27595   9.415   7.491   1.872  0.1167 -0.2162  0.6471
 5206SOL    HW127596   9.351   7.529   1.813  0.2760 -0.3818  0.3672
 5206SOL    HW227597   9.372   7.490   1.958  0.0086  0.3285  0.6002
 5207SOL     OW27598  10.254   4.826   4.208 -0.1593  0.0872 -0.3200
 5207SOL    HW127599  10.213   4.874   4.136 -0.4068 -1.9764 -1.6227
 5207SOL    HW227600  10.189   4.829   4.278 -0.9546  0.0319 -1.0429
 5208SOL     OW27601  10.062   5.046   6.639  0.3562 -0.4733  0.0557
 5208SOL    HW127602  10.058   5.086   6.726  1.0964 -0.0878 -0.0867
 5208SOL    HW227603   9.980   5.071   6.598 -0.2342 -1.0790  0.8195
 5209SOL     OW27604   5.729   5.492   4.401 -0.1302  0.2000 -0.3087
 5209SOL    HW127605   5.783   5.569   4.415 -1.3348  1.2309 -1.1222
 5209SOL    HW227606   5.640   5.522   4.418 -0.5019 -1.4476  0.9835
 5210SOL     OW27607   6.531   7.818   8.132 -0.2716 -0.4856  0.1257
 5210SOL    HW127608   6.593   7.887   8.155  0.2376 -0.9488  0.1565
 5210SOL    HW227609   6.476   7.857   8.063  0.1422 -0.1208  0.0006
 5211SOL     OW27610   8.495   0.251  10.019 -0.1012  0.0184  0.3491
 5211SOL    HW127611   8.571   0.195  10.031  0.8503  1.3633  0.8112
 5211SOL    HW227612   8.477   0.249   9.925 -0.2930 -1.2848  0.3964
 5212SOL     OW27613  10.366   0.398   8.886  0.0827  0.2754 -0.0815
 5212SOL    HW127614  10.276   0.393   8.917 -0.6888 -0.8879 -2.3044
 5212SOL    HW227615  10.415   0.341   8.945 -0.7110  0.5210  0.8378
 5213SOL     OW27616   0.385   6.748   7.047 -0.0839  0.7349 -0.2869
 5213SOL    HW127617   0.344   6.834   7.062 -1.8278 -0.1714  0.3907
 5213SOL    HW227618   0.368   6.729   6.955 -0.0580  0.9176 -0.3313
 5214SOL     OW27619   4.645   6.936   4.163 -0.1496 -0.1497  0.2112
 5214SOL    HW127620   4.599   6.860   4.199  1.4124 -0.5709  1.4840
 5214SOL    HW227621   4.679   6.906   4.079  1.8796 -1.5203  1.4232
 5215SOL     OW27622   2.217   7.202   4.555  0.9450  0.5778 -0.0617
 5215SOL    HW127623   2.217   7.262   4.630 -1.2185 -1.1163  1.4257
 5215SOL    HW227624   2.305   7.163   4.556  1.2617  1.2842  1.0322
 5216SOL     OW27625   1.844   7.811   8.116  0.0018  0.3589  0.5458
 5216SOL    HW127626   1.870   7.812   8.209 -1.6401  0.1839  1.0397
 5216SOL    HW227627   1.927   7.812   8.068  0.8957  1.6493  2.0009
 5217SOL     OW27628   7.187   3.349   9.006  0.6284 -0.3629  0.5356
 5217SOL    HW127629   7.178   3.362   8.912  0.8422  0.2862  0.5963
 5217SOL    HW227630   7.106   3.384   9.043 -0.8705 -3.3934  0.4053
 5218SOL     OW27631   0.248   7.261   8.685 -0.6779  0.1645  0.4202
 5218SOL    HW127632   0.236   7.348   8.646 -3.4831  0.1557  1.0434
 5218SOL    HW227633   0.177   7.209   8.648  2.5053 -2.8302 -2.1274
 5219SOL     OW27634   1.822   9.525   6.516 -0.0375  0.1542 -0.2838
 5219SOL    HW127635   1.895   9.555   6.571 -1.2700 -0.4013  1.8080
 5219SOL    HW227636   1.804   9.437   6.549 -3.0470  1.0784  0.8789
 5220SOL     OW27637   5.026   2.120   5.985 -0.7728 -0.4210 -0.3024
 5220SOL    HW127638   4.985   2.189   5.933 -3.5571 -2.1342 -0.5457
 5220SOL    HW227639   5.068   2.167   6.057 -0.0446  1.7023 -1.9876
 5221SOL     OW27640   2.265   6.593   6.419 -0.2778 -0.4041 -0.4768
 5221SOL    HW127641   2.336   6.634   6.470 -0.0732  0.2746 -1.2752
 5221SOL    HW227642   2.303   6.512   6.385 -0.1458 -0.4451 -0.2303
 5222SOL     OW27643   5.300   8.467   8.336 -0.2221 -0.1521  0.0907
 5222SOL    HW127644   5.277   8.420   8.416 -0.6692 -1.1063 -0.5791
 5222SOL    HW227645   5.259   8.416   8.265 -0.0050  0.7774 -0.7292
 5223SOL     OW27646   7.535   3.699   4.257  0.5037  0.1389  0.1225
 5223SOL    HW127647   7.457   3.685   4.204  0.8251 -1.0300 -0.0545
 5223SOL    HW227648   7.605   3.715   4.194  0.7725 -0.6750  0.2089
 5224SOL     OW27649   8.205  10.376   0.223 -0.0837 -0.4074 -0.1061
 5224SOL    HW127650   8.155  10.435   0.166 -1.0975 -1.7208 -0.6264
 5224SOL    HW227651   8.296  10.403   0.211 -0.2535 -0.6570 -2.3842
 5225SOL     OW27652   1.345   6.030   7.007  0.5643 -0.1759 -1.1360
 5225SOL    HW127653   1.352   6.086   7.085  1.2202  1.3448 -2.2377
 5225SOL    HW227654   1.430   5.986   7.003  0.4735 -0.3758 -0.9170
 5226SOL     OW27655   2.122   0.016   3.943  0.2864  0.4239 -0.5377
 5226SOL    HW127656   2.146   0.073   4.016 -0.7248  0.9837 -0.6168
 5226SOL    HW227657   2.205  -0.023   3.914  0.6111 -0.3983  1.3677
 5227SOL     OW27658  10.387   9.238   4.716 -0.2153  0.5099 -0.4833
 5227SOL    HW127659  10.453   9.175   4.744 -0.1088  0.8073 -0.0417
 5227SOL    HW227660  10.386   9.233   4.621  0.1588  0.2155 -0.4700
 5228SOL     OW27661   0.212   5.676   3.017  0.0237 -0.3364 -0.2810
 5228SOL    HW127662   0.242   5.591   2.986 -0.3385 -0.5376 -0.0881
 5228SOL    HW227663   0.236   5.677   3.110  0.9405  0.1881 -0.5156
 5229SOL     OW27664   2.387   2.660   8.019  0.5163 -0.2376  0.5187
 5229SOL    HW127665   2.339   2.737   7.989  0.5557  0.2843  1.7269
 5229SOL    HW227666   2.433   2.629   7.942  2.5370  2.4462  0.5027
 5230SOL     OW27667   9.824   7.688   7.219  0.1212 -0.2466  0.4649
 5230SOL    HW127668   9.779   7.762   7.259 -1.8427 -1.6706  1.0250
 5230SOL    HW227669   9.908   7.684   7.264 -0.0445  1.1629  0.9518
 5231SOL     OW27670   7.484   5.363   1.138 -0.1645 -0.4833 -0.1551
 5231SOL    HW127671   7.448   5.296   1.196  2.7239 -1.3539  0.7996
 5231SOL    HW227672   7.429   5.359   1.060  0.4718 -4.8942 -0.6424
 5232SOL     OW27673   9.525   5.424  10.031 -0.6094 -0.0423 -0.0525
 5232SOL    HW127674   9.541   5.338  10.072  2.0076  1.3912  2.3188
 5232SOL    HW227675   9.583   5.425   9.955 -1.5011 -0.7513 -0.7640
 5233SOL     OW27676   5.962   6.369   7.089 -0.1218 -0.5241  0.3432
 5233SOL    HW127677   5.873   6.401   7.104  0.4852  2.0828 -0.9801
 5233SOL    HW227678   5.974   6.373   6.995  2.0737  1.4619  0.5897
 5234SOL     OW27679   4.576   1.468   2.745 -0.3161 -0.6097 -0.2935
 5234SOL    HW127680   4.495   1.508   2.715  0.1983  0.6924 -0.0069
 5234SOL    HW227681   4.645   1.518   2.702  0.3483 -1.3067 -0.0626
 5235SOL     OW27682   1.831   5.250   8.100  0.1665 -0.3235 -0.7951
 5235SOL    HW127683   1.845   5.345   8.102 -0.3097 -0.2481  1.0419
 5235SOL    HW227684   1.753   5.237   8.154  0.4920 -1.8039 -0.6475
 5236SOL     OW27685   5.443   7.038   1.301 -0.2078  0.0692  0.2982
 5236SOL    HW127686   5.349   7.050   1.313  0.0553  1.1592  1.4879
 5236SOL    HW227687   5.463   7.081   1.218 -1.0905 -2.2442 -1.2366
 5237SOL     OW27688   7.189   9.762   2.949  0.1545 -0.8079 -0.6372
 5237SOL    HW127689   7.121   9.774   3.015  0.6071 -1.2651 -0.0749
 5237SOL    HW227690   7.142   9.739   2.869 -0.4667  0.6434 -0.7229
 5238SOL     OW27691   2.308  10.366   3.154  0.0214 -0.3905  0.0597
 5238SOL    HW127692   2.289  10.370   3.248 -1.4050  0.4893 -0.2457
 5238SOL    HW227693   2.302  10.273   3.132 -2.0857 -0.3574  0.3760
 5239SOL     OW27694   9.930   6.346   5.497 -0.3593  0.0861 -0.1414
 5239SOL    HW127695   9.969   6.376   5.414 -0.3539  1.1773  0.2460
 5239SOL    HW227696   9.979   6.267   5.518 -0.2736 -0.1394 -1.1222
 5240SOL     OW27697   8.442   1.607   4.449  0.1161 -0.1863  0.2772
 5240SOL    HW127698   8.352   1.638   4.461 -0.0870 -0.7934  0.3678
 5240SOL    HW227699   8.484   1.676   4.398 -0.0386  0.7187  1.3310
 5241SOL     OW27700   7.592   7.406   9.210  0.1871 -0.0845  0.0909
 5241SOL    HW127701   7.510   7.452   9.230 -1.1834 -1.4858 -1.8309
 5241SOL    HW227702   7.611   7.356   9.289 -1.0776 -0.0672  0.4351
 5242SOL     OW27703   5.364   4.405   7.131 -0.0302 -0.4137  0.1808
 5242SOL    HW127704   5.375   4.334   7.067 -0.2515  0.3079 -0.6771
 5242SOL    HW227705   5.272   4.401   7.156  0.2024 -1.1145  0.9766
 5243SOL     OW27706   6.746   0.007   7.439  0.1134  0.0467 -0.3243
 5243SOL    HW127707   6.703   0.022   7.523  2.6392  2.3986  0.6617
 5243SOL    HW227708   6.830  -0.032   7.460  0.5788  0.1583 -1.8120
 5244SOL     OW27709   5.874   9.780   1.077  0.3175  0.2834 -0.2141
 5244SOL    HW127710   5.934   9.764   1.150 -0.8094  0.3348  0.7603
 5244SOL    HW227711   5.926   9.762   0.999  0.9943 -1.8345  0.6377
 5245SOL     OW27712   2.621   5.601   9.886  0.5188  0.6095 -0.1050
 5245SOL    HW127713   2.666   5.636   9.809  0.0784 -0.3210 -0.7914
 5245SOL    HW227714   2.528   5.606   9.865  0.3761  0.6367  0.4976
 5246SOL     OW27715   3.318   7.267   2.057 -0.1633 -0.2193 -0.3052
 5246SOL    HW127716   3.303   7.362   2.059 -0.1234 -0.2176  0.8931
 5246SOL    HW227717   3.381   7.254   1.986 -0.2120  0.6504 -0.5204
 5247SOL     OW27718   7.477   1.001   9.080  0.3362  0.2958 -0.0060
 5247SOL    HW127719   7.399   1.034   9.124  0.1894 -0.1762  0.0861
 5247SOL    HW227720   7.465   1.026   8.988 -0.0952 -0.0934 -0.0594
 5248SOL     OW27721   9.737   6.567   1.340  0.4068 -0.3404 -0.1436
 5248SOL    HW127722   9.802   6.637   1.330 -0.1196  0.1020 -0.5437
 5248SOL    HW227723   9.679   6.598   1.409  0.2211 -0.4255 -0.2627
 5249SOL     OW27724   3.871   6.964   7.867  0.1877 -0.1225 -0.0205
 5249SOL    HW127725   3.920   7.042   7.840 -0.0429  0.7165  1.8153
 5249SOL    HW227726   3.935   6.894   7.863  0.9823  0.5626  0.2741
 5250SOL     OW27727   7.605   5.108   7.305 -0.0316 -0.3843  0.4005
 5250SOL    HW127728   7.660   5.176   7.343 -0.6628  0.3203  0.0707
 5250SOL    HW227729   7.532   5.098   7.367 -0.1407 -0.4871  0.2585
 5251SOL     OW27730   1.580   5.340   6.948  0.0779  0.2007 -0.1279
 5251SOL    HW127731   1.543   5.253   6.963  0.0469  0.0265 -1.1066
 5251SOL    HW227732   1.641   5.353   7.020  3.0184 -2.2960 -1.9377
 5252SOL     OW27733   1.846   5.822   8.038 -0.1942  0.2923 -0.5681
 5252SOL    HW127734   1.864   5.849   8.128  0.7077 -1.1615 -0.2815
 5252SOL    HW227735   1.825   5.903   7.992  1.4101  1.3471  0.4655
 5253SOL     OW27736   8.557   4.676   8.102  0.2157 -0.8930 -0.0164
 5253SOL    HW127737   8.639   4.717   8.129 -0.2094  0.5971 -0.9051
 5253SOL    HW227738   8.495   4.699   8.170  0.6635 -2.6320  1.0368
 5254SOL     OW27739   8.092   7.455   4.317 -0.2321 -0.4520  0.0606
 5254SOL    HW127740   8.176   7.496   4.341 -0.2519  0.1050 -0.7634
 5254SOL    HW227741   8.028   7.495   4.376  0.0203 -0.5801  0.4237
 5255SOL     OW27742   4.062   9.810   4.367  0.0727 -0.1208 -0.3359
 5255SOL    HW127743   4.089   9.781   4.280  1.6135  0.6447 -0.1429
 5255SOL    HW227744   4.141   9.845   4.407 -0.2747 -1.5522  1.8561
 5256SOL     OW27745   1.812   5.537   9.979 -0.3362  0.5718  0.0734
 5256SOL    HW127746   1.767   5.453   9.973 -1.4087  1.0051  1.4623
 5256SOL    HW227747   1.764   5.595   9.920 -0.3857  0.5296  0.0724
 5257SOL     OW27748   3.865   9.963   0.118  0.1514  0.2228 -1.0730
 5257SOL    HW127749   3.957   9.938   0.104  0.2352 -0.2201  0.1110
 5257SOL    HW227750   3.817   9.881   0.105 -0.0935  0.4804 -1.8066
 5258SOL     OW27751   2.248   3.927   2.284 -0.4707 -0.2919 -0.4761
 5258SOL    HW127752   2.342   3.941   2.272 -0.5957  1.5259  0.4375
 5258SOL    HW227753   2.226   3.857   2.222  1.0907  0.6340 -2.1594
 5259SOL     OW27754   6.695   0.246   2.697 -0.6905  0.7239  0.5524
 5259SOL    HW127755   6.740   0.163   2.683 -0.1172  0.8501  1.5098
 5259SOL    HW227756   6.668   0.275   2.610  0.8024  0.4629 -0.0210
 5260SOL     OW27757   4.799   9.249   2.470 -0.3172 -0.3858  0.5371
 5260SOL    HW127758   4.792   9.222   2.561  1.4108  1.4619  1.2877
 5260SOL    HW227759   4.891   9.273   2.459 -1.0364  1.9945 -0.9195
 5261SOL     OW27760   9.199   7.668   8.000 -0.7032 -0.0044 -0.0549
 5261SOL    HW127761   9.159   7.746   8.039  0.6208  1.6103 -1.6910
 5261SOL    HW227762   9.126   7.612   7.975 -1.8046  1.5435 -0.4229
 5262SOL     OW27763   8.729   4.324   7.565  0.3344  0.3014 -0.4035
 5262SOL    HW127764   8.764   4.413   7.568 -1.5013  1.0462 -0.1360
 5262SOL    HW227765   8.718   4.299   7.656  0.3440  0.0004 -0.4829
 5263SOL     OW27766   2.574   3.524   7.734  0.1413 -0.0087  0.1922
 5263SOL    HW127767   2.597   3.614   7.710  1.5967 -0.1675  0.8644
 5263SOL    HW227768   2.648   3.495   7.788 -0.3595 -1.5755  0.0601
 5264SOL     OW27769   9.155   4.777   5.524  0.0042 -1.0278  0.0618
 5264SOL    HW127770   9.202   4.828   5.590 -0.0171 -1.9181  0.7845
 5264SOL    HW227771   9.082   4.834   5.498  0.5932 -0.2614  0.0579
 5265SOL     OW27772   7.677   7.279   4.158 -0.2824 -0.1028 -0.2668
 5265SOL    HW127773   7.652   7.256   4.069 -0.2120  0.2329 -0.3764
 5265SOL    HW227774   7.766   7.313   4.150  0.0606 -0.9015  0.0595
 5266SOL     OW27775   7.767   0.498   8.599 -0.4169 -0.0860  0.2976
 5266SOL    HW127776   7.691   0.550   8.574  0.6111  1.0733 -0.5503
 5266SOL    HW227777   7.839   0.561   8.603  0.9123 -1.4602 -0.8951
 5267SOL     OW27778   4.511   2.261   8.136 -0.2011 -0.1013  0.0469
 5267SOL    HW127779   4.593   2.310   8.128 -1.3101  1.7332 -0.8212
 5267SOL    HW227780   4.515   2.196   8.066  0.4047  0.1495 -0.1629
 5268SOL     OW27781   4.309   6.394   9.439 -0.0818  0.5113  0.2928
 5268SOL    HW127782   4.222   6.425   9.415 -0.2959  0.8628  1.4672
 5268SOL    HW227783   4.293   6.313   9.488  0.2416  0.6095  0.5656
 5269SOL     OW27784  10.070   5.571   1.035  0.2872  0.0474 -0.1096
 5269SOL    HW127785  10.054   5.509   0.964  2.1110 -1.0184  0.3588
 5269SOL    HW227786  10.145   5.535   1.082  0.7603  2.0990  0.7937
 5270SOL     OW27787   0.359   8.343   0.652  0.6531  0.3728 -0.0267
 5270SOL    HW127788   0.300   8.306   0.717  1.5220  0.1690  0.6667
 5270SOL    HW227789   0.389   8.425   0.691  0.9290  0.4081 -0.3074
 5271SOL     OW27790   1.672   5.100   6.616  0.2506  0.2194 -0.0394
 5271SOL    HW127791   1.596   5.071   6.667 -0.3371 -0.9583 -1.5134
 5271SOL    HW227792   1.744   5.046   6.649 -0.0981 -0.4359 -0.3158
 5272SOL     OW27793   4.063   1.340  10.046  0.0906  0.4999  0.2715
 5272SOL    HW127794   4.069   1.310  10.137 -1.2452 -2.8020 -0.5781
 5272SOL    HW227795   3.970   1.354  10.031 -0.1051 -1.8252 -1.2677
 5273SOL     OW27796   4.747  10.054   1.707 -0.2551  0.1714 -0.1653
 5273SOL    HW127797   4.720   9.968   1.737  0.7197  0.0489  0.4139
 5273SOL    HW227798   4.767  10.103   1.787 -3.8551  2.0707 -0.2305
 5274SOL     OW27799   5.167   0.044   2.032  0.6779  0.2943  0.4282
 5274SOL    HW127800   5.111   0.060   2.108 -1.5229  1.1741 -1.2393
 5274SOL    HW227801   5.255   0.035   2.068 -0.2956  0.4097  3.0767
 5275SOL     OW27802   0.642   2.484   9.691 -0.0480 -0.2394  0.1516
 5275SOL    HW127803   0.569   2.530   9.650  0.9166  1.9599  0.7775
 5275SOL    HW227804   0.699   2.459   9.618 -1.5176 -2.3010 -0.3787
 5276SOL     OW27805   4.784   7.651   5.505  0.7285 -0.0277 -0.4007
 5276SOL    HW127806   4.752   7.660   5.594  0.7371 -1.8268 -0.1751
 5276SOL    HW227807   4.707   7.668   5.450  0.7347  1.1251 -0.0721
 5277SOL     OW27808   8.333   1.040   6.649 -0.1712  0.1554  0.2541
 5277SOL    HW127809   8.386   0.964   6.675 -0.3408  0.4833  1.6017
 5277SOL    HW227810   8.281   1.008   6.575  0.1340 -0.8855  0.4730
 5278SOL     OW27811   1.538   3.738   0.123 -0.1903 -0.4391 -0.2468
 5278SOL    HW127812   1.462   3.712   0.071  0.1870 -4.2861  0.8570
 5278SOL    HW227813   1.501   3.778   0.202 -1.0008 -0.9182 -0.3780
 5279SOL     OW27814   4.643   6.775   4.548  0.0046 -0.4374  0.3169
 5279SOL    HW127815   4.651   6.816   4.635 -1.0834  0.9584 -0.2048
 5279SOL    HW227816   4.696   6.831   4.491 -2.7403  1.2778 -0.7073
 5280SOL     OW27817   2.633   5.845   6.090 -0.3724  0.1474  0.2966
 5280SOL    HW127818   2.547   5.865   6.051 -0.5602  0.1979  0.7273
 5280SOL    HW227819   2.620   5.762   6.136  0.0199 -0.2378 -0.2747
 5281SOL     OW27820   2.161   4.112   4.366 -0.6391  0.0777  0.0351
 5281SOL    HW127821   2.096   4.084   4.430 -1.7319  0.2395 -0.9706
 5281SOL    HW227822   2.133   4.200   4.340 -0.9511 -0.4403 -1.5454
 5282SOL     OW27823   1.797   2.189   0.791 -0.2068  0.2386  0.1130
 5282SOL    HW127824   1.802   2.094   0.801  0.2633  0.2244 -0.2373
 5282SOL    HW227825   1.807   2.203   0.697 -0.2443  0.6375  0.1692
 5283SOL     OW27826   0.122   4.933   5.144  0.4246  0.0303  0.0549
 5283SOL    HW127827   0.030   4.915   5.163  0.3827  1.1173  0.9695
 5283SOL    HW227828   0.120   4.999   5.074  0.5172 -0.2004 -0.1665
 5284SOL     OW27829   0.684   9.966   1.504 -0.0915 -0.5340 -0.1834
 5284SOL    HW127830   0.669   9.957   1.599 -1.3401  0.3801 -0.2740
 5284SOL    HW227831   0.652  10.054   1.483  0.4166 -0.6350 -1.4133
 5285SOL     OW27832   9.176   7.890   5.073  0.4276  0.4067 -0.3712
 5285SOL    HW127833   9.227   7.811   5.053 -0.5831 -0.4019  0.1193
 5285SOL    HW227834   9.200   7.953   5.005  0.5447 -0.6570 -1.3411
 5286SOL     OW27835  10.346   4.793   2.346  0.1247  0.0660  0.3742
 5286SOL    HW127836  10.314   4.884   2.347 -0.4774 -0.1107 -1.1088
 5286SOL    HW227837  10.429   4.797   2.394  0.6438  1.6037 -0.5746
 5287SOL     OW27838   1.668   6.791   6.815  0.0629  0.5584  0.1882
 5287SOL    HW127839   1.655   6.884   6.796 -1.6868  0.6974  1.7221
 5287SOL    HW227840   1.596   6.747   6.768  0.4801  0.0394  0.0209
 5288SOL     OW27841   0.356   7.971   0.716 -0.3387  0.0133  0.1386
 5288SOL    HW127842   0.415   8.042   0.740 -0.1280 -0.4877  1.1465
 5288SOL    HW227843   0.278   8.014   0.682 -0.3583  0.7395  1.0688
 5289SOL     OW27844   4.204   0.081   9.722  0.4375 -0.1588 -0.3652
 5289SOL    HW127845   4.264   0.082   9.797  0.2717  0.0241 -0.2361
 5289SOL    HW227846   4.218  -0.005   9.682  0.7932 -0.1136 -0.3416
 5290SOL     OW27847   9.210   3.408   7.104 -0.3828 -0.1486  0.6121
 5290SOL    HW127848   9.117   3.432   7.107 -0.3407  0.1442 -0.1193
 5290SOL    HW227849   9.225   3.359   7.185 -1.1181  0.0023  0.8485
 5291SOL     OW27850   1.083   2.996   7.874  0.1261  0.2163  0.2358
 5291SOL    HW127851   1.154   2.933   7.869 -0.7161 -0.7113 -0.4403
 5291SOL    HW227852   1.006   2.948   7.844 -0.6367  1.4204  0.1919
 5292SOL     OW27853  10.254   2.696   6.125  0.5096 -0.0076 -0.5061
 5292SOL    HW127854  10.178   2.716   6.180 -0.1444 -1.7433 -0.7061
 5292SOL    HW227855  10.310   2.642   6.181  0.6409 -0.3855 -0.9934
 5293SOL     OW27856   9.858   6.115   6.373  0.1781 -0.1091  0.3332
 5293SOL    HW127857   9.841   6.152   6.460 -0.6559 -0.2626  0.2450
 5293SOL    HW227858   9.881   6.191   6.319 -1.1449  0.2593  0.2482
 5294SOL     OW27859   8.573   9.649   0.197  0.1552 -0.0661 -0.1451
 5294SOL    HW127860   8.482   9.634   0.175  1.1698 -2.5907 -3.4964
 5294SOL    HW227861   8.594   9.735   0.161 -0.6081 -0.0174 -0.4761
 5295SOL     OW27862   2.242   2.881   0.505  0.2236 -0.2300 -0.8004
 5295SOL    HW127863   2.292   2.801   0.525  0.3275  0.4311  2.0122
 5295SOL    HW227864   2.302   2.933   0.451  1.3352 -0.8361 -0.2017
 5296SOL     OW27865   6.618   7.573   4.093  0.3652 -0.3773 -0.0421
 5296SOL    HW127866   6.574   7.509   4.148 -0.5813 -0.4587 -0.8596
 5296SOL    HW227867   6.702   7.588   4.136  0.4465 -1.8662  0.3817
 5297SOL     OW27868   9.113   1.481   5.189 -0.3927 -0.0314 -0.3122
 5297SOL    HW127869   9.137   1.551   5.249  1.0795 -0.2670 -0.5849
 5297SOL    HW227870   9.186   1.475   5.128 -0.7420 -1.4176 -0.6481
 5298SOL     OW27871   7.981   2.660   3.528 -0.0069  0.7543 -0.0633
 5298SOL    HW127872   7.998   2.751   3.550 -1.8733  0.9576  0.7667
 5298SOL    HW227873   7.889   2.659   3.501 -0.2963 -1.0207  0.8593
 5299SOL     OW27874   2.985   7.988   6.920  0.5006  0.5807 -0.0570
 5299SOL    HW127875   3.072   7.969   6.886  0.1351 -0.8632 -0.2626
 5299SOL    HW227876   2.954   7.904   6.955 -2.2612  0.0390 -3.2992
 5300SOL     OW27877   6.963   4.687   9.872  0.4344  0.1892  0.4680
 5300SOL    HW127878   7.045   4.646   9.843  0.3574  1.2262 -1.3216
 5300SOL    HW227879   6.991   4.766   9.919  0.4807  1.0549 -0.9626
 5301SOL     OW27880   3.556   5.834   8.515 -0.4775 -0.0493  0.7932
 5301SOL    HW127881   3.613   5.780   8.569 -1.7126 -1.4095  0.7907
 5301SOL    HW227882   3.470   5.793   8.522 -1.1072  0.9599 -0.5387
 5302SOL     OW27883   8.136   2.140   9.786 -0.9330  0.4753 -0.0277
 5302SOL    HW127884   8.125   2.057   9.832 -0.8151  0.9036  0.7891
 5302SOL    HW227885   8.093   2.126   9.701 -2.1579  0.0454  0.6388
 5303SOL     OW27886   7.423   9.487   1.605  0.1696  0.5521  0.2953
 5303SOL    HW127887   7.353   9.551   1.617 -0.6987 -0.5831  1.4386
 5303SOL    HW227888   7.423   9.435   1.685 -1.1741 -2.8104 -1.6778
 5304SOL     OW27889   1.949   2.778   5.621 -0.8033 -0.3553  0.0907
 5304SOL    HW127890   1.964   2.684   5.607  2.4325 -0.1259  1.1121
 5304SOL    HW227891   2.032   2.810   5.656 -2.2576  2.6623  1.1020
 5305SOL     OW27892   6.823   2.866   2.204  0.6596 -0.0417  0.3048
 5305SOL    HW127893   6.836   2.900   2.293 -2.4331  1.5584  0.3053
 5305SOL    HW227894   6.756   2.923   2.166  1.0032 -1.4126 -2.6579
 5306SOL     OW27895   1.166   1.462   2.866  0.1329  0.5050 -0.5129
 5306SOL    HW127896   1.171   1.501   2.953  5.2005  0.7864 -0.5914
 5306SOL    HW227897   1.109   1.387   2.876 -2.8517  2.8311  1.8684
 5307SOL     OW27898   0.905  10.139   1.993 -0.5613  0.0849  0.4566
 5307SOL    HW127899   0.965  10.213   2.006 -0.2845 -0.0966  0.2297
 5307SOL    HW227900   0.959  10.062   2.011 -0.3799 -0.1426 -0.9844
 5308SOL     OW27901   3.494   9.076   1.168  0.2091 -0.2386  0.0326
 5308SOL    HW127902   3.413   9.127   1.180  0.3712  0.6156 -2.0231
 5308SOL    HW227903   3.465   8.985   1.168 -0.5613 -0.0038  0.6439
 5309SOL     OW27904   1.887   4.944   6.283 -0.1483  0.5646 -0.8016
 5309SOL    HW127905   1.944   5.012   6.319  0.6456 -0.5102  0.0520
 5309SOL    HW227906   1.845   4.905   6.360  0.1928 -0.5789 -1.1787
 5310SOL     OW27907   4.112   6.902   2.049  0.1170 -0.2496 -0.0453
 5310SOL    HW127908   4.193   6.882   2.002  1.3666  0.7422  1.5435
 5310SOL    HW227909   4.115   6.845   2.127  1.5284  2.6794  2.2436
 5311SOL     OW27910   2.384   8.517   4.097 -0.5797  0.0557  0.0809
 5311SOL    HW127911   2.404   8.435   4.052  0.4300  0.3072  0.0576
 5311SOL    HW227912   2.324   8.492   4.167  2.1982 -1.2564  2.1507
 5312SOL     OW27913   2.276   3.452   7.771  0.5771  0.6907 -0.1171
 5312SOL    HW127914   2.366   3.482   7.756  0.6270  0.5188 -0.1699
 5312SOL    HW227915   2.238   3.517   7.830  0.9642  0.3872  0.4859
 5313SOL     OW27916   8.962   6.346   5.039 -0.4854 -0.0087  0.1256
 5313SOL    HW127917   8.953   6.286   4.965 -0.7253 -0.3326  0.4092
 5313SOL    HW227918   9.051   6.332   5.071 -0.3330  0.2415 -0.1954
 5314SOL     OW27919   9.713   3.660   6.605  0.0186 -0.0935 -0.2995
 5314SOL    HW127920   9.712   3.700   6.692  0.5518 -0.9857  0.1307
 5314SOL    HW227921   9.785   3.597   6.608  0.7779  0.6437 -1.7583
 5315SOL     OW27922   7.135   0.437   4.125 -0.1798  0.2627  0.5071
 5315SOL    HW127923   7.065   0.492   4.160  0.7489  1.2831  0.8002
 5315SOL    HW227924   7.139   0.362   4.185  0.4421  1.2854  1.7850
 5316SOL     OW27925   4.239   5.058   2.536 -0.0486 -0.5005  0.2638
 5316SOL    HW127926   4.149   5.041   2.510 -0.0776  1.8383 -1.5481
 5316SOL    HW227927   4.238   5.147   2.571  1.4796 -0.6345  0.7372
 5317SOL     OW27928   4.289   6.117   4.874  1.1084 -0.0500 -0.2321
 5317SOL    HW127929   4.317   6.171   4.948 -1.7305 -0.9221  1.6352
 5317SOL    HW227930   4.234   6.175   4.821 -0.5120 -0.5671  0.8285
 5318SOL     OW27931   7.997   6.528   1.876 -0.1771 -0.3320  0.2753
 5318SOL    HW127932   7.961   6.498   1.959  1.0487 -0.3032  0.8504
 5318SOL    HW227933   7.945   6.605   1.853 -0.9474 -0.7287  0.6804
 5319SOL     OW27934   8.564   3.368   4.460  0.1264 -0.0079  0.5037
 5319SOL    HW127935   8.527   3.428   4.525  0.4821  0.2860  0.4388
 5319SOL    HW227936   8.652   3.351   4.492  0.3523  0.2515  0.0230
 5320SOL     OW27937   7.721   2.071   7.034 -0.1656 -0.3806  0.1585
 5320SOL    HW127938   7.626   2.056   7.032 -0.5712  0.7549  3.5424
 5320SOL    HW227939   7.738   2.129   6.961 -2.0325 -0.8022 -0.6652
 5321SOL     OW27940   4.482   7.373   4.008 -0.5168  0.1380 -0.2384
 5321SOL    HW127941   4.465   7.394   4.100  0.8357  0.4400 -0.0384
 5321SOL    HW227942   4.430   7.295   3.992 -1.1333  0.3426  0.6471
 5322SOL     OW27943   7.110   6.470   8.611  0.0702 -0.3073 -0.3648
 5322SOL    HW127944   7.076   6.394   8.564  2.0485 -0.3145 -1.9344
 5322SOL    HW227945   7.155   6.434   8.687 -0.3578 -0.5588 -0.2280
 5323SOL     OW27946   1.147   3.636   3.566  0.1843  0.3752 -0.4543
 5323SOL    HW127947   1.177   3.696   3.499 -2.8404  0.0282 -2.2961
 5323SOL    HW227948   1.071   3.679   3.605  0.1299 -0.7300  0.7448
 5324SOL     OW27949   8.964   4.615   5.057  0.2631  0.7036  0.3763
 5324SOL    HW127950   8.997   4.695   5.017  0.0350  1.0291  0.8345
 5324SOL    HW227951   9.039   4.555   5.057  0.0095  0.3358 -1.4351
 5325SOL     OW27952   6.529   4.288   1.261 -0.3592 -0.6286  0.6102
 5325SOL    HW127953   6.551   4.215   1.202 -0.2738 -1.1528  1.2832
 5325SOL    HW227954   6.526   4.249   1.348  0.9497  0.4068  1.1613
 5326SOL     OW27955   2.940   1.823   5.678 -0.3450 -0.0395  0.4942
 5326SOL    HW127956   2.944   1.846   5.585 -1.5196  1.1042  0.6979
 5326SOL    HW227957   3.012   1.761   5.690  0.9451  1.1205 -0.8001
 5327SOL     OW27958   3.494   8.533   4.442  0.8238 -0.0019  0.2261
 5327SOL    HW127959   3.492   8.628   4.428  1.8915  0.0563  0.3709
 5327SOL    HW227960   3.528   8.498   4.360 -1.5193 -0.4645 -0.6066
 5328SOL     OW27961   2.057   7.303   5.456 -0.1049  0.4318 -0.2270
 5328SOL    HW127962   2.148   7.273   5.455 -0.1270  0.1608  1.7307
 5328SOL    HW227963   2.008   7.234   5.411  0.3708 -0.5349  0.7061
 5329SOL     OW27964   6.769   4.664   3.105  0.0391  0.1373  0.0635
 5329SOL    HW127965   6.708   4.608   3.058 -0.7373  1.1171 -0.1264
 5329SOL    HW227966   6.781   4.741   3.049  0.9178  0.2740  0.4092
 5330SOL     OW27967   1.438   5.034   6.065 -0.5957 -0.1801 -0.2786
 5330SOL    HW127968   1.471   5.106   6.011  2.5358 -0.5641  0.9039
 5330SOL    HW227969   1.478   5.049   6.151 -4.9033  0.0893  1.9102
 5331SOL     OW27970   0.525   3.071   1.109 -0.6489  0.3629 -0.0270
 5331SOL    HW127971   0.492   3.029   1.030  1.9062 -1.3462 -0.2966
 5331SOL    HW227972   0.611   3.031   1.124  0.0300  2.4010  2.2325
 5332SOL     OW27973   0.432   4.372   2.826  0.1416  0.3612  0.1847
 5332SOL    HW127974   0.371   4.373   2.752 -1.3435 -0.2421  1.3321
 5332SOL    HW227975   0.499   4.309   2.801 -0.4160  0.0547 -0.5938
 5333SOL     OW27976   0.171   5.889   5.957 -0.4529  0.1174 -0.1013
 5333SOL    HW127977   0.105   5.820   5.960  0.0327 -0.3444 -0.1443
 5333SOL    HW227978   0.250   5.847   5.923  0.2122  0.3885  1.0664
 5334SOL     OW27979   3.597   3.224   9.593  0.5670  0.6374  0.0622
 5334SOL    HW127980   3.571   3.215   9.502  1.1173  0.8824 -0.1267
 5334SOL    HW227981   3.634   3.139   9.617 -0.8873  0.1096  0.5015
 5335SOL     OW27982   8.229   9.044   7.894  0.3043 -0.0512  0.0678
 5335SOL    HW127983   8.279   8.964   7.907  0.8846  0.0824 -1.1965
 5335SOL    HW227984   8.192   9.064   7.981  0.1610 -1.6538  0.4049
 5336SOL     OW27985   8.920   5.705   5.534  0.7725  0.8927 -0.8049
 5336SOL    HW127986   8.944   5.700   5.626  1.3000  1.6706 -0.8941
 5336SOL    HW227987   8.835   5.750   5.534  0.2826 -0.0129 -0.6372
 5337SOL     OW27988   6.522   2.315   5.695  0.1370  0.1422 -0.2836
 5337SOL    HW127989   6.522   2.340   5.788 -0.5438 -0.1816 -0.1833
 5337SOL    HW227990   6.549   2.394   5.649 -0.8034  0.7229  0.1120
 5338SOL     OW27991   9.697   0.172   1.189  0.3472  0.0569  0.0197
 5338SOL    HW127992   9.771   0.166   1.250  0.6213 -0.3153 -0.3449
 5338SOL    HW227993   9.643   0.243   1.224 -0.5572 -1.4471  1.8257
 5339SOL     OW27994   8.616   5.575   4.675 -0.3182  0.5236  0.1909
 5339SOL    HW127995   8.649   5.580   4.585 -1.2562 -1.2334 -0.2883
 5339SOL    HW227996   8.571   5.491   4.679  0.6272  0.0795  2.6427
 5340SOL     OW27997   2.942   5.011   4.959 -0.2738 -0.0322 -0.3912
 5340SOL    HW127998   2.916   5.064   5.034  0.6927  0.3348 -0.3031
 5340SOL    HW227999   2.879   5.032   4.890  0.0547  1.1845 -0.3296
 5341SOL     OW28000   7.897   9.840   5.595  0.0640 -0.1034  0.3101
 5341SOL    HW128001   7.897   9.822   5.689  0.8301 -0.1257  0.3115
 5341SOL    HW228002   7.989   9.830   5.568 -0.6013 -4.6410 -1.3207
 5342SOL     OW28003   5.409   1.938   2.313  0.5304  0.0904  0.4183
 5342SOL    HW128004   5.345   1.993   2.358 -0.2211 -0.5378  0.1391
 5342SOL    HW228005   5.403   1.853   2.356  0.6241 -0.1890 -0.1083
 5343SOL     OW28006   6.116   9.320   0.577  0.1821 -0.0187  0.1470
 5343SOL    HW128007   6.060   9.353   0.507  1.2644  2.7555  0.4445
 5343SOL    HW228008   6.194   9.286   0.532 -0.7270 -1.8564 -0.1348
 5344SOL     OW28009   0.222   3.009   3.249 -0.1720 -0.6196  0.3424
 5344SOL    HW128010   0.300   3.033   3.299 -0.2608 -0.1355  0.2493
 5344SOL    HW228011   0.149   3.049   3.296 -0.2174  0.1864 -0.3982
 5345SOL     OW28012   6.900   8.760   5.279 -0.6884 -0.1785  0.1206
 5345SOL    HW128013   6.959   8.760   5.354  2.6750  0.1735 -2.3093
 5345SOL    HW228014   6.894   8.668   5.254 -0.9080 -0.1793  0.1762
 5346SOL     OW28015   0.112   2.350   1.443 -0.3384 -0.1373  0.1727
 5346SOL    HW128016   0.174   2.295   1.489 -1.2966 -1.0878  0.3709
 5346SOL    HW228017   0.047   2.373   1.510 -0.8782 -0.2051 -0.3224
 5347SOL     OW28018   7.964   3.486   6.188 -0.2414 -0.5892  0.2537
 5347SOL    HW128019   8.017   3.415   6.224  2.4739  0.2383 -1.7610
 5347SOL    HW228020   7.979   3.560   6.247 -0.3571 -0.7511  0.4880
 5348SOL     OW28021   4.907   9.925   9.509  0.2800 -0.6194 -0.1719
 5348SOL    HW128022   4.873   9.838   9.488 -0.5101 -0.2481 -0.4525
 5348SOL    HW228023   4.846   9.960   9.573 -0.0936  0.1975 -0.9459
 5349SOL     OW28024   6.067   2.276   9.553 -0.0862  0.3384  0.2220
 5349SOL    HW128025   6.116   2.354   9.529 -0.0413 -0.0561 -1.0682
 5349SOL    HW228026   6.115   2.239   9.627 -0.1907  1.5946  0.9325
 5350SOL     OW28027   4.750   6.821   5.346 -0.0700  0.1922  0.3088
 5350SOL    HW128028   4.774   6.818   5.439  2.1260  0.8637 -0.1968
 5350SOL    HW228029   4.684   6.890   5.341 -1.7773 -1.2407  1.6454
 5351SOL     OW28030   6.875   9.850   4.555 -0.3744  0.0350 -0.5648
 5351SOL    HW128031   6.906   9.762   4.536 -0.0809  0.0189 -0.0237
 5351SOL    HW228032   6.856   9.850   4.649 -0.9955  0.3577 -0.6800
 5352SOL     OW28033   3.316   8.124   3.368  0.3018  0.3799 -0.2975
 5352SOL    HW128034   3.305   8.132   3.273 -0.9773 -0.8250 -0.2933
 5352SOL    HW228035   3.407   8.097   3.379 -0.0189 -1.3304 -1.3580
 5353SOL     OW28036   0.835   4.683   2.433 -0.2443  0.0295 -0.2133
 5353SOL    HW128037   0.860   4.739   2.360 -0.2317 -1.9916 -1.8643
 5353SOL    HW228038   0.842   4.739   2.510  0.4505  2.0510 -1.6593
 5354SOL     OW28039   1.180  10.306   7.525  0.1154 -0.6537 -0.1032
 5354SOL    HW128040   1.175  10.371   7.455  0.7805  1.5873  1.7877
 5354SOL    HW228041   1.089  10.286   7.546 -0.0908 -1.7386 -1.8849
 5355SOL     OW28042   9.181   7.092  10.167 -0.3370 -0.5129  0.0234
 5355SOL    HW128043   9.095   7.118  10.133  0.2889  1.0451 -0.4380
 5355SOL    HW228044   9.182   7.124  10.257  0.3746  1.0123 -0.4965
 5356SOL     OW28045   9.157   2.017   7.165 -0.3599  0.2223 -0.0477
 5356SOL    HW128046   9.075   2.061   7.145  0.0276  0.7441 -0.5280
 5356SOL    HW228047   9.205   2.016   7.082  0.3559  0.4528  0.3499
 5357SOL     OW28048   5.341   0.070   4.146 -0.0303  0.1542  0.4500
 5357SOL    HW128049   5.306   0.026   4.068  0.6311  0.6462 -0.1368
 5357SOL    HW228050   5.394   0.142   4.111 -1.5861  1.8340  1.3822
 5358SOL     OW28051   8.372   5.427   1.989 -0.1090 -0.2051 -0.1378
 5358SOL    HW128052   8.339   5.400   2.075  2.1912 -0.1485  0.8403
 5358SOL    HW228053   8.464   5.450   2.005  0.5210 -0.6373 -2.7228
 5359SOL     OW28054   6.555   2.496   8.989 -0.5311  0.1294 -0.4176
 5359SOL    HW128055   6.561   2.429   9.057 -2.3896  0.4711  0.1555
 5359SOL    HW228056   6.516   2.451   8.914 -0.0899  0.1580 -0.6686
 5360SOL     OW28057   2.641   8.696   8.315 -0.1109  0.7162  0.0188
 5360SOL    HW128058   2.593   8.627   8.269 -1.3556 -0.0792  2.3293
 5360SOL    HW228059   2.699   8.649   8.374  0.3075  1.6804  0.3887
 5361SOL     OW28060   0.059   2.245   0.517 -0.0690  0.6119 -0.9625
 5361SOL    HW128061   0.085   2.203   0.598 -1.8030  0.3044 -0.5103
 5361SOL    HW228062   0.007   2.179   0.471  0.3191  1.0124 -1.9973
 5362SOL     OW28063   4.557   6.034   5.007 -0.0772 -0.2592  0.1621
 5362SOL    HW128064   4.555   6.028   5.102 -1.6579 -0.4089  0.1519
 5362SOL    HW228065   4.493   6.103   4.986  1.2302  0.7290 -0.7460
 5363SOL     OW28066   8.488   3.999   9.181  0.2576  0.3031 -0.6762
 5363SOL    HW128067   8.514   3.951   9.103  1.2929 -1.1149  0.4815
 5363SOL    HW228068   8.570   4.020   9.225 -0.3299  0.0095  0.6235
 5364SOL     OW28069   7.972   4.318   8.011  0.5281  0.8559  0.2935
 5364SOL    HW128070   7.925   4.319   7.927  0.7732 -1.4533  0.0702
 5364SOL    HW228071   7.905   4.296   8.076  0.9861 -1.0929  0.1550
 5365SOL     OW28072   8.143   7.112   5.070  0.3879  0.0142  0.3664
 5365SOL    HW128073   8.170   7.089   4.981  0.9592  0.9035  0.2994
 5365SOL    HW228074   8.112   7.029   5.108 -1.5445 -0.0715 -1.2156
 5366SOL     OW28075   8.951   6.997   0.570  0.3485 -0.4690  0.2555
 5366SOL    HW128076   8.933   7.043   0.488 -2.1059  2.6857  2.3379
 5366SOL    HW228077   8.929   6.906   0.551  4.3929 -0.9625 -3.7810
 5367SOL     OW28078   5.646   7.585   6.533  0.2605  0.3468 -0.1909
 5367SOL    HW128079   5.707   7.648   6.492 -0.4670  0.5516 -0.9875
 5367SOL    HW228080   5.646   7.511   6.473  1.3051 -0.5600  0.8692
 5368SOL     OW28081   9.218   9.761   1.537  0.2123  0.4033 -0.0687
 5368SOL    HW128082   9.275   9.803   1.473  0.0175 -0.2080 -0.6632
 5368SOL    HW228083   9.141   9.733   1.486  0.2466 -0.4688  0.3350
 5369SOL     OW28084   1.689   9.969   3.169  0.0221 -0.1720 -0.0632
 5369SOL    HW128085   1.621   9.928   3.115  0.5948 -2.4710  0.8481
 5369SOL    HW228086   1.647  10.046   3.206 -1.9248 -1.2021 -0.0086
 5370SOL     OW28087   0.592   6.075   5.706 -0.0617 -0.3252 -0.2128
 5370SOL    HW128088   0.616   6.034   5.789 -0.1041 -2.2236 -1.0704
 5370SOL    HW228089   0.521   6.020   5.672 -1.6101  1.7334 -0.4890
 5371SOL     OW28090   4.783   9.416   5.870  0.1277  0.6207 -0.0888
 5371SOL    HW128091   4.836   9.489   5.902  1.8422  0.4488 -2.3383
 5371SOL    HW228092   4.823   9.338   5.910 -0.4741  0.7022  0.7223
 5372SOL     OW28093   4.937   3.732   1.704 -0.2013 -0.3033  0.7408
 5372SOL    HW128094   4.963   3.750   1.614  0.8824 -4.2107  0.0828
 5372SOL    HW228095   5.006   3.773   1.757  0.1675  0.4344 -0.2679
 5373SOL     OW28096   4.125   9.100  10.294  0.1649  0.3934  0.5215
 5373SOL    HW128097   4.128   9.144  10.378 -0.0227  0.3500  0.5510
 5373SOL    HW228098   4.064   9.027  10.306  0.7333 -0.0898  0.5741
 5374SOL     OW28099   8.073   9.211   6.525  0.2134  0.7824 -0.4179
 5374SOL    HW128100   7.980   9.209   6.502  0.6717 -1.1680 -2.5251
 5374SOL    HW228101   8.109   9.285   6.477  0.1188  0.2069 -1.3886
 5375SOL     OW28102   5.237   4.649   7.455 -0.5893 -0.0673 -0.4845
 5375SOL    HW128103   5.227   4.733   7.501 -0.8212 -0.3307 -0.0515
 5375SOL    HW228104   5.250   4.674   7.364  0.9429  0.5219 -0.1473
 5376SOL     OW28105   2.098   8.799   0.193  0.0706  0.0484  0.1254
 5376SOL    HW128106   2.124   8.818   0.283 -0.2468  2.0236 -0.1511
 5376SOL    HW228107   2.004   8.817   0.191  0.0627 -0.0219 -0.5746
 5377SOL     OW28108   5.441   0.539   7.793 -0.1466 -0.1961  0.4606
 5377SOL    HW128109   5.420   0.520   7.885  1.2879 -0.6969  0.7114
 5377SOL    HW228110   5.401   0.467   7.744  1.2707 -1.3704  0.9653
 5378SOL     OW28111   2.371   9.549   7.934  0.1996 -0.0867  0.1678
 5378SOL    HW128112   2.454   9.518   7.899  0.5831  0.4148  0.6240
 5378SOL    HW228113   2.330   9.597   7.862  0.1176 -0.6660 -0.1800
 5379SOL     OW28114   1.701   0.204   3.383  0.6459  0.1325 -0.3908
 5379SOL    HW128115   1.769   0.215   3.449  0.6135  0.6655 -0.4492
 5379SOL    HW228116   1.745   0.156   3.312  0.4490 -1.2573  0.3737
 5380SOL     OW28117   3.897   8.078   3.733 -0.1812  0.0370  0.5064
 5380SOL    HW128118   3.867   7.988   3.744 -0.9492  0.1512 -0.4622
 5380SOL    HW228119   3.913   8.086   3.639  0.2181  0.8113  0.6335
 5381SOL     OW28120   2.235   7.767   7.983  0.1214 -0.0280  0.0611
 5381SOL    HW128121   2.181   7.691   8.004 -0.5638 -0.1891 -2.0514
 5381SOL    HW228122   2.184   7.842   8.015 -1.0655 -0.2329 -1.2371
 5382SOL     OW28123   9.326   1.836  10.173  0.1102  0.6704 -0.1626
 5382SOL    HW128124   9.388   1.865  10.241 -1.6177  0.7469  1.4530
 5382SOL    HW228125   9.305   1.746  10.197 -0.2319  0.5659 -0.8402
 5383SOL     OW28126   8.630   9.432   9.447 -0.4343 -0.3879 -0.0977
 5383SOL    HW128127   8.578   9.502   9.407  0.5698 -0.5028 -1.6973
 5383SOL    HW228128   8.692   9.478   9.504  1.1438  0.2214 -2.1801
 5384SOL     OW28129   6.984   2.259   6.029 -0.4496  0.2853  0.2054
 5384SOL    HW128130   7.065   2.308   6.016  0.0065 -0.4427  0.2238
 5384SOL    HW228131   6.980   2.244   6.124 -0.7459  0.5584  0.2343
 5385SOL     OW28132   8.677   2.429   7.226  0.4457 -0.4703  0.3147
 5385SOL    HW128133   8.681   2.423   7.321 -1.0469 -2.9166  0.3093
 5385SOL    HW228134   8.643   2.516   7.208  1.0269  0.1253  1.9871
 5386SOL     OW28135   1.540   5.053   7.039  0.0365  0.1621  0.4525
 5386SOL    HW128136   1.550   4.978   7.097 -1.0283 -0.0341  0.3900
 5386SOL    HW228137   1.570   5.127   7.091  2.6612 -0.4609 -0.0196
 5387SOL     OW28138   2.571   2.579   2.157  0.1893  0.1264 -0.0461
 5387SOL    HW128139   2.578   2.617   2.070  0.5277  0.4706  0.1272
 5387SOL    HW228140   2.543   2.652   2.213 -0.7837 -0.2633  0.0085
 5388SOL     OW28141   5.316  10.218   6.768  0.2186  0.1028 -0.0021
 5388SOL    HW128142   5.249  10.162   6.808 -0.0749 -0.2623 -0.9941
 5388SOL    HW228143   5.395  10.164   6.768  0.7101  0.7575  1.7549
 5389SOL     OW28144   7.670   8.710  10.293 -0.1369 -0.3049  0.2591
 5389SOL    HW128145   7.695   8.618  10.306  1.0219 -0.0480 -0.0709
 5389SOL    HW228146   7.583   8.717  10.333 -1.2849 -2.1055 -1.6744
 5390SOL     OW28147   6.776   6.383   5.810 -0.6494 -0.1032 -0.3702
 5390SOL    HW128148   6.785   6.367   5.904  0.8879 -3.1429 -0.9079
 5390SOL    HW228149   6.865   6.398   5.780 -1.0607  0.2363 -1.4621
 5391SOL     OW28150   3.674   2.347   2.334 -0.5282  0.4735 -0.0401
 5391SOL    HW128151   3.606   2.347   2.401 -1.0324  1.4700 -0.5374
 5391SOL    HW228152   3.638   2.294   2.263  0.1564 -0.8987  0.5853
 5392SOL     OW28153   6.748   9.320   8.832  0.2975  0.1039  0.0630
 5392SOL    HW128154   6.718   9.293   8.745  0.9467  2.3945 -0.9434
 5392SOL    HW228155   6.839   9.346   8.819  1.0156 -1.3226  1.8784
 5393SOL     OW28156   2.846   3.022   8.456  0.1902  0.2600 -0.5053
 5393SOL    HW128157   2.832   3.034   8.362  1.3751 -0.2976 -0.7762
 5393SOL    HW228158   2.881   2.933   8.464  1.5609  0.8289  0.2806
 5394SOL     OW28159   5.313   8.138   6.148  0.3708 -0.5140 -0.1990
 5394SOL    HW128160   5.300   8.045   6.130  0.2820 -0.8756  1.6226
 5394SOL    HW228161   5.268   8.154   6.231  1.4180  0.8840  0.1437
 5395SOL     OW28162   3.513   0.625   6.668 -0.5237 -0.3364 -0.0037
 5395SOL    HW128163   3.433   0.635   6.719  0.2881 -1.6227  1.6086
 5395SOL    HW228164   3.573   0.692   6.703 -0.8133  0.5486 -1.1276
 5396SOL     OW28165   0.256   9.204   7.122 -0.2614 -0.1568 -0.5727
 5396SOL    HW128166   0.299   9.289   7.128 -1.7526  0.5722  0.4154
 5396SOL    HW228167   0.320   9.148   7.080  1.6470  0.8759  0.7942
 5397SOL     OW28168   2.782   8.014   0.707 -0.2111 -0.2591 -0.3351
 5397SOL    HW128169   2.790   8.058   0.622  1.2173  0.4500  0.1343
 5397SOL    HW228170   2.732   8.076   0.760 -3.0167 -1.6208 -1.2174
 5398SOL     OW28171   6.831   0.265   6.438  0.2694  0.4982  0.0305
 5398SOL    HW128172   6.893   0.315   6.384  0.2827  1.4690  0.9008
 5398SOL    HW228173   6.751   0.317   6.437  0.4658  0.8934  1.4326
 5399SOL     OW28174   4.907   2.326   5.804 -0.8242  0.0656 -0.3057
 5399SOL    HW128175   4.902   2.270   5.726  0.9222 -0.2901 -0.2076
 5399SOL    HW228176   4.938   2.410   5.770 -0.2202 -0.0415 -0.0237
 5400SOL     OW28177   4.048   2.688   4.688 -0.3790 -0.5939  0.0481
 5400SOL    HW128178   3.983   2.623   4.716 -1.5356  1.1163  1.5353
 5400SOL    HW228179   4.015   2.771   4.722  1.2257  0.7501 -1.5032
 5401SOL     OW28180  10.205   6.349   3.382 -0.4227  0.1545  0.0205
 5401SOL    HW128181  10.220   6.254   3.377 -0.0927  0.1766  0.5262
 5401SOL    HW228182  10.112   6.359   3.366 -0.5212 -0.2855  0.2967
 5402SOL     OW28183   5.477   9.954   2.734 -0.0310 -0.3912 -0.0568
 5402SOL    HW128184   5.405   9.920   2.789 -0.4793  1.6294  0.6932
 5402SOL    HW228185   5.435   9.972   2.650  0.2050 -1.5734 -0.4544
 5403SOL     OW28186   5.439   5.486   6.939 -0.3913 -0.4453 -0.0750
 5403SOL    HW128187   5.365   5.498   6.999 -0.2664 -0.1517  0.0230
 5403SOL    HW228188   5.408   5.422   6.876 -0.0887 -1.6999  1.0121
 5404SOL     OW28189   1.898   3.941   4.768 -0.3149 -0.1099  0.2544
 5404SOL    HW128190   1.882   3.922   4.861 -0.8639  0.6052  0.3147
 5404SOL    HW228191   1.864   3.865   4.722 -3.4420  1.0190  0.4202
 5405SOL     OW28192   4.443   8.785   7.913  0.2682  0.3573  0.6978
 5405SOL    HW128193   4.368   8.804   7.969  0.8631  0.8790  1.3481
 5405SOL    HW228194   4.500   8.861   7.924 -0.7352  1.7330 -2.6440
 5406SOL     OW28195   7.435   0.564   1.299  0.1619  0.8078  0.3011
 5406SOL    HW128196   7.527   0.540   1.308  0.1995  0.8944  0.1380
 5406SOL    HW228197   7.407   0.585   1.389 -0.5418 -2.1762  0.9028
 5407SOL     OW28198   3.075   5.734   9.569 -0.2492 -0.3573  0.3410
 5407SOL    HW128199   3.101   5.808   9.515  1.3030  0.2881  1.8619
 5407SOL    HW228200   3.040   5.670   9.507 -0.7527  1.2561 -1.1097
 5408SOL     OW28201   3.123   6.627   3.436 -0.7179  0.1817  0.4080
 5408SOL    HW128202   3.061   6.565   3.398 -0.2815  0.5292 -0.9054
 5408SOL    HW228203   3.206   6.609   3.391 -0.8013  2.3350 -0.7324
 5409SOL     OW28204   3.262   1.967   9.478  0.1734 -0.2679  0.5267
 5409SOL    HW128205   3.218   2.017   9.548 -2.1849  0.2207 -1.1898
 5409SOL    HW228206   3.198   1.901   9.452  1.0011 -0.4696 -1.1158
 5410SOL     OW28207   6.784   0.974  10.058  0.5193 -0.3064  0.2033
 5410SOL    HW128208   6.718   0.971   9.989  0.5632  1.4964  0.0535
 5410SOL    HW228209   6.831   0.891  10.049 -1.1811 -1.2759 -0.1913
 5411SOL     OW28210   9.836   1.091   7.266  0.0363  0.2122 -0.3978
 5411SOL    HW128211   9.811   1.165   7.209  0.0720  0.1762 -0.4606
 5411SOL    HW228212   9.761   1.080   7.325 -0.5953 -0.6368 -1.3270
 5412SOL     OW28213   0.893   6.829   1.705 -0.3727  0.7857 -0.8426
 5412SOL    HW128214   0.949   6.899   1.736  1.1453 -0.2789 -1.0570
 5412SOL    HW228215   0.818   6.830   1.764  1.0035  0.7346  1.0094
 5413SOL     OW28216   9.203   9.227   6.511 -0.5207 -0.2787  0.3742
 5413SOL    HW128217   9.190   9.321   6.501 -1.5176 -0.2145  1.9847
 5413SOL    HW228218   9.141   9.187   6.451 -1.0693  0.0987  0.6816
 5414SOL     OW28219   7.851   3.505   8.893 -0.1829  0.2562 -0.3453
 5414SOL    HW128220   7.909   3.519   8.818  0.2937 -0.9601 -0.2389
 5414SOL    HW228221   7.765   3.486   8.855  0.3648 -1.7814 -0.6865
 5415SOL     OW28222   5.663   2.291  10.071  0.4419  0.3685 -0.1100
 5415SOL    HW128223   5.699   2.226  10.011 -0.2626  0.5328 -0.7284
 5415SOL    HW228224   5.666   2.374  10.022 -1.2115  0.3035 -0.4027
 5416SOL     OW28225   9.955   7.175   2.173 -0.0056  0.3520  0.1147
 5416SOL    HW128226   9.973   7.249   2.231  1.1363 -0.3192  0.6556
 5416SOL    HW228227   9.914   7.110   2.231 -1.1504  0.6029 -0.3899
 5417SOL     OW28228   0.901   7.455   6.665 -0.1301 -0.8180 -0.5521
 5417SOL    HW128229   0.820   7.480   6.709  0.7206 -1.6178  1.6203
 5417SOL    HW228230   0.872   7.421   6.580 -1.9518 -0.1137 -0.2720
 5418SOL     OW28231   0.167   6.747   0.938  0.2213 -0.0383 -1.2454
 5418SOL    HW128232   0.126   6.832   0.953 -0.5435 -0.5178 -0.5492
 5418SOL    HW228233   0.202   6.754   0.849  1.7472  1.6238 -0.5734
 5419SOL     OW28234   9.945   2.912   1.458  0.2450 -0.0968  0.4658
 5419SOL    HW128235   9.883   2.971   1.500  1.1077  0.6191  0.7664
 5419SOL    HW228236   9.933   2.828   1.502 -1.3009 -0.2956 -0.2599
 5420SOL     OW28237   5.915   6.628   1.367 -0.1226  0.0884  0.4547
 5420SOL    HW128238   5.970   6.681   1.425  1.3128 -0.9285  0.0822
 5420SOL    HW228239   5.888   6.689   1.297 -0.6400  0.9375  1.3686
 5421SOL     OW28240   8.994   9.469   3.695 -0.5800  0.5132  0.1507
 5421SOL    HW128241   8.954   9.446   3.779  0.4102  1.0605  0.7851
 5421SOL    HW228242   8.952   9.552   3.670 -0.7349  0.4500  0.2026
 5422SOL     OW28243   0.312   1.939   0.381 -0.6204  0.4929 -0.1593
 5422SOL    HW128244   0.340   1.848   0.384 -0.2343  0.5857 -0.7394
 5422SOL    HW228245   0.350   1.979   0.459  0.0294  0.3807 -0.4113
 5423SOL     OW28246   6.876   0.532   6.972  0.2615 -0.0062  0.0510
 5423SOL    HW128247   6.955   0.578   7.001 -0.6266 -0.0333  2.8598
 5423SOL    HW228248   6.906   0.471   6.904  2.3397  1.1148 -0.0886
 5424SOL     OW28249   6.021   5.660   7.194 -0.4100 -0.3354  0.0500
 5424SOL    HW128250   6.087   5.623   7.252 -0.6641  0.5967  0.9600
 5424SOL    HW228251   6.043   5.625   7.107  1.0454 -0.3381  0.3975
 5425SOL     OW28252   8.187   0.332   9.089 -0.0544  0.1691  0.9886
 5425SOL    HW128253   8.157   0.264   9.030 -0.2497 -1.0417  2.4138
 5425SOL    HW228254   8.139   0.411   9.062 -1.1303 -0.6668  0.4006
 5426SOL     OW28255   1.680   0.284   4.101 -0.4759 -0.3716  0.0985
 5426SOL    HW128256   1.668   0.235   4.182 -0.3577  0.0827  0.3948
 5426SOL    HW228257   1.758   0.245   4.061 -0.3613 -0.4068  0.3510
 5427SOL     OW28258   7.764   3.196   9.921 -0.0830  0.3775 -0.2757
 5427SOL    HW128259   7.811   3.252   9.859 -1.3971  0.2487 -1.4326
 5427SOL    HW228260   7.733   3.122   9.868  2.4128 -2.0458  1.3555
 5428SOL     OW28261   5.516   7.472   0.852  0.0175 -0.0619  0.0305
 5428SOL    HW128262   5.508   7.393   0.906  1.1961  0.2832  0.7574
 5428SOL    HW228263   5.505   7.544   0.914 -0.8137  0.3564 -0.5868
 5429SOL     OW28264   3.022   6.271  10.313 -0.3177  0.1330  0.3460
 5429SOL    HW128265   3.114   6.245  10.302 -0.5754 -0.5774 -0.1475
 5429SOL    HW228266   2.983   6.203  10.367 -1.2627 -1.1960 -1.8604
 5430SOL     OW28267   9.368   2.666   4.108  0.4939  0.0622 -0.4453
 5430SOL    HW128268   9.328   2.753   4.097  2.4685  1.2114  0.8304
 5430SOL    HW228269   9.305   2.606   4.068 -0.7155  2.1114 -1.8550
 5431SOL     OW28270   5.622   8.923   0.499 -0.1220 -0.0657  0.2304
 5431SOL    HW128271   5.606   8.989   0.431  0.4708 -1.1824 -1.0573
 5431SOL    HW228272   5.685   8.863   0.458 -0.2204 -1.1133  1.5648
 5432SOL     OW28273   2.493   1.936   8.225 -0.1945 -0.4508  0.1474
 5432SOL    HW128274   2.402   1.946   8.251 -0.5676 -2.0298 -0.4463
 5432SOL    HW228275   2.543   1.962   8.302 -1.0437  2.0552 -0.0324
 5433SOL     OW28276   8.320   9.362   8.229 -0.0706  0.5348  0.0463
 5433SOL    HW128277   8.357   9.427   8.168 -0.5996  0.5613 -0.2499
 5433SOL    HW228278   8.323   9.280   8.181 -1.6115  0.7603 -0.5069
 5434SOL     OW28279   7.731   2.806   4.591  0.2036 -0.4790  0.0838
 5434SOL    HW128280   7.780   2.861   4.652 -2.2895 -0.3300  2.1088
 5434SOL    HW228281   7.738   2.718   4.629  0.7159 -0.8598 -0.8611
 5435SOL     OW28282   7.084   8.486   1.182  0.0948  0.0772 -0.0326
 5435SOL    HW128283   7.052   8.559   1.127  0.5676  1.0748  0.9805
 5435SOL    HW228284   7.165   8.458   1.139 -0.1153  0.1140 -0.4611
 5436SOL     OW28285   0.643   1.482   1.087 -0.4927  0.3056 -0.0166
 5436SOL    HW128286   0.562   1.431   1.086  0.7796 -1.8773  0.0092
 5436SOL    HW228287   0.666   1.488   1.180 -0.1223  0.0125 -0.0850
 5437SOL     OW28288   6.622   4.685   0.487 -0.0506 -0.3836  0.2359
 5437SOL    HW128289   6.560   4.715   0.554  1.0951 -0.4824  1.3920
 5437SOL    HW228290   6.620   4.590   0.493  0.4559 -0.3823  0.5395
 5438SOL     OW28291   5.366   5.585   0.600  0.2711  0.1237 -0.2757
 5438SOL    HW128292   5.388   5.639   0.675  0.3691 -0.7570  0.3437
 5438SOL    HW228293   5.271   5.595   0.589  0.0009 -0.9531  0.9377
 5439SOL     OW28294   5.199   7.159   4.298 -0.4733  0.6354 -0.0135
 5439SOL    HW128295   5.194   7.212   4.218  0.2507 -0.6872 -0.9746
 5439SOL    HW228296   5.114   7.170   4.339 -2.1357 -1.1365 -2.6387
 5440SOL     OW28297   5.990   1.928   7.336  0.2356 -0.4936 -0.3197
 5440SOL    HW128298   6.083   1.947   7.336  0.3576 -1.0805 -0.3946
 5440SOL    HW228299   5.983   1.837   7.367 -0.2673 -0.6394 -0.8364
 5441SOL     OW28300   2.984   8.538   7.314  0.1014  0.8065  0.2209
 5441SOL    HW128301   3.078   8.535   7.298 -0.0220 -0.7411 -0.3964
 5441SOL    HW228302   2.966   8.460   7.366 -1.2228 -0.6451 -2.2138
 5442SOL     OW28303   8.213   7.188   2.342  0.1506  0.0093 -0.2003
 5442SOL    HW128304   8.241   7.097   2.332  0.1151 -0.1902  1.2669
 5442SOL    HW228305   8.232   7.229   2.257 -2.3040 -1.9952 -1.8803
 5443SOL     OW28306   8.137   1.607   8.739 -0.1040  0.0171 -0.1334
 5443SOL    HW128307   8.046   1.583   8.720 -0.3052  1.2957 -0.9264
 5443SOL    HW228308   8.172   1.637   8.656  1.2715 -1.0489  0.0224
 5444SOL     OW28309   4.466   0.053   1.328  0.5602 -0.0967  0.2961
 5444SOL    HW128310   4.500  -0.029   1.293  1.8656  0.9493 -1.0051
 5444SOL    HW228311   4.397   0.080   1.267  2.7291  1.6446 -1.5974
 5445SOL     OW28312   9.832   8.345   1.609  0.0502  0.4263  0.2215
 5445SOL    HW128313   9.904   8.376   1.663 -0.7398  0.8951  1.0228
 5445SOL    HW228314   9.810   8.420   1.553  0.6827  0.0316 -0.5846
 5446SOL     OW28315   9.373   9.694   3.095  0.3384  0.1482  0.0593
 5446SOL    HW128316   9.300   9.733   3.144  1.7434  0.3052  2.1461
 5446SOL    HW228317   9.333   9.620   3.049 -1.7764  2.1436 -1.5650
 5447SOL     OW28318   7.922   5.921   9.077 -0.6171  0.2405 -0.2376
 5447SOL    HW128319   7.871   5.863   9.134  1.0078 -2.3271 -1.2032
 5447SOL    HW228320   8.006   5.932   9.122  0.0454 -0.3797 -1.2715
 5448SOL     OW28321   9.470   6.503   2.588  0.6792  0.2244 -0.0073
 5448SOL    HW128322   9.530   6.564   2.544  3.8884 -1.8351  1.1061
 5448SOL    HW228323   9.453   6.542   2.673  1.2740  0.4099  0.0298
 5449SOL     OW28324  10.060   4.748   8.149  0.2607 -0.0504 -0.3958
 5449SOL    HW128325   9.977   4.730   8.194  0.1929  0.0359 -0.4870
 5449SOL    HW228326  10.101   4.663   8.139 -0.5158 -0.2887 -1.7289
 5450SOL     OW28327   0.024   0.484   4.149  0.9076 -0.6712  0.2488
 5450SOL    HW128328   0.063   0.398   4.163  0.3705 -0.7150  1.6951
 5450SOL    HW228329  -0.024   0.502   4.230  1.1106  1.0435  0.0301
 5451SOL     OW28330   7.981   1.754   0.726 -0.3642  0.2458 -0.0795
 5451SOL    HW128331   7.987   1.750   0.822  0.1728  1.7204 -0.0161
 5451SOL    HW228332   8.038   1.683   0.696 -2.0187 -1.4733  0.6672
 5452SOL     OW28333   7.265   2.761   0.940 -0.0304 -0.1257  0.2215
 5452SOL    HW128334   7.172   2.765   0.920  0.3425  1.7676 -1.4666
 5452SOL    HW228335   7.269   2.748   1.035 -1.9807 -1.2028  0.2044
 5453SOL     OW28336   0.581   6.454   2.165 -0.4017 -0.1427 -0.4246
 5453SOL    HW128337   0.533   6.373   2.150  1.3664 -0.9280 -2.2052
 5453SOL    HW228338   0.527   6.522   2.124 -2.5238 -0.0936  2.1426
 5454SOL     OW28339   9.048   7.015   3.569  0.2302  0.2721 -0.0864
 5454SOL    HW128340   9.114   7.048   3.508 -0.5277  0.8182 -0.6260
 5454SOL    HW228341   9.064   7.063   3.650  0.5231  0.3620 -0.1975
 5455SOL     OW28342   9.351   8.256   5.805 -0.2997 -0.3568 -0.1848
 5455SOL    HW128343   9.287   8.207   5.856 -1.5056  0.5281 -0.7722
 5455SOL    HW228344   9.427   8.199   5.800 -0.8354 -1.2266  1.0050
 5456SOL     OW28345   2.636   1.832   6.316  0.7107 -0.0282  0.3803
 5456SOL    HW128346   2.555   1.881   6.305  0.2566 -0.6334  0.9673
 5456SOL    HW228347   2.609   1.741   6.321  1.6912 -0.6346 -2.8537
 5457SOL     OW28348   5.676   1.103   9.372 -0.2192 -0.2288 -0.5871
 5457SOL    HW128349   5.602   1.130   9.426 -0.2848  0.0715 -0.8256
 5457SOL    HW228350   5.680   1.168   9.301  0.3120 -0.2012 -0.5398
 5458SOL     OW28351   1.252   1.664   9.647 -0.0191 -0.3496 -0.8281
 5458SOL    HW128352   1.321   1.599   9.657 -1.5165 -1.7843  0.8313
 5458SOL    HW228353   1.267   1.726   9.718  0.3381  0.1055 -1.2957
 5459SOL     OW28354   2.966   3.915   5.430  0.1772  0.6687  0.1814
 5459SOL    HW128355   2.890   3.908   5.373  0.4462  1.1541 -0.2347
 5459SOL    HW228356   2.978   3.826   5.464  0.2335  0.2982 -0.7887
 5460SOL     OW28357   8.743   8.947   9.317  0.4711  0.0485  0.1816
 5460SOL    HW128358   8.664   8.951   9.372  0.2217 -2.0729  0.0634
 5460SOL    HW228359   8.769   9.038   9.307 -1.8774  0.8183  0.3500
 5461SOL     OW28360   9.680   2.215   1.068  0.1676  0.0976  0.0564
 5461SOL    HW128361   9.681   2.131   1.115  0.8581  0.8352  1.4007
 5461SOL    HW228362   9.617   2.269   1.116  1.3206  1.0620  0.5345
 5462SOL     OW28363   3.583   5.696   9.408  0.3487 -0.2753 -0.2355
 5462SOL    HW128364   3.606   5.774   9.358  0.0816 -0.0385  0.0037
 5462SOL    HW228365   3.512   5.655   9.358 -1.0586  0.8430  0.7557
 5463SOL     OW28366   2.581   8.079   5.260  0.0178 -0.1974  0.6373
 5463SOL    HW128367   2.516   8.026   5.213  1.0843 -0.8689 -0.1413
 5463SOL    HW228368   2.536   8.107   5.339 -1.9975  1.2703 -0.9124
 5464SOL     OW28369   0.112   0.514   8.396  0.2161  0.6050 -0.6566
 5464SOL    HW128370   0.127   0.446   8.330 -1.2642 -0.1374 -0.2652
 5464SOL    HW228371   0.141   0.475   8.478 -0.9252  0.3032 -0.3820
 5465SOL     OW28372   3.431   8.695   4.071 -0.0111 -0.0077  0.0433
 5465SOL    HW128373   3.516   8.732   4.096  0.4698  1.2791 -2.9731
 5465SOL    HW228374   3.375   8.771   4.059 -0.4814 -0.5736 -1.5382
 5466SOL     OW28375   1.291   8.598   8.543 -0.1851 -0.3345 -0.0902
 5466SOL    HW128376   1.200   8.608   8.514 -0.4576 -1.8220  0.1774
 5466SOL    HW228377   1.341   8.595   8.461 -0.7123 -2.3065 -0.3948
 5467SOL     OW28378   8.259   9.558  10.234 -0.2499  0.4041 -0.0365
 5467SOL    HW128379   8.268   9.531  10.143 -0.4229  2.1413 -0.6151
 5467SOL    HW228380   8.193   9.627  10.232  0.4576  1.1653  1.2482
 5468SOL     OW28381   7.218   4.537   6.239 -0.0172 -0.2780  0.0896
 5468SOL    HW128382   7.135   4.498   6.212  1.2630 -2.4568 -0.9144
 5468SOL    HW228383   7.195   4.627   6.263 -2.7256 -0.9565  0.3324
 5469SOL     OW28384   3.240   6.388   6.436  0.1868  0.0820  0.1847
 5469SOL    HW128385   3.330   6.421   6.435 -0.2718  1.6393  2.3397
 5469SOL    HW228386   3.240   6.322   6.505 -0.0637 -0.7850 -0.6389
 5470SOL     OW28387   9.310   6.377   8.371 -0.2162 -0.4262 -0.3063
 5470SOL    HW128388   9.283   6.387   8.280  0.2227  0.8089 -0.3120
 5470SOL    HW228389   9.346   6.462   8.395 -2.1733 -0.0691  1.6375
 5471SOL     OW28390   3.560   9.690   2.156  0.3836  0.1168 -0.3123
 5471SOL    HW128391   3.465   9.693   2.146  0.2751 -2.6898 -0.9590
 5471SOL    HW228392   3.594   9.729   2.075 -0.3029 -1.1414 -1.2529
 5472SOL     OW28393   9.655   1.206   0.557  0.1560 -0.3357  0.5140
 5472SOL    HW128394   9.704   1.236   0.481 -0.6201 -1.6070 -0.5308
 5472SOL    HW228395   9.671   1.112   0.561  0.7347 -0.1999  2.3601
 5473SOL     OW28396   4.783   0.387   4.541  0.4252 -0.0914 -0.1514
 5473SOL    HW128397   4.790   0.456   4.607 -0.2291  0.4070 -0.5946
 5473SOL    HW228398   4.783   0.306   4.592 -1.1250  0.3160  0.5563
 5474SOL     OW28399   4.619   4.790   0.955  0.3274  0.1136  0.1534
 5474SOL    HW128400   4.598   4.850   1.026  1.5471 -0.7656  1.3004
 5474SOL    HW228401   4.715   4.782   0.957  0.3500 -0.2649 -1.3028
 5475SOL     OW28402   2.734   4.687   6.373 -0.8479 -0.6028  0.1031
 5475SOL    HW128403   2.828   4.669   6.373 -0.9126 -0.9877 -0.3626
 5475SOL    HW228404   2.711   4.699   6.465 -0.4174 -0.9222  0.2582
 5476SOL     OW28405   3.270   3.171   7.524 -0.5945 -0.0489 -0.2975
 5476SOL    HW128406   3.228   3.131   7.447 -0.0956 -2.2269  0.4870
 5476SOL    HW228407   3.330   3.104   7.556 -0.6423  0.8757  1.8983
 5477SOL     OW28408   3.414   5.659   7.471  0.5203  0.3078  0.0357
 5477SOL    HW128409   3.403   5.750   7.441  0.6177 -0.0079 -1.0074
 5477SOL    HW228410   3.500   5.657   7.512  0.1733  0.8785  0.8097
 5478SOL     OW28411   9.504   8.162   7.960 -0.1869 -0.1119 -0.6702
 5478SOL    HW128412   9.549   8.120   7.887  2.0162  0.5302  0.2161
 5478SOL    HW228413   9.477   8.090   8.017  1.0445 -0.4850 -0.5276
 5479SOL     OW28414   6.769   4.292   8.776  0.2772 -0.1202 -0.4903
 5479SOL    HW128415   6.865   4.295   8.778  0.3615 -0.3924  3.4870
 5479SOL    HW228416   6.748   4.215   8.723  2.3482 -1.1693  0.1050
 5480SOL     OW28417   1.038   6.948   7.681  0.5796  0.3528  0.0435
 5480SOL    HW128418   1.057   7.040   7.701  0.9945  0.3038 -0.1266
 5480SOL    HW228419   1.108   6.899   7.724  0.0245  0.0728  0.6404
 5481SOL     OW28420   4.186   0.240   2.418  0.5514  0.4777  0.5103
 5481SOL    HW128421   4.199   0.170   2.354 -2.2283  0.4607 -0.1534
 5481SOL    HW228422   4.168   0.195   2.500  1.3896  0.4811  0.7085
 5482SOL     OW28423   9.764   7.177   6.337  0.1368  0.3968 -0.6379
 5482SOL    HW128424   9.727   7.121   6.405  0.3523  2.4257  1.2396
 5482SOL    HW228425   9.777   7.118   6.262 -0.9310 -1.7191  0.7502
 5483SOL     OW28426  10.288   3.284   5.175 -0.4176  0.5026  0.7605
 5483SOL    HW128427  10.373   3.271   5.132 -1.6472  0.4405 -1.8551
 5483SOL    HW228428  10.224   3.274   5.104 -2.6489  0.1339  2.7254
 5484SOL     OW28429   5.706   3.090   7.309  0.8585 -0.5388  0.4462
 5484SOL    HW128430   5.652   3.018   7.276  1.0463 -1.0690  1.2821
 5484SOL    HW228431   5.748   3.055   7.387 -1.5726  1.4517  2.8370
 5485SOL     OW28432   5.775   6.078   0.578  0.3665  0.1170 -0.1012
 5485SOL    HW128433   5.836   6.006   0.567  1.6176  1.0413  0.5927
 5485SOL    HW228434   5.693   6.046   0.539  1.4464 -0.9062 -1.6346
 5486SOL     OW28435   3.250   0.193   5.649  0.4494  0.1003  0.0541
 5486SOL    HW128436   3.327   0.167   5.597  0.0691 -0.0379 -0.4481
 5486SOL    HW228437   3.177   0.148   5.608  0.1500 -0.0739  0.7717
 5487SOL     OW28438   8.587   8.528   3.464  0.2113  0.0535  0.7744
 5487SOL    HW128439   8.679   8.503   3.472  0.0046 -1.5854 -1.0236
 5487SOL    HW228440   8.581   8.614   3.506  2.6809  0.4669  0.4423
 5488SOL     OW28441   1.802   5.970   3.489 -0.2354 -0.0281  0.1191
 5488SOL    HW128442   1.727   5.915   3.511 -1.4506  0.7139 -1.8716
 5488SOL    HW228443   1.764   6.056   3.469  1.0923  0.3028 -1.1733
 5489SOL     OW28444   1.806   9.850   3.394 -0.1854 -0.1551  0.2497
 5489SOL    HW128445   1.737   9.898   3.439 -0.2763  1.3147 -1.3672
 5489SOL    HW228446   1.783   9.854   3.301 -0.3946 -3.7097  0.0065
 5490SOL     OW28447   7.304   7.191   0.471  0.0276  0.1262  0.1232
 5490SOL    HW128448   7.294   7.186   0.566  1.1386  1.4673  0.3430
 5490SOL    HW228449   7.220   7.223   0.439 -0.4544 -0.6248  0.6049
 5491SOL     OW28450  10.308   7.452   6.104  0.2157  0.1506 -0.0368
 5491SOL    HW128451  10.293   7.456   6.010 -2.1932  0.7148  0.3025
 5491SOL    HW228452  10.249   7.383   6.135  1.0490 -0.0946  1.0693
 5492SOL     OW28453   3.823   3.284   8.933  0.4903 -0.1231  0.5259
 5492SOL    HW128454   3.764   3.217   8.968  1.4630 -0.3693  1.7632
 5492SOL    HW228455   3.910   3.244   8.935  0.6217 -0.1294 -2.2093
 5493SOL     OW28456  10.236   4.146   0.147  0.0552 -0.4726  0.1903
 5493SOL    HW128457  10.219   4.228   0.194 -1.3162  0.3084 -1.5359
 5493SOL    HW228458  10.283   4.174   0.068  0.8936 -1.5528  0.2794
 5494SOL     OW28459   4.627   2.285   0.833 -0.0768 -0.1172 -0.0431
 5494SOL    HW128460   4.616   2.355   0.897  1.5863  0.8079 -0.6936
 5494SOL    HW228461   4.554   2.296   0.772  0.9021  1.9965 -0.9434
 5495SOL     OW28462   0.498   3.134   9.120 -0.2990 -0.5376 -0.6368
 5495SOL    HW128463   0.483   3.041   9.105 -0.2737 -0.6349 -0.0975
 5495SOL    HW228464   0.535   3.138   9.209 -1.4327  0.0782 -0.1675
 5496SOL     OW28465   9.912   5.139   4.380  0.3276  0.0945 -0.0430
 5496SOL    HW128466   9.830   5.183   4.360  0.2277 -0.1414 -0.1512
 5496SOL    HW228467   9.948   5.188   4.454  1.2215  1.6340 -1.4291
 5497SOL     OW28468   5.796   4.653   1.668  0.9943 -0.2809  0.2138
 5497SOL    HW128469   5.882   4.678   1.702  0.4704 -0.0454  1.4050
 5497SOL    HW228470   5.754   4.606   1.740  0.2040 -0.5875 -0.4277
 5498SOL     OW28471   3.951   8.297   7.154 -0.4719  0.0127 -0.0144
 5498SOL    HW128472   3.927   8.346   7.076  0.0268 -0.9457 -0.7846
 5498SOL    HW228473   3.870   8.291   7.205 -0.6684  1.1267 -0.1621
 5499SOL     OW28474   1.553   8.256   8.617 -0.1097 -0.2566  0.0943
 5499SOL    HW128475   1.519   8.203   8.544 -3.1133 -0.9302  1.8067
 5499SOL    HW228476   1.600   8.193   8.672  0.7798 -0.0570 -0.4123
 5500SOL     OW28477   9.252   9.398   5.429 -0.2387  0.4667 -0.6427
 5500SOL    HW128478   9.320   9.379   5.495  0.6917  0.0438 -1.6946
 5500SOL    HW228479   9.254   9.494   5.421 -0.9570  0.5989  0.5430
 5501SOL     OW28480   1.823   6.525   6.265 -0.0976 -0.0143 -0.3332
 5501SOL    HW128481   1.878   6.459   6.307 -1.6214 -0.8239  0.4509
 5501SOL    HW228482   1.826   6.601   6.324 -2.0200 -1.0517  1.2157
 5502SOL     OW28483   9.196   6.082   8.899 -0.0440  0.6202  0.1100
 5502SOL    HW128484   9.190   6.109   8.807 -0.1591  1.0730  0.2429
 5502SOL    HW228485   9.236   5.996   8.897 -0.2290  0.5432 -0.3804
 5503SOL     OW28486   8.504   4.693   1.037 -0.7875 -0.0251  0.3481
 5503SOL    HW128487   8.587   4.740   1.044 -0.1655 -0.9564 -0.5155
 5503SOL    HW228488   8.491   4.682   0.943 -3.0665  2.0970  0.2934
 5504SOL     OW28489   2.993   7.527   3.526  0.6889  0.5901  0.2248
 5504SOL    HW128490   2.943   7.473   3.588  0.6308  0.9434  0.4844
 5504SOL    HW228491   2.975   7.487   3.440  0.1792  0.5495  0.3463
 5505SOL     OW28492   4.958   0.638   6.515 -0.0805 -0.4997  0.4598
 5505SOL    HW128493   4.989   0.627   6.426 -0.9775  0.0238  0.0651
 5505SOL    HW228494   4.928   0.551   6.541 -3.6755  0.0066 -1.2908
 5506SOL     OW28495   1.133   4.258   9.392 -0.0184 -0.3993 -0.0023
 5506SOL    HW128496   1.042   4.286   9.395  0.0036 -0.1878 -1.0077
 5506SOL    HW228497   1.172   4.309   9.322  1.0591  0.0163  0.8682
 5507SOL     OW28498   9.894  10.329   6.036  0.0295  0.0497  0.1230
 5507SOL    HW128499   9.851  10.244   6.040 -0.2960  0.0955 -1.4526
 5507SOL    HW228500   9.917  10.339   5.943  0.9071  1.2660  0.4479
 5508SOL     OW28501   1.896   9.019   7.233  0.0400  0.2595  0.0847
 5508SOL    HW128502   1.878   9.112   7.250 -1.0604  0.3427 -1.3303
 5508SOL    HW228503   1.812   8.984   7.203  0.8592 -0.7762 -1.0810
 5509SOL     OW28504   5.759   9.178   4.102  0.0731  0.3728 -0.1263
 5509SOL    HW128505   5.669   9.165   4.070  0.8429 -1.5534 -1.7576
 5509SOL    HW228506   5.752   9.250   4.164 -2.5395  0.5271 -0.4683
 5510SOL     OW28507   1.040   4.354   3.952  0.4016  0.3388 -0.2007
 5510SOL    HW128508   1.078   4.331   3.868  0.0982  1.6998 -0.7346
 5510SOL    HW228509   1.106   4.330   4.017  0.2423 -1.6310 -0.7243
 5511SOL     OW28510   1.575   0.384   1.573  0.2072  0.6808 -0.0020
 5511SOL    HW128511   1.493   0.339   1.591 -0.2822  1.6780  0.3435
 5511SOL    HW228512   1.642   0.316   1.581 -0.4165  0.1925  1.3605
 5512SOL     OW28513   6.326   6.505   3.773  0.0518 -0.0453  0.4086
 5512SOL    HW128514   6.373   6.508   3.856  0.5464 -0.5856  0.1594
 5512SOL    HW228515   6.380   6.556   3.713  0.7677 -1.3134 -0.0784
 5513SOL     OW28516   9.614   9.686   7.023  0.1667  0.6483 -0.3543
 5513SOL    HW128517   9.672   9.649   7.090 -0.1766  0.4171 -0.1866
 5513SOL    HW228518   9.585   9.611   6.972 -1.0689  0.5885  0.4006
 5514SOL     OW28519   7.635   4.902   6.724  0.0567  0.0257  0.3172
 5514SOL    HW128520   7.598   4.970   6.668 -0.5619  1.8795  2.8287
 5514SOL    HW228521   7.683   4.845   6.664 -0.9413  1.6191 -2.1247
 5515SOL     OW28522   8.547   9.862   9.415  0.6638 -0.8182  0.7910
 5515SOL    HW128523   8.630   9.899   9.387  0.1809  0.6835  1.2055
 5515SOL    HW228524   8.481   9.912   9.366  0.0025 -2.4164 -0.0152
 5516SOL     OW28525   8.442   8.124   6.152  0.2273  0.2706  0.1723
 5516SOL    HW128526   8.478   8.194   6.207 -0.7072  1.3019 -0.4771
 5516SOL    HW228527   8.505   8.115   6.081 -0.1724  1.2497 -0.3302
 5517SOL     OW28528   2.864   5.210   7.089  0.0047  0.3003 -0.0147
 5517SOL    HW128529   2.920   5.133   7.086 -2.0957 -1.3985  1.1996
 5517SOL    HW228530   2.910   5.271   7.147  1.0969 -0.5743  0.0717
 5518SOL     OW28531   9.153   8.350   5.009 -0.8317  0.4690 -0.4281
 5518SOL    HW128532   9.190   8.303   5.083 -0.0974  1.0024 -0.4405
 5518SOL    HW228533   9.214   8.423   4.994 -1.0620  0.4727 -1.4373
 5519SOL     OW28534   9.102   2.272   7.629 -0.1207  0.1305 -0.0522
 5519SOL    HW128535   9.031   2.213   7.604 -0.9378  0.7317  0.7850
 5519SOL    HW228536   9.127   2.244   7.717 -0.0384  0.5751  0.0706
 5520SOL     OW28537   7.521   9.750   0.642  0.0151  0.3061  0.7540
 5520SOL    HW128538   7.574   9.821   0.679  0.0702  0.7005 -0.0767
 5520SOL    HW228539   7.431   9.774   0.664 -0.2109  2.0042 -1.7320
 5521SOL     OW28540   1.594   9.142   1.064 -0.6395 -0.2864  0.6087
 5521SOL    HW128541   1.654   9.173   1.132 -0.6765 -1.1912  1.0654
 5521SOL    HW228542   1.511   9.184   1.085 -0.5195 -0.1364  0.7958
 5522SOL     OW28543   4.221  10.245  10.350 -0.4707 -0.0840  0.9558
 5522SOL    HW128544   4.162  10.291  10.410 -0.5865  1.5007 -0.3024
 5522SOL    HW228545   4.206  10.286  10.265  2.0952  0.0649  0.4758
 5523SOL     OW28546   3.007   2.715  10.017  0.6842 -0.1962  0.3954
 5523SOL    HW128547   3.088   2.722   9.967  0.3016 -0.1044 -0.2307
 5523SOL    HW228548   2.941   2.760   9.963  0.1200 -0.6837  0.6556
 5524SOL     OW28549   4.438  10.191   1.182  0.1465 -0.2070 -0.2246
 5524SOL    HW128550   4.526  10.156   1.192 -0.1209 -0.9118 -0.2957
 5524SOL    HW228551   4.380  10.117   1.198 -0.4187  0.0139 -1.1590
 5525SOL     OW28552   4.624  10.090   0.968 -0.2008  0.1279  0.3486
 5525SOL    HW128553   4.704  10.136   0.941  1.1952 -2.2460  0.1797
 5525SOL    HW228554   4.590  10.053   0.886 -0.0187 -1.0204  0.7808
 5526SOL     OW28555   5.406   1.321   9.827 -0.4367  0.0774 -0.5318
 5526SOL    HW128556   5.411   1.392   9.890 -1.5794 -1.3769  1.3003
 5526SOL    HW228557   5.485   1.269   9.843 -1.1076 -0.7189  0.2786
 5527SOL     OW28558   0.403   0.134   9.172  0.0464  0.3502  0.0365
 5527SOL    HW128559   0.314   0.165   9.152  0.4107  0.9146 -0.7625
 5527SOL    HW228560   0.390   0.065   9.236 -0.8414  1.9430  1.6710
 5528SOL     OW28561   4.538   9.104   0.003  0.4221  0.3129 -0.6200
 5528SOL    HW128562   4.492   9.186  -0.016 -0.5502 -0.0926 -0.0435
 5528SOL    HW228563   4.537   9.097   0.098  1.7436  0.3206 -0.5855
 5529SOL     OW28564   8.888   9.205   8.019 -0.0016  0.3408  0.9610
 5529SOL    HW128565   8.877   9.204   7.924 -0.6980 -4.1518  0.9081
 5529SOL    HW228566   8.982   9.193   8.033 -0.1788 -1.5176  0.7335
 5530SOL     OW28567   0.954   1.011   6.780 -0.3063 -0.4084  0.3510
 5530SOL    HW128568   0.887   0.987   6.716 -0.1779  1.3527 -0.5249
 5530SOL    HW228569   0.984   0.928   6.817 -0.6614 -1.4538 -1.6017
 5531SOL     OW28570  10.251   3.259   6.210  0.1577 -0.1322 -0.1724
 5531SOL    HW128571  10.231   3.349   6.235 -0.0958  0.3365 -1.9330
 5531SOL    HW228572  10.167   3.224   6.180  0.5619 -0.4624 -0.9286
 5532SOL     OW28573   0.832   2.626   8.240  0.0362 -0.1731 -0.1575
 5532SOL    HW128574   0.902   2.562   8.228  0.1049 -0.1328  0.0447
 5532SOL    HW228575   0.875   2.711   8.235 -0.1105 -0.1262 -0.8300
 5533SOL     OW28576   7.023   2.865   4.634  0.0057 -0.4717 -0.4710
 5533SOL    HW128577   7.053   2.804   4.567  1.8500 -1.0602  0.8093
 5533SOL    HW228578   6.997   2.809   4.707  0.8844  0.1997  0.3903
 5534SOL     OW28579   4.319   7.862   6.594 -0.3168  0.7517 -0.3609
 5534SOL    HW128580   4.303   7.940   6.542 -1.0636  0.3560 -0.7482
 5534SOL    HW228581   4.381   7.889   6.661  1.4370  1.0435 -2.0395
 5535SOL     OW28582   8.936   5.820  10.293 -0.0091  0.2775 -0.0920
 5535SOL    HW128583   8.963   5.729  10.305 -0.7995  0.0226 -0.1622
 5535SOL    HW228584   8.976   5.867  10.366  0.1483 -0.1790  0.1203
 5536SOL     OW28585   0.797   0.265   2.318 -0.2531  0.4970 -0.0903
 5536SOL    HW128586   0.708   0.276   2.286 -0.7650  0.1575  1.1753
 5536SOL    HW228587   0.844   0.226   2.245 -1.2804  0.1511 -0.5763
 5537SOL     OW28588   8.455   9.782   2.329  0.8514 -0.1713  0.1009
 5537SOL    HW128589   8.371   9.740   2.347  1.5948 -1.6589  0.2033
 5537SOL    HW228590   8.453   9.803   2.236 -0.3309  1.4725  0.4437
 5538SOL     OW28591  10.128   7.447   7.371  0.2027  0.4086 -0.0005
 5538SOL    HW128592  10.203   7.401   7.408  0.4584  0.6837 -0.1726
 5538SOL    HW228593  10.136   7.436   7.277 -0.2972 -0.0591  0.0066
 5539SOL     OW28594   5.370   1.739   6.900  0.3645  0.8219 -0.0370
 5539SOL    HW128595   5.445   1.728   6.841  0.2922  0.0311  0.0059
 5539SOL    HW228596   5.315   1.663   6.883  1.3529 -0.5763  2.5111
 5540SOL     OW28597   4.526   5.522   0.735 -0.1499 -0.1994  0.1899
 5540SOL    HW128598   4.508   5.435   0.699  1.7875 -0.4591 -0.2702
 5540SOL    HW228599   4.572   5.568   0.665 -0.2185  0.8206  0.8014
 5541SOL     OW28600   8.352   7.370   4.998  0.0398  0.6932  0.2318
 5541SOL    HW128601   8.258   7.385   5.006  0.1707  0.5955  2.4314
 5541SOL    HW228602   8.370   7.295   5.055  1.5840  1.2297  0.4896
 5542SOL     OW28603   6.517   4.489  10.006  0.2089  0.0779 -0.0405
 5542SOL    HW128604   6.609   4.502   9.983  0.3911  2.6182  1.7444
 5542SOL    HW228605   6.511   4.395  10.023  1.8021 -0.6046 -2.6416
 5543SOL     OW28606   1.306  10.050   3.122  1.0140  0.0469 -0.3454
 5543SOL    HW128607   1.351   9.985   3.175 -1.2456 -2.2787 -1.0958
 5543SOL    HW228608   1.274  10.115   3.185  2.3783 -0.0914  0.5356
 5544SOL     OW28609   0.390   5.928   0.221  0.6793 -0.3436 -0.1503
 5544SOL    HW128610   0.407   5.984   0.296 -0.3961 -1.0787  0.6935
 5544SOL    HW228611   0.376   5.841   0.259  2.3527 -1.2198 -1.4168
 5545SOL     OW28612  10.022   9.538   0.052  0.4934 -0.2236  0.4777
 5545SOL    HW128613  10.035   9.462   0.110  0.5793 -0.0765  0.6532
 5545SOL    HW228614  10.051   9.613   0.104  2.4219 -0.2810 -0.4460
 5546SOL     OW28615   7.902   0.853   4.733 -0.2183  0.1688 -0.0137
 5546SOL    HW128616   7.827   0.911   4.723 -1.2825 -1.3235 -1.1098
 5546SOL    HW228617   7.894   0.791   4.661  2.5219  0.4246 -0.6448
 5547SOL     OW28618   8.497   8.852   3.028 -0.3400 -0.3692  0.2559
 5547SOL    HW128619   8.577   8.812   2.993  0.4967  1.5498 -0.1251
 5547SOL    HW228620   8.482   8.805   3.111 -0.1307 -2.2882 -0.7208
 5548SOL     OW28621   8.939   9.666   5.493  0.1196 -0.9070 -0.5062
 5548SOL    HW128622   8.978   9.585   5.462  2.6204  0.1046 -0.2876
 5548SOL    HW228623   8.925   9.719   5.415 -1.2191 -1.4010 -0.6189
 5549SOL     OW28624   8.763   8.229   5.680  0.7871  0.0560  0.3375
 5549SOL    HW128625   8.803   8.312   5.652 -0.1863  0.1412 -0.8807
 5549SOL    HW228626   8.670   8.250   5.690  0.7924 -0.4937  1.6964
 5550SOL     OW28627   8.030   1.486   1.061 -0.2503  0.4139 -0.0935
 5550SOL    HW128628   8.069   1.419   1.006 -0.1496 -0.0453  0.5232
 5550SOL    HW228629   7.958   1.442   1.106  0.7499  0.2876  1.4626
 5551SOL     OW28630   7.481   6.957   5.010 -0.4323  0.2644  0.4520
 5551SOL    HW128631   7.465   7.051   5.010 -2.6100 -0.0281  2.4071
 5551SOL    HW228632   7.401   6.919   4.975  0.0179 -0.9207  0.6577
 5552SOL     OW28633   6.367   4.776   8.382  0.3208 -0.0942  0.2047
 5552SOL    HW128634   6.412   4.715   8.441  3.2447  2.4366  0.8701
 5552SOL    HW228635   6.284   4.795   8.426  0.0763 -2.2477  0.7765
 5553SOL     OW28636   9.459   3.696   9.928 -0.5001  0.4328  0.5670
 5553SOL    HW128637   9.499   3.779   9.899  0.2108 -0.3743 -0.8612
 5553SOL    HW228638   9.516   3.628   9.892 -2.4597 -0.7475 -0.4683
 5554SOL     OW28639   0.670   5.469   1.058  0.2265 -0.2011  0.2565
 5554SOL    HW128640   0.679   5.493   0.966  0.4290  1.1782  0.5988
 5554SOL    HW228641   0.580   5.440   1.067  0.2184 -0.3756 -0.3900
 5555SOL     OW28642   0.543   5.134   4.954 -0.2764 -0.0920  0.0749
 5555SOL    HW128643   0.633   5.136   4.922 -0.8521 -1.5983 -1.8860
 5555SOL    HW228644   0.510   5.048   4.926 -2.6876  0.9046 -0.4054
 5556SOL     OW28645   7.637   0.905   7.696  0.1952  0.2260 -0.4773
 5556SOL    HW128646   7.686   0.869   7.770 -0.2902 -1.8392 -1.0842
 5556SOL    HW228647   7.700   0.962   7.651  0.8597  0.5475  0.8235
 5557SOL     OW28648   9.433   6.127   0.215 -0.0407  0.8505 -0.0008
 5557SOL    HW128649   9.343   6.158   0.228 -1.5257 -2.5405 -1.0270
 5557SOL    HW228650   9.447   6.137   0.121 -1.7319 -3.7678 -0.9992
 5558SOL     OW28651   2.602   3.852   6.214  0.2285  0.0369 -0.2171
 5558SOL    HW128652   2.635   3.763   6.221  0.3581  0.0611 -0.5067
 5558SOL    HW228653   2.573   3.860   6.123  0.4561  0.3702 -0.2612
 5559SOL     OW28654   6.329   1.381   0.873  0.1234  0.6371 -0.5694
 5559SOL    HW128655   6.280   1.442   0.817 -0.6603 -1.1102 -1.9052
 5559SOL    HW228656   6.351   1.308   0.815 -0.1983 -1.0113  1.2663
 5560SOL     OW28657   7.687   9.726   8.262 -0.1895  0.1978 -0.4696
 5560SOL    HW128658   7.643   9.811   8.267  1.9677  1.4084 -0.9396
 5560SOL    HW228659   7.739   9.721   8.342  0.4029 -0.2554 -0.8707
 5561SOL     OW28660   2.132   5.322   7.867  0.0432  0.2527  0.2510
 5561SOL    HW128661   2.216   5.369   7.867  0.6295 -0.7697  0.6813
 5561SOL    HW228662   2.145   5.249   7.927 -0.7814 -0.5945 -0.5595
 5562SOL     OW28663   7.062   5.846   1.165 -0.8812 -0.2836  0.4683
 5562SOL    HW128664   6.973   5.879   1.154 -0.4733  0.8754  0.4902
 5562SOL    HW228665   7.051   5.761   1.207 -1.9543  0.0619  0.9243
 5563SOL     OW28666   3.703   1.365   8.106  0.1245  0.0421 -0.0306
 5563SOL    HW128667   3.654   1.412   8.039 -1.2530 -0.7128  0.4015
 5563SOL    HW228668   3.650   1.374   8.185 -1.2262 -3.7016 -0.3176
 5564SOL     OW28669   0.137   3.292   1.783 -0.2584 -0.2975  0.4487
 5564SOL    HW128670   0.073   3.222   1.775 -1.3370  0.7500 -0.4951
 5564SOL    HW228671   0.164   3.310   1.693  0.7596 -0.1721  0.7672
 5565SOL     OW28672   6.346  10.266   7.996 -0.6366 -0.7652 -0.0753
 5565SOL    HW128673   6.281  10.312   7.942  0.2596 -1.8869 -2.2403
 5565SOL    HW228674   6.378  10.195   7.940  0.4971 -1.9226  1.9155
 5566SOL     OW28675   4.481   0.696   5.846  0.0504  0.4577  0.3545
 5566SOL    HW128676   4.519   0.673   5.762 -0.1977 -1.1717  0.6505
 5566SOL    HW228677   4.447   0.613   5.880 -1.4513  1.3972  1.2482
 5567SOL     OW28678   0.423   1.303   0.437  0.3230  0.5295  0.0088
 5567SOL    HW128679   0.515   1.285   0.417  0.3711  1.7716 -0.9836
 5567SOL    HW228680   0.375   1.263   0.364 -0.0835 -1.4855  1.3014
 5568SOL     OW28681   5.136   0.350   0.360 -0.6469  0.1001  0.2488
 5568SOL    HW128682   5.152   0.347   0.454 -1.3097  4.0137  0.6462
 5568SOL    HW228683   5.219   0.380   0.323 -0.9517  0.4490 -0.1619
 5569SOL     OW28684   9.314   3.380   2.023 -0.5950  0.1300  0.0361
 5569SOL    HW128685   9.391   3.388   2.079  0.6458 -1.1873 -1.3959
 5569SOL    HW228686   9.240   3.399   2.081  0.7621  1.2324  1.4973
 5570SOL     OW28687   7.408   8.949   3.504  0.2918 -0.2052  0.5038
 5570SOL    HW128688   7.451   8.869   3.475 -0.1095 -0.3145  0.1927
 5570SOL    HW228689   7.407   8.942   3.600  1.0603 -0.1411  0.5230
 5571SOL     OW28690   0.760   8.334   4.505 -0.0469  0.8141 -0.4286
 5571SOL    HW128691   0.780   8.395   4.575 -0.8979 -0.2116  0.7412
 5571SOL    HW228692   0.736   8.253   4.549 -1.6999  0.4589 -1.8791
 5572SOL     OW28693   6.297   4.664   6.095  0.5054  0.0863 -0.1930
 5572SOL    HW128694   6.215   4.713   6.099  0.9540  1.0701 -2.0096
 5572SOL    HW228695   6.271   4.573   6.105 -0.3932  0.5319  2.9075
 5573SOL     OW28696   7.897   5.567   8.389  0.1903  0.2913  0.5157
 5573SOL    HW128697   7.959   5.578   8.317  0.0474  2.6487  0.6632
 5573SOL    HW228698   7.813   5.596   8.353 -0.6030 -1.6758  0.6866
 5574SOL     OW28699   3.209   0.269   9.628 -0.6293 -0.1032  0.4922
 5574SOL    HW128700   3.178   0.190   9.584  0.5503 -0.5404  0.4121
 5574SOL    HW228701   3.151   0.278   9.704 -0.4574 -1.3414  0.7972
 5575SOL     OW28702   5.029   8.932  10.391  0.3288 -0.2337 -0.1513
 5575SOL    HW128703   5.020   8.851  10.342 -0.5814 -1.0164  1.2266
 5575SOL    HW228704   4.961   8.990  10.356 -1.8755 -1.5865  1.5878
 5576SOL     OW28705   5.311   2.479   2.467 -0.4543  0.7366  0.4785
 5576SOL    HW128706   5.399   2.458   2.499 -0.6542 -0.3338  0.3632
 5576SOL    HW228707   5.259   2.489   2.546 -0.4246  0.4595  0.5350
 5577SOL     OW28708   6.760   2.542   0.579 -0.8806 -0.3273 -0.3003
 5577SOL    HW128709   6.694   2.507   0.519  0.3655 -1.7175 -0.9541
 5577SOL    HW228710   6.750   2.490   0.658 -1.1362  0.0476 -0.0877
 5578SOL     OW28711   5.178   2.021   9.356  0.2310  0.6757 -0.1603
 5578SOL    HW128712   5.130   2.013   9.274 -0.8599  0.3607  0.4880
 5578SOL    HW228713   5.178   1.933   9.393  1.0158  0.7436  0.0215
 5579SOL     OW28714   6.799   6.152  10.206 -0.1600  0.3475 -0.4087
 5579SOL    HW128715   6.857   6.224  10.233  1.5170 -0.9582 -0.3721
 5579SOL    HW228716   6.772   6.175  10.117  0.7442  0.8125 -0.5785
 5580SOL     OW28717   9.465   8.010   1.241  0.8769 -0.3332 -0.2614
 5580SOL    HW128718   9.534   8.016   1.174 -0.4049 -0.5617 -1.6478
 5580SOL    HW228719   9.497   7.944   1.302  1.9685 -0.3068 -0.7749
 5581SOL     OW28720   6.389   9.060   1.772 -0.7564 -0.0463 -0.1770
 5581SOL    HW128721   6.424   9.104   1.695 -1.2523  1.7969  0.5956
 5581SOL    HW228722   6.417   8.969   1.763 -1.7407 -0.1624 -3.0862
 5582SOL     OW28723   7.899   1.128   0.881  0.4214 -0.2473  0.3997
 5582SOL    HW128724   7.843   1.097   0.952 -0.9515  0.2671 -0.4159
 5582SOL    HW228725   7.909   1.053   0.823 -1.1086  0.1912 -0.4699
 5583SOL     OW28726   4.928   8.458   5.716 -0.5972  0.3909  0.1427
 5583SOL    HW128727   4.984   8.381   5.715 -1.6254 -0.4917  2.7323
 5583SOL    HW228728   4.989   8.532   5.715  0.5508 -0.5131  0.9432
 5584SOL     OW28729   5.767   6.757   8.885 -0.9728 -0.2352  0.2555
 5584SOL    HW128730   5.683   6.712   8.889 -0.5624 -0.9615  1.4919
 5584SOL    HW228731   5.803   6.734   8.799 -1.4922 -0.9559  0.2235
 5585SOL     OW28732   0.265   1.520   3.265  0.6611  0.1738  0.8770
 5585SOL    HW128733   0.236   1.458   3.197  1.4609  0.0233  0.6590
 5585SOL    HW228734   0.189   1.530   3.322 -0.9111  2.1798 -1.3607
 5586SOL     OW28735   2.448   4.766   2.100 -0.0010  0.5880  0.2462
 5586SOL    HW128736   2.463   4.743   2.009  0.6910 -0.5060  0.6225
 5586SOL    HW228737   2.521   4.728   2.148 -1.5911 -1.0242  1.5650
 5587SOL     OW28738   0.021   2.927   0.263 -0.5253  0.2623 -0.7092
 5587SOL    HW128739   0.091   2.980   0.301 -1.6671  0.9915  0.4467
 5587SOL    HW228740   0.060   2.890   0.183  1.1517  0.6672 -0.1236
 5588SOL     OW28741   4.383   3.206   8.142  0.1066  0.3961  0.3031
 5588SOL    HW128742   4.433   3.201   8.223  0.6331  0.9320  0.0190
 5588SOL    HW228743   4.445   3.240   8.077 -0.6244  1.1123 -0.0419
 5589SOL     OW28744   8.471   4.743   8.392 -0.1527 -0.3372  0.9878
 5589SOL    HW128745   8.423   4.719   8.472 -1.1599  0.4074  0.6193
 5589SOL    HW228746   8.468   4.839   8.390 -0.2834 -0.3549 -0.0316
 5590SOL     OW28747   5.843   7.300   8.153 -0.7391 -0.3608 -0.0059
 5590SOL    HW128748   5.842   7.260   8.066  1.5199  0.1791 -0.3385
 5590SOL    HW228749   5.931   7.336   8.162 -0.9848 -0.2030  2.4269
 5591SOL     OW28750   4.725   5.530   6.741  0.1722  0.1259 -0.0944
 5591SOL    HW128751   4.730   5.435   6.729  0.3752  0.0358  0.6456
 5591SOL    HW228752   4.768   5.566   6.663  0.2420 -0.3892 -0.3007
 5592SOL     OW28753   1.702   9.661   7.009 -0.6445  0.4974  0.6348
 5592SOL    HW128754   1.620   9.637   6.964  0.1459  1.3332 -1.3565
 5592SOL    HW228755   1.707   9.756   7.000  1.0054  0.3701 -0.1672
 5593SOL     OW28756   7.017   8.000   7.406 -0.2123  0.2569 -0.0253
 5593SOL    HW128757   7.108   8.021   7.386  0.2957  0.9467  2.6320
 5593SOL    HW228758   6.967   8.049   7.341  1.2593  2.3750  0.3193
 5594SOL     OW28759   1.714   3.519   1.449  0.1341 -0.2677  0.3845
 5594SOL    HW128760   1.746   3.466   1.521 -1.8134 -0.4324  1.1772
 5594SOL    HW228761   1.620   3.502   1.446 -0.3875  2.2652 -0.0292
 5595SOL     OW28762   1.493   1.796   3.025 -0.3764  0.4001  0.3918
 5595SOL    HW128763   1.415   1.793   3.080 -0.2871 -0.5359  0.4847
 5595SOL    HW228764   1.480   1.872   2.968 -1.4907  0.0753  0.1993
 5596SOL     OW28765   5.709   0.747   8.993 -0.0647 -0.6717 -0.2386
 5596SOL    HW128766   5.768   0.751   9.068  0.7029 -0.1741 -0.8550
 5596SOL    HW228767   5.762   0.714   8.921  0.0654  1.7058 -1.3266
 5597SOL     OW28768   2.458  10.145   9.023 -0.1070  0.1601 -0.0938
 5597SOL    HW128769   2.544  10.103   9.013 -0.5388 -0.8648  0.3532
 5597SOL    HW228770   2.396  10.073   9.026 -0.6647  0.5960  3.1942
 5598SOL     OW28771   3.646   8.020   8.576 -0.1652 -0.5960 -0.3324
 5598SOL    HW128772   3.663   8.065   8.493 -2.8902 -0.7359 -1.0841
 5598SOL    HW228773   3.669   7.929   8.559  2.6442 -0.0823  0.2769
 5599SOL     OW28774   5.437   9.283   7.955  0.2835 -0.2758 -0.0884
 5599SOL    HW128775   5.440   9.331   7.872 -0.7047  0.1571  0.1090
 5599SOL    HW228776   5.351   9.304   7.992  1.5531  1.4523  2.1578
 5600SOL     OW28777   5.401   6.813   7.232  0.0469  0.3514 -0.4451
 5600SOL    HW128778   5.370   6.900   7.259 -0.9410 -0.2534  0.4004
 5600SOL    HW228779   5.418   6.823   7.138  2.6901  2.2545  0.1073
 5601SOL     OW28780   6.290   4.280   2.623 -0.2782 -0.2422 -0.0020
 5601SOL    HW128781   6.220   4.251   2.564 -0.5562 -0.2416  0.3238
 5601SOL    HW228782   6.295   4.210   2.689  0.7897 -0.7944 -0.6477
 5602SOL     OW28783   0.699   0.631  10.202 -0.3571 -0.0901  0.3123
 5602SOL    HW128784   0.628   0.694  10.211 -1.4103 -0.9455 -1.4739
 5602SOL    HW228785   0.769   0.678  10.157 -0.2588  0.4110  0.9832
 5603SOL     OW28786   7.885   9.167   0.325  0.2696 -0.2871 -0.2239
 5603SOL    HW128787   7.901   9.083   0.281  1.2679 -0.5620  0.6273
 5603SOL    HW228788   7.835   9.143   0.404 -2.0467  0.2636 -1.4289
 5604SOL     OW28789   7.510   9.500   3.904  0.0952  0.2622  0.1490
 5604SOL    HW128790   7.437   9.516   3.964  0.5242 -0.3240  0.8303
 5604SOL    HW228791   7.474   9.440   3.838 -0.4300  1.0584 -0.3193
 5605SOL     OW28792   3.854   5.810   4.068 -0.0035  0.1718 -0.3744
 5605SOL    HW128793   3.761   5.830   4.080 -0.4379 -0.4808 -2.2908
 5605SOL    HW228794   3.882   5.868   3.997  1.6547  1.8837  1.5355
 5606SOL     OW28795   5.730   7.566   8.006 -0.5007  0.3945  0.1396
 5606SOL    HW128796   5.811   7.524   8.036 -1.9605 -2.0752  0.9299
 5606SOL    HW228797   5.721   7.643   8.062  2.2977  1.9770 -1.3781
 5607SOL     OW28798   6.318   2.555   9.213 -0.2533  0.2206  0.0865
 5607SOL    HW128799   6.238   2.522   9.171 -0.2557  1.6519 -1.1488
 5607SOL    HW228800   6.386   2.494   9.186 -0.9914 -1.3337  1.6072
 5608SOL     OW28801   5.580   5.801   7.043  0.0762  0.0354  0.7421
 5608SOL    HW128802   5.622   5.887   7.031 -0.1120  0.0266 -0.0167
 5608SOL    HW228803   5.525   5.791   6.966  0.6179 -1.0732  0.4848
 5609SOL     OW28804   1.314   5.169   0.467 -0.4032  0.0321 -0.2391
 5609SOL    HW128805   1.336   5.247   0.519 -0.4027  0.4935 -0.9124
 5609SOL    HW228806   1.258   5.202   0.397 -0.8314 -0.6665 -0.2332
 5610SOL     OW28807   2.903   7.254   4.912  0.7277 -0.0560 -0.1846
 5610SOL    HW128808   2.916   7.262   4.817  1.4481  0.5237 -0.0373
 5610SOL    HW228809   2.903   7.159   4.928 -0.6706 -0.2064 -0.9318
 5611SOL     OW28810   2.386   9.089   4.885  0.0886 -0.1026 -0.1436
 5611SOL    HW128811   2.292   9.094   4.902  0.0638  0.8793 -0.5360
 5611SOL    HW228812   2.400   9.000   4.854 -0.8331 -0.0326 -0.7903
 5612SOL     OW28813   6.192   5.957   9.208  0.0019  0.9151 -0.0477
 5612SOL    HW128814   6.225   5.904   9.281  0.6459  0.3909 -0.7083
 5612SOL    HW228815   6.267   6.011   9.183  0.2910 -0.0789 -1.3844
 5613SOL     OW28816  10.359   8.079   3.907  0.2524 -0.0086 -0.3076
 5613SOL    HW128817  10.296   8.012   3.881 -0.4201  0.3169  0.4381
 5613SOL    HW228818  10.442   8.032   3.916 -0.5209 -1.1319  1.8315
 5614SOL     OW28819   3.582   4.730   0.019  0.0600  0.2755 -0.5095
 5614SOL    HW128820   3.613   4.821   0.012  0.7783  0.0589 -0.1863
 5614SOL    HW228821   3.490   4.735  -0.008 -0.2929  1.3254  0.7486
 5615SOL     OW28822   8.296   5.224   3.873  0.2131  0.2772  0.0059
 5615SOL    HW128823   8.383   5.209   3.910  1.2865 -1.1361 -2.8180
 5615SOL    HW228824   8.312   5.270   3.791 -1.7387  0.2946 -0.4115
 5616SOL     OW28825   0.961   9.765   1.914  0.3937  0.3700  0.3861
 5616SOL    HW128826   0.925   9.712   1.986  1.6442 -0.3357  0.5285
 5616SOL    HW228827   1.018   9.829   1.958  1.8067 -0.5877  0.0133
 5617SOL     OW28828   4.284   5.470   6.310  0.2775 -0.3473  0.2490
 5617SOL    HW128829   4.301   5.532   6.239  1.0077 -1.3332 -0.4668
 5617SOL    HW228830   4.192   5.485   6.333  0.4417  1.0090  0.1293
 5618SOL     OW28831   8.746   9.541   4.803  0.0803  0.4936 -0.0050
 5618SOL    HW128832   8.783   9.487   4.734  0.0116  0.3268  0.0890
 5618SOL    HW228833   8.789   9.626   4.793  0.1340  0.4427 -0.1965
 5619SOL     OW28834   9.229   7.236   5.665 -0.6388  0.4570 -0.3304
 5619SOL    HW128835   9.233   7.258   5.758 -2.3580 -1.2489  0.2141
 5619SOL    HW228836   9.279   7.155   5.657  0.5967  1.2745 -1.1691
 5620SOL     OW28837   3.266   9.531   3.685  0.0185  0.5360  0.7001
 5620SOL    HW128838   3.261   9.558   3.593 -1.0724  1.4040  0.9780
 5620SOL    HW228839   3.290   9.439   3.682  3.1912  1.2785 -0.3459
 5621SOL     OW28840   1.648   4.869   1.627  0.4372  0.5198 -0.0303
 5621SOL    HW128841   1.555   4.853   1.608  0.1214 -1.9280  2.7758
 5621SOL    HW228842   1.695   4.813   1.565 -0.0268  0.4736 -0.3479
 5622SOL     OW28843   9.565   7.288   2.742 -0.7204  0.3033  0.1473
 5622SOL    HW128844   9.624   7.338   2.799  0.3766 -1.6736  0.8486
 5622SOL    HW228845   9.480   7.294   2.785 -0.2421  0.1443  1.1556
 5623SOL     OW28846   9.156   9.503   0.351  0.2541  0.3646  0.2310
 5623SOL    HW128847   9.120   9.425   0.392 -0.2308  0.4129 -0.0964
 5623SOL    HW228848   9.225   9.532   0.411 -0.1220  0.1637  0.7652
 5624SOL     OW28849   2.959   1.047   0.779 -0.3652 -0.0521 -0.4818
 5624SOL    HW128850   2.878   1.003   0.805  0.6297 -0.9173  1.3819
 5624SOL    HW228851   2.999   1.074   0.862  0.9354  0.9536 -1.3976
 5625SOL     OW28852   1.864   0.422   1.759  0.0394 -0.6323  0.2472
 5625SOL    HW128853   1.813   0.502   1.767  1.6288  0.5719 -1.0391
 5625SOL    HW228854   1.898   0.406   1.847 -1.6856 -0.9324  0.9100
 5626SOL     OW28855   2.688   2.947   7.748  0.2582 -0.7030 -0.1213
 5626SOL    HW128856   2.783   2.952   7.734  0.5294  1.8510  1.9380
 5626SOL    HW228857   2.651   2.994   7.673  0.8008  0.4798  0.3299
 5627SOL     OW28858   5.818   7.472   0.805  0.1239  0.4664  0.4873
 5627SOL    HW128859   5.733   7.472   0.849  0.1019 -1.1946  0.5244
 5627SOL    HW228860   5.881   7.488   0.875 -0.1305  1.5386  0.4862
 5628SOL     OW28861   0.629   4.976   7.909  0.1655 -0.0606 -0.2877
 5628SOL    HW128862   0.684   5.039   7.956  0.5644  0.1490 -1.0202
 5628SOL    HW228863   0.546   5.022   7.895 -1.2454 -1.2284  3.0692
 5629SOL     OW28864   2.440   2.709   9.475 -0.7876 -0.1064  0.1754
 5629SOL    HW128865   2.466   2.769   9.404 -0.5977 -0.2792  0.0988
 5629SOL    HW228866   2.362   2.750   9.513 -1.0568 -0.1541 -0.3172
 5630SOL     OW28867   1.135   4.648   1.054  0.1035  0.2734 -0.4423
 5630SOL    HW128868   1.142   4.627   1.147  0.0699  0.8418 -0.3067
 5630SOL    HW228869   1.042   4.670   1.042  0.0301 -0.1790 -0.6906
 5631SOL     OW28870   8.871   2.401   0.576 -0.6647 -0.8218 -0.8419
 5631SOL    HW128871   8.927   2.477   0.558 -0.6252 -0.4549  0.7121
 5631SOL    HW228872   8.784   2.439   0.594 -0.1334 -0.8521  2.3305
 5632SOL     OW28873   8.606   7.496   1.413  0.2546 -0.1425  0.1434
 5632SOL    HW128874   8.636   7.585   1.435 -0.7730 -0.0537  1.3297
 5632SOL    HW228875   8.686   7.446   1.399  0.8573  0.9111 -0.3194
 5633SOL     OW28876   0.497   2.623   0.015 -0.0476  0.4917  0.0127
 5633SOL    HW128877   0.566   2.561   0.038  2.6567  2.6951 -1.5136
 5633SOL    HW228878   0.431   2.571  -0.031  1.8786 -1.3218 -0.8423
 5634SOL     OW28879   6.281   9.247   7.381  0.1800 -0.1329 -0.1811
 5634SOL    HW128880   6.241   9.160   7.379 -1.7244  0.6691  0.7124
 5634SOL    HW228881   6.228   9.297   7.443  1.2715  1.6559 -0.6105
 5635SOL     OW28882   4.280   1.296   8.590 -0.0791  0.6334  0.0114
 5635SOL    HW128883   4.206   1.294   8.650 -0.5987  2.0866 -0.5238
 5635SOL    HW228884   4.293   1.389   8.572  1.4687  0.3576 -0.4140
 5636SOL     OW28885   6.866   2.550   7.726 -0.2515 -0.2006  0.2198
 5636SOL    HW128886   6.774   2.577   7.731 -0.8598 -0.9239 -3.9224
 5636SOL    HW228887   6.911   2.625   7.686  0.2922 -1.0675 -0.8220
 5637SOL     OW28888   8.937   3.841   6.607 -0.0058  0.0803 -0.2812
 5637SOL    HW128889   9.022   3.817   6.644 -0.4081 -0.1118  0.5439
 5637SOL    HW228890   8.932   3.793   6.524  1.0212  0.7194 -0.7229
 5638SOL     OW28891   8.633   7.774   4.406  0.3464  0.7755  0.0381
 5638SOL    HW128892   8.684   7.810   4.334 -1.3039 -0.2518 -1.7538
 5638SOL    HW228893   8.665   7.820   4.484  2.2836  1.8467 -1.3005
 5639SOL     OW28894  10.006   6.029   0.747  0.1995 -0.5306  0.2617
 5639SOL    HW128895  10.029   5.947   0.789  0.6999  0.3634  1.8280
 5639SOL    HW228896  10.081   6.087   0.764 -0.6033  0.5805  0.1395
 5640SOL     OW28897  10.166   9.505   6.812 -0.0645  0.8519 -0.9480
 5640SOL    HW128898  10.090   9.499   6.870  1.4894 -0.9257  1.0995
 5640SOL    HW228899  10.153   9.436   6.748  0.2519 -0.1429  0.0256
 5641SOL     OW28900   4.640   6.553   9.069  0.2037  0.0023 -0.1761
 5641SOL    HW128901   4.677   6.489   9.010 -1.1039 -1.1089  0.1638
 5641SOL    HW228902   4.599   6.618   9.012  1.6869  0.6759 -0.5240
 5642SOL     OW28903   5.712  10.142   1.350 -0.2158  0.2725  0.1341
 5642SOL    HW128904   5.674  10.201   1.284  1.9718  0.1135 -1.4075
 5642SOL    HW228905   5.779  10.196   1.393 -1.1449  0.1512  1.7856
 5643SOL     OW28906   5.979   2.108   7.538 -0.1246 -0.1048  0.6490
 5643SOL    HW128907   5.920   2.180   7.516 -0.9946 -0.5941  1.3008
 5643SOL    HW228908   5.970   2.045   7.466  0.1177  0.1246  0.4173
 5644SOL     OW28909   9.058   6.182   6.246 -0.1838  0.0008 -0.3387
 5644SOL    HW128910   9.020   6.269   6.236  0.1951  0.3656  1.1281
 5644SOL    HW228911   9.019   6.147   6.326  1.1050 -0.3736  0.1652
 5645SOL     OW28912   7.847   0.809   9.873  0.7615  0.0084 -0.3757
 5645SOL    HW128913   7.913   0.767   9.928 -2.0378 -2.6778  1.2782
 5645SOL    HW228914   7.807   0.875   9.930 -1.0847 -1.7079  0.4623
 5646SOL     OW28915   3.713  10.338   3.960 -0.3972  0.2152 -0.9069
 5646SOL    HW128916   3.732  10.419   4.007  0.3998  0.2719 -1.3087
 5646SOL    HW228917   3.754  10.270   4.013 -1.3485  0.0250 -0.3949
 5647SOL     OW28918   1.421   0.035   8.999 -0.0491 -0.1387 -0.7403
 5647SOL    HW128919   1.368   0.027   9.079  1.1888  0.3205  0.1587
 5647SOL    HW228920   1.366   0.083   8.938 -0.0425  1.9273  0.7865
 5648SOL     OW28921   6.615  10.307   6.660 -0.0228 -0.0601  0.0063
 5648SOL    HW128922   6.654  10.359   6.731  1.0481  0.4012 -0.8790
 5648SOL    HW228923   6.671  10.325   6.584  0.1963 -2.2373 -0.4324
 5649SOL     OW28924   9.373   9.923  10.249  0.5734 -0.3609  0.0071
 5649SOL    HW128925   9.385   9.930  10.154  0.0334 -2.0382 -0.2190
 5649SOL    HW228926   9.379   9.829  10.267 -1.1155 -0.2467  1.3926
 5650SOL     OW28927   9.184   7.404   2.726  0.2979  0.5340 -0.1443
 5650SOL    HW128928   9.153   7.433   2.640 -1.3750  0.0434  0.2614
 5650SOL    HW228929   9.249   7.469   2.751 -0.8267  1.9656 -0.8032
 5651SOL     OW28930   5.475   0.438   9.696  0.7837 -0.4093  0.6736
 5651SOL    HW128931   5.503   0.347   9.689  1.4364 -0.0994 -1.9341
 5651SOL    HW228932   5.391   0.442   9.650  0.6312  0.2433  0.9936
 5652SOL     OW28933   3.851   5.544   6.606 -0.1099  0.3431 -0.5322
 5652SOL    HW128934   3.787   5.486   6.648 -0.3651 -0.0611 -1.4650
 5652SOL    HW228935   3.887   5.596   6.678 -0.2239 -0.6411  0.2532
 5653SOL     OW28936   3.624   8.796   3.590  0.3017  0.5481  0.6519
 5653SOL    HW128937   3.661   8.850   3.520 -0.7871  0.6925  0.1675
 5653SOL    HW228938   3.604   8.858   3.660  0.7155  0.5086  0.8075
 5654SOL     OW28939   6.694   6.573   4.769  0.4889  0.4313 -0.2306
 5654SOL    HW128940   6.642   6.492   4.770  2.7504 -1.1922 -2.1197
 5654SOL    HW228941   6.775   6.550   4.814  1.2593  1.5614 -0.9768
 5655SOL     OW28942   2.499   3.909   8.439 -0.2763 -0.4014  0.3587
 5655SOL    HW128943   2.496   3.813   8.441 -0.4050 -0.3939  0.5788
 5655SOL    HW228944   2.559   3.933   8.509 -2.5331 -0.2350  2.3861
 5656SOL     OW28945   7.947   7.339   1.640 -0.2245  0.4890 -0.0204
 5656SOL    HW128946   8.005   7.263   1.632 -0.4880  0.1129  1.3454
 5656SOL    HW228947   7.948   7.379   1.554  0.4763 -0.6688 -0.5758
 5657SOL     OW28948   6.022   5.192   4.295  0.3597 -0.1028 -0.1173
 5657SOL    HW128949   5.972   5.209   4.374  0.1346 -0.2280 -0.2338
 5657SOL    HW228950   6.107   5.161   4.326  0.6534  0.8761  0.0987
 5658SOL     OW28951   0.363   9.729   5.751  0.0009 -0.2333  0.1529
 5658SOL    HW128952   0.323   9.800   5.701  3.9865  1.9955 -0.2664
 5658SOL    HW228953   0.341   9.650   5.702 -1.9049  1.0298 -1.1957
 5659SOL     OW28954   0.763   2.540   8.553 -0.2556  0.0773  0.3642
 5659SOL    HW128955   0.817   2.612   8.521  0.0425 -0.1534  0.3350
 5659SOL    HW228956   0.770   2.545   8.648  2.2604 -1.7086  0.3831
 5660SOL     OW28957   1.356   9.264   2.326  0.2164 -0.2216 -0.0908
 5660SOL    HW128958   1.280   9.264   2.268  0.6349  4.2048 -1.0447
 5660SOL    HW228959   1.321   9.292   2.411  0.2713 -2.1905  0.6170
 5661SOL     OW28960   9.572   1.746   5.143 -0.0808  0.2085 -0.0842
 5661SOL    HW128961   9.524   1.797   5.078 -1.1614 -0.0603  0.4677
 5661SOL    HW228962   9.555   1.791   5.226 -2.6455 -1.9594  0.7431
 5662SOL     OW28963   8.807   0.926   3.656  0.4097  0.3566 -0.2361
 5662SOL    HW128964   8.765   0.843   3.633 -1.1419  0.2625  2.5141
 5662SOL    HW228965   8.859   0.906   3.733  2.2108  1.4206 -1.1198
 5663SOL     OW28966   2.878   0.630   5.684  0.1108  0.1697 -0.3633
 5663SOL    HW128967   2.920   0.710   5.652  0.6280  0.1401  0.2263
 5663SOL    HW228968   2.835   0.656   5.765 -1.2516  0.2587 -1.0755
 5664SOL     OW28969   3.638   4.264   6.145 -0.1931 -0.8717 -0.0292
 5664SOL    HW128970   3.543   4.271   6.140 -0.1152  1.7373  0.6850
 5664SOL    HW228971   3.654   4.224   6.231 -0.6742  1.8484  1.4381
 5665SOL     OW28972   6.106   0.597   5.401 -0.3210  0.2534  0.6049
 5665SOL    HW128973   6.154   0.548   5.468  0.4873 -0.1672 -0.2456
 5665SOL    HW228974   6.155   0.579   5.320 -1.6920  0.1369 -0.2263
 5666SOL     OW28975   2.990   8.396   1.409 -0.3062  0.0083 -0.1452
 5666SOL    HW128976   3.041   8.454   1.353 -0.3069  0.4442  0.3016
 5666SOL    HW228977   3.048   8.377   1.483 -1.0646  1.1521  0.7748
 5667SOL     OW28978   4.839   8.027   9.982  0.2492  0.3909  0.2339
 5667SOL    HW128979   4.806   8.088   9.916 -1.0323 -1.2489 -0.7029
 5667SOL    HW228980   4.892   8.082  10.040  1.0710  1.9784 -1.8718
 5668SOL     OW28981   0.526   8.172   0.822  0.2559 -0.0621  0.1170
 5668SOL    HW128982   0.558   8.192   0.910 -0.8405  1.5764  0.2009
 5668SOL    HW228983   0.439   8.212   0.819  0.5156  0.4624 -1.8943
 5669SOL     OW28984   0.318   6.030   3.556 -0.1556  0.3766 -0.0789
 5669SOL    HW128985   0.279   6.116   3.541  0.9947  0.7848 -0.8664
 5669SOL    HW228986   0.299   5.981   3.476  0.8708  0.5608 -0.4464
 5670SOL     OW28987   0.084   2.592   2.976 -0.2422  0.1369  0.3667
 5670SOL    HW128988   0.118   2.682   2.968 -0.3130  0.0935 -0.4491
 5670SOL    HW228989   0.005   2.601   3.030  2.0509 -0.0016  4.1614
 5671SOL     OW28990   1.232   2.982   6.061 -0.0250 -0.0893 -0.1150
 5671SOL    HW128991   1.295   3.052   6.080  0.0639 -0.2772  0.2834
 5671SOL    HW228992   1.193   2.961   6.146 -0.9457  0.3197 -0.4167
 5672SOL     OW28993   6.843   0.511  10.232  0.0024  0.6402 -0.4740
 5672SOL    HW128994   6.868   0.508  10.325 -1.8695 -1.6276  0.0379
 5672SOL    HW228995   6.886   0.435  10.193 -2.6300 -0.9898 -0.4355
 5673SOL     OW28996   0.239   3.251   8.513 -0.0295  0.2739 -0.3042
 5673SOL    HW128997   0.228   3.220   8.423 -0.6416  2.8840 -1.2222
 5673SOL    HW228998   0.178   3.325   8.521  0.3876  0.4532  2.0952
 5674SOL     OW28999   0.971   0.579   8.165  0.1200  0.0789  0.4390
 5674SOL    HW129000   0.916   0.610   8.093 -0.3508 -0.2923  0.6265
 5674SOL    HW229001   1.038   0.646   8.175  0.4841 -0.1050 -0.6659
 5675SOL     OW29002  10.378   0.301   8.608  0.1902 -0.6232 -0.7086
 5675SOL    HW129003  10.375   0.366   8.679  0.3457  0.2732 -1.4974
 5675SOL    HW229004  10.324   0.228   8.639 -0.9490  0.3753 -0.2662
 5676SOL     OW29005   9.465  10.223   8.191  0.0233 -0.0143 -0.5418
 5676SOL    HW129006   9.537  10.178   8.146 -1.2255 -4.3637  1.2682
 5676SOL    HW229007   9.403  10.244   8.122  0.4799 -1.6395 -1.5073
 5677SOL     OW29008   0.455   1.357   6.657 -0.3174  0.3418 -0.0123
 5677SOL    HW129009   0.387   1.385   6.596 -1.3775  1.0077  1.4217
 5677SOL    HW229010   0.530   1.412   6.637 -1.2314  1.8045  0.4203
 5678SOL     OW29011   8.681   4.192   8.252 -0.5628  0.1520  0.0384
 5678SOL    HW129012   8.742   4.227   8.317 -0.2875  1.4357 -0.8568
 5678SOL    HW229013   8.732   4.127   8.204 -0.0045  0.8843 -0.3959
 5679SOL     OW29014   0.683   0.531   3.866  0.2626  0.1685  0.2478
 5679SOL    HW129015   0.668   0.453   3.813  0.8515 -0.6939  1.2964
 5679SOL    HW229016   0.654   0.604   3.811  0.7070 -0.6896 -1.1673
 5680SOL     OW29017   0.102   7.047   8.129 -0.0104 -0.4705 -0.0741
 5680SOL    HW129018   0.081   7.096   8.049 -1.3961 -0.8384  0.0394
 5680SOL    HW229019   0.096   7.113   8.198  1.5759 -0.0634 -0.2819
 5681SOL     OW29020   3.833   1.307   9.782  0.4050 -0.3460  0.9775
 5681SOL    HW129021   3.849   1.393   9.821  0.7644 -0.5379  1.2621
 5681SOL    HW229022   3.829   1.324   9.688  1.0589 -0.0997  0.9878
 5682SOL     OW29023   1.417   1.730   4.590  0.3138  0.6296  0.2908
 5682SOL    HW129024   1.500   1.690   4.567 -0.6974 -0.7933 -1.0723
 5682SOL    HW229025   1.376   1.669   4.651 -0.0859  0.9024  0.3064
 5683SOL     OW29026   4.540   9.384   8.100  0.5103 -0.1282 -0.1411
 5683SOL    HW129027   4.521   9.427   8.017  0.8036  0.3323  0.0268
 5683SOL    HW229028   4.635   9.372   8.100  0.4568 -0.5574 -0.0824
 5684SOL     OW29029   0.919   5.370   3.210  0.2007  0.0741 -0.1856
 5684SOL    HW129030   1.009   5.338   3.220  0.6784  1.7018  1.3597
 5684SOL    HW229031   0.904   5.424   3.288 -2.9022 -1.8447  0.7344
 5685SOL     OW29032   7.090   9.383   2.430  0.1994 -0.4575 -0.1730
 5685SOL    HW129033   7.043   9.445   2.374  1.4153 -0.5643 -1.3695
 5685SOL    HW229034   7.030   9.367   2.503 -0.0074  2.4350  0.4306
 5686SOL     OW29035   3.323   8.622   7.098 -0.5764 -0.3939  0.3947
 5686SOL    HW129036   3.250   8.684   7.095  1.0365  1.6297  0.6870
 5686SOL    HW229037   3.379   8.647   7.024  0.5702 -0.8781  1.0676
 5687SOL     OW29038   2.724   2.370   2.502  0.0821 -0.1361 -0.3204
 5687SOL    HW129039   2.775   2.380   2.421 -0.7287  1.0948 -0.7065
 5687SOL    HW229040   2.790   2.356   2.570  0.8070 -0.7324 -1.1247
 5688SOL     OW29041   8.890   2.376   1.249  0.9557 -0.4336 -0.8321
 5688SOL    HW129042   8.891   2.454   1.304 -3.5260 -0.9409  0.3673
 5688SOL    HW229043   8.912   2.304   1.308 -2.5130 -0.8114  0.2155
 5689SOL     OW29044   0.942   9.219   4.755 -0.1006  0.1247 -0.2255
 5689SOL    HW129045   0.923   9.268   4.675 -0.8614  0.0962 -0.0749
 5689SOL    HW229046   1.011   9.269   4.798  1.4766 -0.7282 -1.6666
 5690SOL     OW29047   7.811   8.126   2.053 -0.7417  0.0661 -0.2732
 5690SOL    HW129048   7.904   8.106   2.065 -0.8915 -0.2453  0.4144
 5690SOL    HW229049   7.790   8.185   2.124 -1.1696 -0.1835 -0.1889
 5691SOL     OW29050   0.665   0.684   9.284 -0.1576  0.4917  0.2192
 5691SOL    HW129051   0.745   0.723   9.319 -0.0683  1.3225 -0.8701
 5691SOL    HW229052   0.684   0.590   9.279  1.5543  0.8694 -1.9916
 5692SOL     OW29053   0.620   5.032   0.528 -0.2033 -0.3071 -0.4262
 5692SOL    HW129054   0.683   5.009   0.597 -0.0668  1.1007 -0.0589
 5692SOL    HW229055   0.570   4.952   0.514 -1.3956 -0.1868  2.5336
 5693SOL     OW29056   9.423   4.857   5.192  0.3826 -0.1771  0.0262
 5693SOL    HW129057   9.497   4.909   5.225  0.9228 -0.6057 -0.4861
 5693SOL    HW229058   9.409   4.790   5.259  0.4542 -0.0899  0.1292
 5694SOL     OW29059   5.051   0.911   9.808 -0.3321  0.6801 -0.5825
 5694SOL    HW129060   5.056   0.921   9.713  0.9049  0.5673 -0.5518
 5694SOL    HW229061   5.142   0.923   9.838 -0.1799 -2.0462  0.2894
 5695SOL     OW29062   8.059   8.648  10.230  0.8059  0.6812  0.1197
 5695SOL    HW129063   8.125   8.589  10.267  1.2513  1.1191  0.0431
 5695SOL    HW229064   8.019   8.599  10.159  1.2065  0.4858  0.0270
 5696SOL     OW29065   1.965   7.524   6.762 -0.4587  0.2447 -0.2831
 5696SOL    HW129066   2.041   7.507   6.707  1.1621  2.5506  1.0834
 5696SOL    HW229067   1.973   7.462   6.835  0.2006  0.5685 -0.0772
 5697SOL     OW29068   6.017   8.425   0.767  0.1954 -0.2830 -0.0112
 5697SOL    HW129069   5.938   8.383   0.734 -0.3019  0.7151 -0.1208
 5697SOL    HW229070   6.062   8.457   0.688 -0.8478  1.8450  0.2019
 5698SOL     OW29071   3.606   9.379   0.231  0.1000 -0.4114  0.1259
 5698SOL    HW129072   3.699   9.401   0.223 -0.2404  1.0459 -0.1364
 5698SOL    HW229073   3.573   9.438   0.299 -1.2851  1.4285 -2.0001
 5699SOL     OW29074   0.878   9.201   8.259 -0.0101 -0.0258 -0.3541
 5699SOL    HW129075   0.892   9.205   8.354 -0.8829 -0.6767 -0.1823
 5699SOL    HW229076   0.790   9.236   8.247  0.4173  0.8530 -1.0284
 5700SOL     OW29077   9.055   2.115   8.311  0.0446  0.1700  0.1967
 5700SOL    HW129078   8.969   2.076   8.301 -0.4570  1.3017 -0.0899
 5700SOL    HW229079   9.056   2.148   8.400  0.1127  0.3104  0.1450
 5701SOL     OW29080   2.728   2.476   5.599  0.1050 -0.2723 -0.9840
 5701SOL    HW129081   2.728   2.405   5.663  0.9533  0.8407  0.3393
 5701SOL    HW229082   2.821   2.497   5.586 -0.1374  1.1541 -0.6483
 5702SOL     OW29083   1.012   2.299   9.588 -0.0039  0.5055 -0.4360
 5702SOL    HW129084   1.010   2.239   9.513  0.6245 -0.3280  0.1926
 5702SOL    HW229085   0.935   2.355   9.576 -0.8086 -0.6433 -0.8716
 5703SOL     OW29086   5.800   5.297   9.386  0.0334  0.2433 -0.2304
 5703SOL    HW129087   5.823   5.275   9.295 -1.6117 -2.4141 -0.1081
 5703SOL    HW229088   5.711   5.332   9.381 -0.3612 -0.6403  0.4140
 5704SOL     OW29089   3.473   4.289   5.742  0.2787 -0.0327 -0.7048
 5704SOL    HW129090   3.563   4.296   5.774  0.0521 -2.1179  0.6035
 5704SOL    HW229091   3.422   4.343   5.802  0.6658  1.3987 -1.6324
 5705SOL     OW29092   1.235   8.331   9.213 -0.0668  0.3071 -0.3240
 5705SOL    HW129093   1.174   8.373   9.274 -1.4358 -0.4270 -1.1177
 5705SOL    HW229094   1.232   8.238   9.237 -1.2741 -0.1372 -1.9615
 5706SOL     OW29095   2.500   0.043   5.077  0.1240 -0.4641 -0.2997
 5706SOL    HW129096   2.493   0.100   5.001  1.8572 -1.6107 -1.4005
 5706SOL    HW229097   2.466  -0.041   5.047  0.5002 -0.8335  0.2835
 5707SOL     OW29098   1.574   9.672   3.325 -0.2257  0.3430 -0.5267
 5707SOL    HW129099   1.617   9.705   3.404 -1.2673 -0.8736  0.5938
 5707SOL    HW229100   1.645   9.658   3.263  0.8850 -0.5526  0.8793
 5708SOL     OW29101   2.845   7.033   4.367  0.3054  0.4043 -0.4900
 5708SOL    HW129102   2.791   7.109   4.345 -2.7824 -1.4741  0.0026
 5708SOL    HW229103   2.828   7.017   4.459  0.6834 -1.0548 -0.6478
 5709SOL     OW29104  10.221   2.213   1.383 -0.4373 -0.2670  0.0273
 5709SOL    HW129105  10.218   2.309   1.375  1.7671 -0.1395  0.0674
 5709SOL    HW229106  10.229   2.197   1.477  1.0563 -0.3503 -0.0825
 5710SOL     OW29107   9.958   0.932   6.876 -0.3128 -0.0303 -0.4205
 5710SOL    HW129108   9.915   1.002   6.826 -0.1554  0.1625 -0.2832
 5710SOL    HW229109  10.003   0.880   6.809  2.1781  1.7737 -0.2557
 5711SOL     OW29110   0.910   1.212   4.740 -0.1551 -0.0108 -0.4746
 5711SOL    HW129111   1.002   1.223   4.764 -0.6365  2.5358  0.5957
 5711SOL    HW229112   0.901   1.119   4.720  1.9830 -1.0097  2.4136
 5712SOL     OW29113   9.830  10.134   8.756  0.0301 -0.1168  0.5999
 5712SOL    HW129114   9.880  10.196   8.704  0.4933 -0.9886 -0.0162
 5712SOL    HW229115   9.859  10.048   8.725  0.4285 -0.6632  2.4008
 5713SOL     OW29116   5.677   4.644   7.580 -0.0271  0.2547 -0.0095
 5713SOL    HW129117   5.724   4.578   7.529  0.2290 -0.4185  1.0778
 5713SOL    HW229118   5.713   4.637   7.668  1.1403  2.9129 -0.1754
 5714SOL     OW29119   6.616   9.812   9.948  0.6091 -0.1931 -0.4005
 5714SOL    HW129120   6.697   9.772   9.917  1.7493  0.6750  1.3152
 5714SOL    HW229121   6.591   9.871   9.877  2.2959  0.5955 -0.4060
 5715SOL     OW29122  10.222   1.473   8.774  0.2324 -0.0768 -0.4073
 5715SOL    HW129123  10.271   1.391   8.776 -0.3483 -0.4134  0.5788
 5715SOL    HW229124  10.225   1.501   8.683 -0.5450 -1.7902 -0.9932
 5716SOL     OW29125   5.776   1.774   8.104  0.2604 -0.4212 -0.1342
 5716SOL    HW129126   5.851   1.791   8.161  0.5397 -2.2765  0.1052
 5716SOL    HW229127   5.814   1.757   8.018  0.0479 -0.3970 -0.2325
 5717SOL     OW29128   6.840   1.227   6.088  0.4211 -0.6777  0.5578
 5717SOL    HW129129   6.827   1.167   6.161 -1.4463 -2.6679 -1.2368
 5717SOL    HW229130   6.829   1.172   6.010 -2.0091  2.0331 -1.2378
 5718SOL     OW29131   9.933   3.997   0.927 -0.1550 -0.3268 -0.6205
 5718SOL    HW129132   9.983   4.076   0.948 -1.2502  0.1351  0.3774
 5718SOL    HW229133   9.902   4.012   0.838 -1.1514  0.8311 -0.1107
 5719SOL     OW29134   6.896   1.998   4.086  0.7256  0.1995  0.0115
 5719SOL    HW129135   6.806   1.979   4.114 -0.2790  0.8342 -2.5002
 5719SOL    HW229136   6.944   1.918   4.104 -0.5997 -0.5311  0.4500
 5720SOL     OW29137   9.684  10.208   4.356  0.1936 -0.4213  0.4353
 5720SOL    HW129138   9.695  10.151   4.432  2.0989 -0.9043 -0.1617
 5720SOL    HW229139   9.770  10.247   4.342 -0.4971  0.8116 -0.5919
 5721SOL     OW29140   0.321   3.464   7.067  0.1860 -0.0196 -0.1408
 5721SOL    HW129141   0.348   3.519   6.993 -0.3233 -0.1571 -0.4410
 5721SOL    HW229142   0.260   3.518   7.116 -1.6950 -0.8726 -1.4092
 5722SOL     OW29143   9.977   4.724   6.396  0.0757 -0.1992  0.0872
 5722SOL    HW129144   9.987   4.742   6.303  1.9767  1.5468  0.5728
 5722SOL    HW229145   9.887   4.750   6.416  0.3889  1.7046 -0.8033
 5723SOL     OW29146   9.640   5.693   9.280  0.1585 -0.0648  0.0605
 5723SOL    HW129147   9.706   5.744   9.233 -0.1732 -0.2277 -0.5952
 5723SOL    HW229148   9.685   5.662   9.359  1.3015 -1.3244 -1.0381
 5724SOL     OW29149   4.547   7.013   5.376 -0.6513  0.0710 -0.0698
 5724SOL    HW129150   4.476   6.964   5.418 -1.3071 -0.4192 -1.6794
 5724SOL    HW229151   4.507   7.096   5.351  0.2581  1.1790  1.9620
 5725SOL     OW29152   6.408   6.870   9.590  0.0450 -0.1061 -0.4143
 5725SOL    HW129153   6.369   6.945   9.545 -0.7814 -0.0844  0.3129
 5725SOL    HW229154   6.441   6.906   9.672 -1.4578 -0.7251  0.5128
 5726SOL     OW29155   1.889   8.154   3.996 -0.1063 -0.0099 -0.1070
 5726SOL    HW129156   1.914   8.079   4.050  0.0124 -0.2175 -0.4468
 5726SOL    HW229157   1.924   8.230   4.042 -3.0055  0.2122  2.0286
 5727SOL     OW29158   7.800   4.004   7.720  0.3647 -0.4049  0.0608
 5727SOL    HW129159   7.831   4.093   7.703 -0.4357  0.2680  1.8085
 5727SOL    HW229160   7.878   3.957   7.750  0.5199  0.1417  0.5451
 5728SOL     OW29161   2.714   6.188   9.155  0.2999  0.1358  0.3523
 5728SOL    HW129162   2.761   6.248   9.212  0.8722  0.2400 -0.2212
 5728SOL    HW229163   2.656   6.244   9.103  1.0443  0.2384 -0.3884
 5729SOL     OW29164   0.704   6.787   6.718 -0.3570  0.3794 -0.1018
 5729SOL    HW129165   0.690   6.811   6.809 -0.0676  3.1541 -0.7026
 5729SOL    HW229166   0.799   6.779   6.709 -0.2582  1.6457 -0.4438
 5730SOL     OW29167   7.348   1.014   7.048 -0.5016 -0.5818  0.7661
 5730SOL    HW129168   7.282   1.029   6.981  1.2176 -0.2774 -0.9306
 5730SOL    HW229169   7.389   1.099   7.062  1.2064 -1.2010 -0.1136
 5731SOL     OW29170   3.949  10.052   8.459  0.7191  0.4975 -0.1210
 5731SOL    HW129171   3.944   9.970   8.410 -0.4240  1.2222 -1.3013
 5731SOL    HW229172   3.976  10.117   8.394  1.4691  1.0976  0.7603
 5732SOL     OW29173   3.013   4.697   6.398 -0.2401  0.0861  0.1488
 5732SOL    HW129174   3.094   4.678   6.351  0.1396  0.4248  0.6501
 5732SOL    HW229175   3.041   4.714   6.488 -0.6296  2.0938 -0.0584
 5733SOL     OW29176   9.234   1.522   6.117  0.3084  0.1381  0.4597
 5733SOL    HW129177   9.296   1.579   6.162  0.3278 -0.5437  1.3149
 5733SOL    HW229178   9.287   1.471   6.056  0.5534 -0.2690  1.0129
 5734SOL     OW29179   0.076   1.150   1.574  0.0817  0.7024  0.2285
 5734SOL    HW129180   0.029   1.084   1.522 -0.4553  0.8922  0.4661
 5734SOL    HW229181   0.106   1.103   1.652 -0.8564  0.8732  0.7093
 5735SOL     OW29182   8.807   2.001   8.221  0.6947 -0.5777  0.1451
 5735SOL    HW129183   8.793   1.906   8.228 -0.9547 -0.6205 -2.4499
 5735SOL    HW229184   8.793   2.020   8.129  1.0059  2.2305  0.6067
 5736SOL     OW29185   6.478   0.886   1.022  0.0111  0.2632 -0.1385
 5736SOL    HW129186   6.554   0.842   1.061  0.8642  2.1993  0.5046
 5736SOL    HW229187   6.437   0.819   0.968  0.7311 -1.5675  1.4580
 5737SOL     OW29188   8.081   3.159   3.439 -0.0869 -0.3441  0.5603
 5737SOL    HW129189   8.058   3.099   3.368  0.3771 -1.0430  0.9764
 5737SOL    HW229190   8.001   3.164   3.492 -0.5370  0.4449 -0.1846
 5738SOL     OW29191   7.031   3.354   7.812 -0.0358 -0.1162 -0.0595
 5738SOL    HW129192   7.090   3.423   7.782 -0.5720  0.3398 -0.0827
 5738SOL    HW229193   7.074   3.317   7.888  1.9421 -2.0905 -1.9961
 5739SOL     OW29194  10.189   0.731   3.659 -0.3535  0.2934 -0.8995
 5739SOL    HW129195  10.164   0.738   3.567 -0.4729 -1.4094 -1.0335
 5739SOL    HW229196  10.251   0.658   3.661 -0.5238  0.1727  0.4109
 5740SOL     OW29197   7.677   0.253   5.945  0.0325  0.3598 -0.4233
 5740SOL    HW129198   7.627   0.211   5.874  0.9777 -0.2917 -0.7229
 5740SOL    HW229199   7.711   0.333   5.906 -0.9422  0.9172 -0.1527
 5741SOL     OW29200   7.642   2.558   7.739 -0.0833  0.4764  0.2481
 5741SOL    HW129201   7.712   2.526   7.796 -0.9391  1.0523  1.6776
 5741SOL    HW229202   7.566   2.564   7.796 -1.8197 -1.7896 -1.6622
 5742SOL     OW29203   7.083   2.497   9.733  0.4517 -0.4179 -0.6980
 5742SOL    HW129204   7.130   2.413   9.726  1.3504 -0.0324  0.3484
 5742SOL    HW229205   7.103   2.527   9.821  0.2691  0.9883 -1.1224
 5743SOL     OW29206   3.424   1.156   3.152 -0.6886 -0.0090 -0.6719
 5743SOL    HW129207   3.401   1.094   3.083  1.5788  0.2028 -1.7147
 5743SOL    HW229208   3.519   1.167   3.144 -0.2436 -0.2507  2.7209
 5744SOL     OW29209   7.391   3.716   9.291 -0.4552 -0.5992 -0.0270
 5744SOL    HW129210   7.401   3.747   9.201  0.5892  2.7609  1.1103
 5744SOL    HW229211   7.473   3.669   9.309  0.0188  0.0934 -0.3519
 5745SOL     OW29212   3.949   3.280   8.055  0.1963 -0.4910 -0.2276
 5745SOL    HW129213   3.992   3.353   8.011  0.9080 -0.7615  0.0010
 5745SOL    HW229214   3.907   3.320   8.131  1.9186 -0.5196  0.7961
 5746SOL     OW29215   5.569   4.335   6.725 -0.3063  0.2412  0.8793
 5746SOL    HW129216   5.648   4.315   6.675 -1.2230 -0.7811 -0.2366
 5746SOL    HW229217   5.573   4.277   6.800  0.5062  0.9546  1.4117
 5747SOL     OW29218   7.604  10.027   9.547 -1.1138 -0.3806 -0.6167
 5747SOL    HW129219   7.519  10.014   9.590 -0.8923  2.0885  0.7885
 5747SOL    HW229220   7.614  10.122   9.545  1.6473 -0.6176 -0.6764
 5748SOL     OW29221   7.215   7.344   1.203  0.0223  0.4964 -0.2018
 5748SOL    HW129222   7.123   7.320   1.194 -0.1475  0.9213  0.3618
 5748SOL    HW229223   7.213   7.433   1.237  0.6460  0.8832 -1.1531
 5749SOL     OW29224   4.851  10.177   4.513 -0.9815  0.5901  0.4292
 5749SOL    HW129225   4.875  10.215   4.597  0.4042  0.3302  0.1915
 5749SOL    HW229226   4.816  10.251   4.462 -0.4730  1.0647  0.7529
 5750SOL     OW29227   9.317   5.843   5.677 -0.3336  0.2306  0.0967
 5750SOL    HW129228   9.264   5.920   5.655  1.5444  1.3471 -0.7710
 5750SOL    HW229229   9.351   5.813   5.593  3.5404  1.9772  0.8317
 5751SOL     OW29230   4.633   9.057   6.235 -0.5146 -0.2512  0.4594
 5751SOL    HW129231   4.557   9.114   6.223  1.8933  3.2928  0.6015
 5751SOL    HW229232   4.669   9.047   6.147  0.8159  1.1313  0.8220
 5752SOL     OW29233   2.494   2.303   6.738  0.1871  0.0015  0.0363
 5752SOL    HW129234   2.423   2.244   6.712  1.9299 -1.1318 -2.7087
 5752SOL    HW229235   2.541   2.255   6.806  0.8310 -1.3157 -1.2640
 5753SOL     OW29236   5.827   3.507   8.966 -0.0043  0.0698  0.8700
 5753SOL    HW129237   5.765   3.495   8.893 -0.2230  0.6036  0.9665
 5753SOL    HW229238   5.771   3.522   9.042  0.2449  0.5756  0.9534
 5754SOL     OW29239   4.461   5.409   7.093 -0.5722  0.6586 -0.4375
 5754SOL    HW129240   4.536   5.384   7.145 -1.3446 -0.2016  0.2949
 5754SOL    HW229241   4.410   5.329   7.084 -1.2821  1.1718 -1.1178
 5755SOL     OW29242   0.848   1.103   2.337  0.2299  0.2752  0.9146
 5755SOL    HW129243   0.846   1.035   2.270 -0.1682  1.5643 -0.4480
 5755SOL    HW229244   0.930   1.088   2.384  0.6981 -0.4589 -0.0898
 5756SOL     OW29245   6.245   8.626   0.056  0.0906  0.1938 -0.0817
 5756SOL    HW129246   6.205   8.582  -0.020 -1.2258  0.3375  0.4966
 5756SOL    HW229247   6.243   8.719   0.034 -0.9382  0.2994  0.3931
 5757SOL     OW29248   0.798   3.823   1.188 -0.1004 -0.1768 -0.0732
 5757SOL    HW129249   0.838   3.781   1.264  1.3696  0.2960 -0.5381
 5757SOL    HW229250   0.725   3.766   1.164 -0.4701 -0.4375  1.5504
 5758SOL     OW29251   8.511  10.141   4.834 -0.3484 -0.5931  0.0641
 5758SOL    HW129252   8.456  10.213   4.866  0.5676 -0.6414  1.8332
 5758SOL    HW229253   8.532  10.090   4.912  0.9151 -1.4832 -0.8218
 5759SOL     OW29254   3.931   7.147  10.029  0.4947 -0.2578 -0.2647
 5759SOL    HW129255   3.912   7.053  10.027 -1.0170  0.0373 -1.5388
 5759SOL    HW229256   3.900   7.176  10.115  0.4452 -0.8200 -0.0900
 5760SOL     OW29257   3.615   1.534   7.593 -0.5925 -0.0424 -0.2867
 5760SOL    HW129258   3.569   1.450   7.599 -0.1912 -0.1928  0.7427
 5760SOL    HW229259   3.560   1.595   7.642 -0.1686 -0.0159  0.1563
 5761SOL     OW29260   0.363   7.367   1.157  0.3054  0.0314  0.9733
 5761SOL    HW129261   0.275   7.339   1.129 -0.6330  3.3156  0.2636
 5761SOL    HW229262   0.368   7.343   1.249 -0.8465 -1.2438  0.7377
 5762SOL     OW29263   6.768   0.025   6.093  0.1662  0.4061  0.4812
 5762SOL    HW129264   6.771  -0.037   6.167 -0.4482  1.3598  1.3311
 5762SOL    HW229265   6.860   0.046   6.077  0.4156 -1.0413 -0.1080
 5763SOL     OW29266   1.280   1.908   4.766  0.2310 -0.5951  0.4102
 5763SOL    HW129267   1.361   1.930   4.812  0.0258  0.5294  0.2547
 5763SOL    HW229268   1.309   1.862   4.687  0.6767 -0.8460  0.7140
 5764SOL     OW29269   4.948   9.803   5.727  0.7023 -0.0350  0.0117
 5764SOL    HW129270   4.931   9.891   5.693 -0.4318 -0.8498 -1.6594
 5764SOL    HW229271   4.862   9.762   5.732  1.1006 -0.7581  1.7526
 5765SOL     OW29272   1.828   2.758   4.698  0.2293  0.9088 -0.3407
 5765SOL    HW129273   1.916   2.746   4.662  0.2112  0.6984 -0.3208
 5765SOL    HW229274   1.793   2.834   4.653  0.1782  0.5982 -0.8257
 5766SOL     OW29275   3.724   8.744   9.758  0.1930  0.7715  0.3661
 5766SOL    HW129276   3.709   8.654   9.784  0.0585  0.5915 -0.3004
 5766SOL    HW229277   3.684   8.751   9.671  0.8437  1.2666  0.0956
 5767SOL     OW29278   6.747   3.002   5.498 -0.1673 -0.2049  0.2534
 5767SOL    HW129279   6.712   2.953   5.573  0.1750  1.3230  1.4672
 5767SOL    HW229280   6.835   3.027   5.525 -1.9146  5.3737  2.0174
 5768SOL     OW29281   8.799   3.007   7.020 -0.4922 -0.6844 -0.8092
 5768SOL    HW129282   8.780   3.007   7.114 -0.7107 -0.5324 -0.8531
 5768SOL    HW229283   8.850   2.927   7.006  1.0130  0.1552 -0.2624
 5769SOL     OW29284   1.874   8.812   2.438 -0.0037  0.1323 -0.4928
 5769SOL    HW129285   1.830   8.864   2.371  1.9995  0.5459 -1.5668
 5769SOL    HW229286   1.963   8.799   2.403  0.3941 -1.6084  1.0412
 5770SOL     OW29287   9.192   6.359   7.422  0.5352  0.2623 -0.0206
 5770SOL    HW129288   9.105   6.381   7.456  0.1064  0.0967 -0.9715
 5770SOL    HW229289   9.245   6.346   7.500  0.1678  2.0865  0.5991
 5771SOL     OW29290   4.026   1.970   4.967  0.3286 -0.3317  0.6442
 5771SOL    HW129291   4.017   1.997   5.058 -2.7816  0.5130  0.1903
 5771SOL    HW229292   4.023   1.874   4.970 -0.6617 -0.2930  1.3942
 5772SOL     OW29293   5.658   0.064   5.207 -0.3940 -0.4862 -0.1716
 5772SOL    HW129294   5.701  -0.019   5.230  1.2664  0.2451 -0.4696
 5772SOL    HW229295   5.675   0.121   5.282 -0.3202  0.0063 -0.5571
 5773SOL     OW29296   2.626   6.217   5.968 -0.4735 -0.1235  0.3012
 5773SOL    HW129297   2.617   6.272   5.891  0.8029  0.9148  0.8419
 5773SOL    HW229298   2.539   6.215   6.007 -0.9233  0.0631 -0.6765
 5774SOL     OW29299   6.011   6.203   9.230 -0.4243 -0.5311  0.1357
 5774SOL    HW129300   6.077   6.134   9.231 -1.0407 -1.1501 -0.8123
 5774SOL    HW229301   6.053   6.276   9.184  1.1820  0.7745  3.3272
 5775SOL     OW29302   9.624   3.890   2.133  0.2766  0.0426 -0.0628
 5775SOL    HW129303   9.699   3.837   2.159  0.0070  0.3358  1.4092
 5775SOL    HW229304   9.560   3.827   2.100  0.1042 -0.5414  1.3176
 5776SOL     OW29305   9.065  10.049   3.379 -0.5010 -0.1033  0.1787
 5776SOL    HW129306   8.980  10.079   3.412  0.7152  2.2040  1.4454
 5776SOL    HW229307   9.115  10.027   3.457  1.0011  1.3383 -0.3054
 5777SOL     OW29308   9.433   1.932   5.304 -0.3350 -0.5445 -0.1070
 5777SOL    HW129309   9.343   1.962   5.321 -0.8663 -2.9998  1.9136
 5777SOL    HW229310   9.488   1.993   5.352 -0.8983  0.6441 -0.8943
 5778SOL     OW29311   4.752   8.233   9.762  0.2125  0.3558  0.6398
 5778SOL    HW129312   4.715   8.298   9.702  1.6460 -0.9157 -1.8221
 5778SOL    HW229313   4.837   8.268   9.787  1.3686 -0.7817 -1.3721
 5779SOL     OW29314   5.532   0.600   4.935  0.4670 -0.2347  0.3259
 5779SOL    HW129315   5.452   0.636   4.896 -0.3255 -0.8931  1.3030
 5779SOL    HW229316   5.506   0.515   4.970  1.5336 -0.3314  0.9350
 5780SOL     OW29317   1.487   9.067   0.741 -0.9345  0.0614  0.2393
 5780SOL    HW129318   1.498   9.115   0.660 -1.7532  0.9358  0.6255
 5780SOL    HW229319   1.418   9.114   0.788 -0.2248 -0.1999  1.6100
 5781SOL     OW29320   0.092   3.910   5.918  0.1433  0.1673 -0.4136
 5781SOL    HW129321   0.083   3.867   5.833 -1.6658  1.0704 -0.7239
 5781SOL    HW229322   0.092   4.003   5.898 -1.7977  0.4423  0.6502
 5782SOL     OW29323   5.302   2.917   1.675 -0.5225 -0.1619  0.1441
 5782SOL    HW129324   5.241   2.848   1.701 -1.2268 -0.7739 -2.8301
 5782SOL    HW229325   5.373   2.871   1.629 -0.6202  0.9863 -1.2263
 5783SOL     OW29326   7.560   7.190   4.410 -0.0189  0.1678  0.1359
 5783SOL    HW129327   7.599   7.237   4.336  1.1133  0.1217  0.6662
 5783SOL    HW229328   7.510   7.257   4.457 -0.1038  0.3744 -0.2518
 5784SOL     OW29329   2.864   0.042   5.074  0.2799  0.6065 -0.2882
 5784SOL    HW129330   2.792  -0.021   5.079 -1.3733  2.4146 -0.0441
 5784SOL    HW229331   2.861   0.075   4.985  0.4432  1.0769 -0.1258
 5785SOL     OW29332   2.568   8.098   1.468 -0.1434 -0.0700  0.5790
 5785SOL    HW129333   2.488   8.049   1.448 -0.0715 -0.2048  0.6173
 5785SOL    HW229334   2.631   8.069   1.402 -0.2646  0.3849  0.2613
 5786SOL     OW29335   8.453   4.131   5.227  0.2073 -0.5065 -0.0288
 5786SOL    HW129336   8.430   4.056   5.172 -1.3670 -0.1191  0.0437
 5786SOL    HW229337   8.486   4.092   5.308 -1.4640 -1.1757  0.3701
 5787SOL     OW29338   5.023   4.350   4.731 -0.0813  0.4051 -0.1027
 5787SOL    HW129339   5.037   4.444   4.742 -1.4400  0.8143 -1.5870
 5787SOL    HW229340   5.108   4.318   4.701  0.1071  1.3628 -0.6580
 5788SOL     OW29341   2.556  10.378   2.779  0.0694  0.3332  0.1634
 5788SOL    HW129342   2.609  10.448   2.741 -0.0298  0.7010  0.7013
 5788SOL    HW229343   2.492  10.423   2.833 -0.3453 -0.1472  0.0824
 5789SOL     OW29344   7.473   7.656   9.993  0.0896 -0.4517  0.3711
 5789SOL    HW129345   7.506   7.637  10.080  1.8500  0.8293  0.0512
 5789SOL    HW229346   7.385   7.690  10.006  0.2940 -0.3891  1.6271
 5790SOL     OW29347   8.028   8.806   1.472 -0.0828 -0.0928 -0.2135
 5790SOL    HW129348   8.020   8.798   1.377 -1.3672  0.1015 -0.1493
 5790SOL    HW229349   8.052   8.898   1.487 -2.9564  0.7855 -0.2812
 5791SOL     OW29350   1.484   6.156   3.795  0.2744  0.0184 -0.1669
 5791SOL    HW129351   1.407   6.118   3.839 -0.7357  1.8526 -0.2663
 5791SOL    HW229352   1.492   6.106   3.714 -1.2413  0.2345 -0.4751
 5792SOL     OW29353   6.906   3.724   1.525 -0.3358 -0.4442 -0.1616
 5792SOL    HW129354   6.939   3.814   1.524  1.4968 -1.0485 -2.1511
 5792SOL    HW229355   6.841   3.723   1.595  0.7602  1.9969  1.0184
 5793SOL     OW29356   4.720  10.143   8.107 -0.6640  0.0150 -0.0952
 5793SOL    HW129357   4.638  10.126   8.060 -0.8965  1.3129 -0.2056
 5793SOL    HW229358   4.697  10.214   8.169  0.2612  0.0733  0.1923
 5794SOL     OW29359   1.975   3.245   0.670  0.0683  0.3009  0.2417
 5794SOL    HW129360   1.902   3.226   0.611  1.0985 -1.5396 -0.5029
 5794SOL    HW229361   1.966   3.338   0.689 -3.2375 -0.1038  1.2465
 5795SOL     OW29362   9.482   4.377   8.595  0.0620  0.2990 -0.2719
 5795SOL    HW129363   9.449   4.296   8.633  1.5266 -1.1505 -1.8833
 5795SOL    HW229364   9.407   4.415   8.551 -0.5494 -0.4228  0.1179
 5796SOL     OW29365   4.972   8.005   1.046  0.2472 -0.0642  0.3683
 5796SOL    HW129366   5.045   8.057   1.079  1.0949  0.2755 -1.8674
 5796SOL    HW229367   4.903   8.069   1.029  0.8280  0.2181 -1.1277
 5797SOL     OW29368   1.723   4.643   7.774 -0.3293  0.0072 -0.4788
 5797SOL    HW129369   1.647   4.666   7.721 -1.3105 -1.5230  0.1891
 5797SOL    HW229370   1.774   4.723   7.778 -2.1094  1.2156 -0.6152
 5798SOL     OW29371   2.413   4.154   9.093 -0.2034  0.6129 -0.1050
 5798SOL    HW129372   2.328   4.134   9.132 -0.7385  1.1469 -0.9705
 5798SOL    HW229373   2.412   4.248   9.079  0.9741  0.7873  0.8646
 5799SOL     OW29374   8.782   4.275   4.750  0.1050  0.3461  0.0554
 5799SOL    HW129375   8.736   4.192   4.737  1.3839 -0.2164 -1.1233
 5799SOL    HW229376   8.854   4.253   4.809  2.4998 -0.2855 -2.8162
 5800SOL     OW29377   3.403   1.377   9.289 -0.6334  0.5361  0.7447
 5800SOL    HW129378   3.429   1.287   9.310  0.6543  0.5923 -0.4826
 5800SOL    HW229379   3.439   1.393   9.202 -2.4371  1.6342  0.1527
 5801SOL     OW29380   6.652  10.239   3.885  0.0437  0.3198  0.1768
 5801SOL    HW129381   6.570  10.259   3.929  0.5091  1.0650  0.7338
 5801SOL    HW229382   6.716  10.300   3.924  0.9730 -0.6056  0.1499
 5802SOL     OW29383   8.715   9.785   1.822  0.5264 -0.3003  0.0969
 5802SOL    HW129384   8.780   9.721   1.851  0.2410 -1.9144 -2.4842
 5802SOL    HW229385   8.634   9.734   1.815 -0.0651  0.7107 -0.5923
 5803SOL     OW29386   9.694   3.997   0.170  0.0123  0.3387 -0.1383
 5803SOL    HW129387   9.718   3.925   0.228 -1.2553 -0.8316 -1.0077
 5803SOL    HW229388   9.770   4.055   0.171  1.1873 -1.1461  0.3870
 5804SOL     OW29389   0.995   2.444   4.665 -1.0353  0.6742  0.2639
 5804SOL    HW129390   0.936   2.398   4.725  0.2370 -0.1026  0.9650
 5804SOL    HW229391   1.031   2.516   4.716 -0.3997  0.3671  0.2614
 5805SOL     OW29392   0.718   6.860   0.645  0.4813 -0.4580  0.5785
 5805SOL    HW129393   0.741   6.768   0.654  0.4558 -0.3442  1.9877
 5805SOL    HW229394   0.733   6.897   0.732  0.7372  0.9220 -0.0317
 5806SOL     OW29395   7.924   1.550   8.506 -0.6315  0.2409 -0.3973
 5806SOL    HW129396   7.854   1.503   8.460 -1.1665 -0.5544  1.1907
 5806SOL    HW229397   7.879   1.620   8.553 -0.2336  0.3535 -0.1786
 5807SOL     OW29398   1.228   1.440   9.924 -0.0472  0.3660 -0.0990
 5807SOL    HW129399   1.215   1.389   9.843  2.1551 -0.0462 -0.2394
 5807SOL    HW229400   1.142   1.439   9.966 -0.7827 -1.0285 -1.5171
 5808SOL     OW29401   1.251   3.663   8.666 -0.3862 -0.0366 -0.4250
 5808SOL    HW129402   1.321   3.607   8.632  0.3788  0.5144  0.2118
 5808SOL    HW229403   1.172   3.631   8.622  0.2410 -0.7298 -1.0909
 5809SOL     OW29404   0.249   3.235   9.848  0.4434  0.2251 -0.4768
 5809SOL    HW129405   0.315   3.187   9.897  0.0234  0.1143 -0.0060
 5809SOL    HW229406   0.165   3.205   9.884  0.1626  1.0314 -0.4192
 5810SOL     OW29407  10.361   6.482   4.481  0.3259 -0.1761  0.6181
 5810SOL    HW129408  10.441   6.533   4.463 -0.0318 -0.2873 -1.5316
 5810SOL    HW229409  10.291   6.547   4.483  0.0107 -0.4057 -1.1290
 5811SOL     OW29410   2.425   3.064   0.417  0.2112  0.0837 -0.3417
 5811SOL    HW129411   2.417   3.104   0.503 -0.1665 -0.3493 -0.1662
 5811SOL    HW229412   2.387   3.128   0.357 -1.5260 -0.4813  0.0797
 5812SOL     OW29413   2.324   6.648   0.133 -0.1149  0.0035  0.3476
 5812SOL    HW129414   2.231   6.669   0.132  0.0869  0.9443  0.6578
 5812SOL    HW229415   2.331   6.567   0.082 -1.1368 -0.2591  0.6092
 5813SOL     OW29416   9.969   9.109   0.328 -0.3014  0.0487 -0.1658
 5813SOL    HW129417  10.019   9.034   0.297 -1.8669 -1.9374  1.7632
 5813SOL    HW229418  10.030   9.158   0.384  0.4482 -0.3415 -0.6287
 5814SOL     OW29419   1.849   1.581   9.430 -0.0665 -0.2958 -0.3170
 5814SOL    HW129420   1.895   1.665   9.421 -0.1413 -0.3882 -1.9719
 5814SOL    HW229421   1.760   1.599   9.399  0.0304 -1.0723 -1.0825
 5815SOL     OW29422  10.385   6.637   4.084  0.2907 -0.3243  0.2054
 5815SOL    HW129423  10.442   6.590   4.023  0.7314  1.6173 -0.9689
 5815SOL    HW229424  10.444   6.689   4.138 -0.2114 -0.5768  1.0194
 5816SOL     OW29425   2.527   0.806   1.242 -0.4487  0.0139  0.4929
 5816SOL    HW129426   2.460   0.759   1.292  0.2795 -0.5719  0.9339
 5816SOL    HW229427   2.520   0.896   1.271 -2.2288  0.3275 -0.7400
 5817SOL     OW29428   7.332   7.292   4.095 -0.3126  0.6306  0.2064
 5817SOL    HW129429   7.300   7.269   4.182  0.4068  0.1580  0.3524
 5817SOL    HW229430   7.369   7.380   4.105  0.2140  0.3760  0.4898
 5818SOL     OW29431   0.544   7.624   3.312  0.2566 -0.5775  0.7272
 5818SOL    HW129432   0.496   7.588   3.387 -0.7427  0.4379  0.6007
 5818SOL    HW229433   0.478   7.673   3.263  1.2574  0.1577  0.0872
 5819SOL     OW29434   8.338   2.571   8.305 -0.3941  0.4383 -0.4806
 5819SOL    HW129435   8.309   2.654   8.343 -1.1145  1.0229 -2.2012
 5819SOL    HW229436   8.373   2.522   8.379  0.6578  2.5145  0.4956
 5820SOL     OW29437   2.281   9.575   6.944 -0.4180  0.4480 -0.4294
 5820SOL    HW129438   2.324   9.524   6.875 -0.2387  0.0938 -0.0565
 5820SOL    HW229439   2.346   9.583   7.013 -1.5156 -1.6677  0.9365
 5821SOL     OW29440   6.334   9.893   7.471 -0.1872  0.3839  0.4137
 5821SOL    HW129441   6.426   9.893   7.500 -0.4194 -1.1185  1.2462
 5821SOL    HW229442   6.284   9.882   7.552 -0.9948 -0.9204 -0.2313
 5822SOL     OW29443   3.691   8.148   1.060  0.3153  0.3797  0.1317
 5822SOL    HW129444   3.686   8.147   1.156 -1.1815 -1.6496  0.1214
 5822SOL    HW229445   3.783   8.134   1.041  0.6579  0.9382  1.2685
 5823SOL     OW29446   1.916   0.852   5.505  0.1270 -0.5304  0.5774
 5823SOL    HW129447   1.990   0.864   5.564 -0.1081  0.2895  0.7216
 5823SOL    HW229448   1.839   0.861   5.561 -0.1225  1.3399  0.0066
 5824SOL     OW29449   0.922   8.970   0.941  0.3045 -0.2255  0.1097
 5824SOL    HW129450   1.006   8.926   0.956 -0.1039 -1.7446 -1.6143
 5824SOL    HW229451   0.947   9.057   0.908  1.2499 -0.9054 -1.0721
 5825SOL     OW29452   6.944   5.197   7.496 -0.0576  0.1376 -0.0249
 5825SOL    HW129453   6.961   5.158   7.582  2.5965  0.2634 -0.3907
 5825SOL    HW229454   6.965   5.290   7.508 -3.2601  0.9666  0.0388
 5826SOL     OW29455   5.334   7.948   4.101  0.3304 -0.0877 -1.0590
 5826SOL    HW129456   5.316   8.028   4.052 -0.0723  0.2669 -0.3334
 5826SOL    HW229457   5.250   7.902   4.105  0.8685 -1.3614 -2.8707
 5827SOL     OW29458   0.031   2.043   3.186  0.3184  0.0648  0.5455
 5827SOL    HW129459   0.016   1.988   3.109  2.8961  2.3104 -1.7750
 5827SOL    HW229460  -0.037   2.111   3.180  0.0839 -0.1531  0.6930
 5828SOL     OW29461   5.358   7.328   8.643 -0.3581  0.7725  0.4066
 5828SOL    HW129462   5.375   7.364   8.556 -0.0904  1.3560  0.6978
 5828SOL    HW229463   5.300   7.254   8.627 -0.0450  0.6742 -0.3010
 5829SOL     OW29464   3.695   6.914   5.701 -0.0513  0.0735  0.3888
 5829SOL    HW129465   3.788   6.933   5.689 -0.0787 -0.6243 -1.3348
 5829SOL    HW229466   3.687   6.889   5.793  1.4201  0.3480  0.6265
 5830SOL     OW29467   0.642   1.855   2.655  0.2916 -0.3865  0.3394
 5830SOL    HW129468   0.657   1.938   2.702  1.2366 -0.7498  0.7036
 5830SOL    HW229469   0.569   1.815   2.701 -1.0997  0.8511 -0.6832
 5831SOL     OW29470   4.355   2.047   7.865 -0.5084 -0.4672 -0.5202
 5831SOL    HW129471   4.405   2.118   7.824  0.7804 -0.7385  0.5263
 5831SOL    HW229472   4.288   2.025   7.801 -0.5373  1.2594 -1.1415
 5832SOL     OW29473   0.114   0.798   8.360  0.4745 -0.0688 -0.5587
 5832SOL    HW129474   0.136   0.839   8.444  1.9503  1.4879 -1.6229
 5832SOL    HW229475   0.129   0.705   8.373  0.5173  0.1336  0.9500
 5833SOL     OW29476   9.357   4.009   2.240  0.3834 -0.5658  0.1545
 5833SOL    HW129477   9.339   4.076   2.174  0.4734 -0.3610  0.3348
 5833SOL    HW229478   9.452   3.996   2.234  0.1098 -2.2910 -1.4197
 5834SOL     OW29479   6.896   7.673   4.165 -0.1906  0.1872  0.3463
 5834SOL    HW129480   6.916   7.729   4.241  1.0149  0.2924 -0.0224
 5834SOL    HW229481   6.965   7.607   4.166 -0.4495 -0.1034 -0.3818
 5835SOL     OW29482  10.247   4.424   9.159 -0.2185  0.0846  0.2356
 5835SOL    HW129483  10.294   4.401   9.238  0.3695 -0.5196 -0.2788
 5835SOL    HW229484  10.312   4.417   9.089 -1.0247 -0.6445 -0.4656
 5836SOL     OW29485   4.719   3.976   6.919  0.1851  0.1457  0.0940
 5836SOL    HW129486   4.767   3.898   6.943  0.7274  1.0697  2.2894
 5836SOL    HW229487   4.779   4.027   6.864  0.0756 -0.6307 -0.7650
 5837SOL     OW29488   0.881   0.790   2.540 -0.1136  0.8846  0.4077
 5837SOL    HW129489   0.973   0.816   2.533 -0.2724  1.7423  1.4140
 5837SOL    HW229490   0.847   0.799   2.451  1.0484 -0.5843 -0.2420
 5838SOL     OW29491   0.440   2.869   1.454  0.3367 -0.1361 -0.0631
 5838SOL    HW129492   0.534   2.883   1.444  0.1553  0.8854 -0.5182
 5838SOL    HW229493   0.406   2.955   1.482 -0.3195 -0.7599  1.1555
 5839SOL     OW29494   3.709   4.532   2.689 -0.3852 -0.4174 -0.0988
 5839SOL    HW129495   3.632   4.475   2.701 -0.0219 -0.9402 -0.2170
 5839SOL    HW229496   3.740   4.512   2.601 -0.1641 -0.1398 -0.0856
 5840SOL     OW29497   8.947   0.931  10.020  0.2332 -0.4550 -0.3392
 5840SOL    HW129498   8.875   0.939  10.082  0.1512  0.2666 -0.5263
 5840SOL    HW229499   9.024   0.913  10.075  0.3140  0.9885  0.0628
 5841SOL     OW29500  10.238   0.973   6.140  0.4379 -0.6587  0.5612
 5841SOL    HW129501  10.243   0.892   6.089 -0.2279 -0.6610  0.4906
 5841SOL    HW229502  10.148   0.975   6.172  0.4277  0.0951  0.4971
 5842SOL     OW29503   8.086  10.015   4.345  0.2479 -0.1768  0.0747
 5842SOL    HW129504   8.031  10.049   4.274  0.3627 -0.4691 -0.1584
 5842SOL    HW229505   8.024   9.971   4.404  0.2138 -0.4212 -0.1373
 5843SOL     OW29506   2.195   1.053   0.131  0.3503  0.2362  0.4930
 5843SOL    HW129507   2.144   1.023   0.055  2.6739 -1.1057 -0.6695
 5843SOL    HW229508   2.197   1.148   0.122 -2.0302  0.3458  0.6928
 5844SOL     OW29509   1.644   7.870   4.767  0.3522  0.2641 -0.9544
 5844SOL    HW129510   1.613   7.819   4.692 -0.0352  0.9133 -1.2485
 5844SOL    HW229511   1.602   7.830   4.843  1.1534 -0.7226 -1.0169
 5845SOL     OW29512   5.839   6.896   5.637 -0.0306  0.1232  0.3956
 5845SOL    HW129513   5.837   6.986   5.605  1.1549  0.1151  0.2422
 5845SOL    HW229514   5.803   6.901   5.725 -0.7093  0.6115  0.0986
 5846SOL     OW29515   8.005   7.676   2.324  0.2187  0.4676  0.5763
 5846SOL    HW129516   8.043   7.625   2.253 -0.9029  2.3693 -1.5149
 5846SOL    HW229517   8.058   7.755   2.329 -0.1726  0.6939  1.3529
 5847SOL     OW29518   2.419   9.658   3.285 -0.3419  0.1327  0.0553
 5847SOL    HW129519   2.435   9.570   3.250  2.0964  1.2114 -1.8639
 5847SOL    HW229520   2.396   9.710   3.209  0.6041  1.6390  0.7549
 5848SOL     OW29521   4.710   9.780   1.810 -0.3847 -0.3000 -0.6022
 5848SOL    HW129522   4.783   9.786   1.871 -0.6200  2.6408 -0.4374
 5848SOL    HW229523   4.695   9.686   1.799  1.6198 -0.9624  1.4755
 5849SOL     OW29524   8.423   3.969   5.017 -0.1321  0.0612  0.2094
 5849SOL    HW129525   8.448   3.877   5.021  3.1684  0.8511  0.8188
 5849SOL    HW229526   8.471   4.004   4.941 -0.2610  1.5222  0.7608
 5850SOL     OW29527   9.703   8.939   7.518  0.1365  0.2236  0.4723
 5850SOL    HW129528   9.625   8.889   7.543  0.7562 -1.8207 -1.4144
 5850SOL    HW229529   9.668   9.016   7.473 -0.8656 -1.0134 -0.9811
 5851SOL     OW29530   9.032   8.670   9.196  0.0940  0.3638 -0.2847
 5851SOL    HW129531   9.085   8.744   9.227 -0.8720  1.2206 -0.6385
 5851SOL    HW229532   9.038   8.675   9.101  0.9193 -0.6970 -0.3071
 5852SOL     OW29533   8.798  10.332   5.459  0.3589 -0.2318 -0.1502
 5852SOL    HW129534   8.878  10.361   5.415  0.2839 -0.6847 -0.5893
 5852SOL    HW229535   8.828  10.295   5.542  0.5296  0.3396  0.0452
 5853SOL     OW29536   3.451   5.254   4.692  0.1978  0.0153 -0.5996
 5853SOL    HW129537   3.407   5.288   4.770  0.5292  1.5541 -1.0488
 5853SOL    HW229538   3.416   5.306   4.620  1.0326 -0.3383 -1.2760
 5854SOL     OW29539   8.533   2.812   1.489  0.1839 -0.1482  0.8866
 5854SOL    HW129540   8.615   2.826   1.537  1.7821 -0.9296 -1.4068
 5854SOL    HW229541   8.472   2.780   1.555  1.5924  0.8265  2.7669
 5855SOL     OW29542   5.331   6.609   6.001 -0.4009  0.0131 -0.0672
 5855SOL    HW129543   5.311   6.521   5.971  0.1824 -0.3997  0.7122
 5855SOL    HW229544   5.286   6.617   6.085  0.2300  0.1499  0.2645
 5856SOL     OW29545   1.242   1.569   1.108  0.0071  0.1892  0.4010
 5856SOL    HW129546   1.169   1.621   1.142  0.9216 -0.1422  3.1551
 5856SOL    HW229547   1.223   1.479   1.135  1.1867  0.0308  0.7927
 5857SOL     OW29548   9.138   0.855  10.190 -0.0436 -0.6558 -0.1220
 5857SOL    HW129549   9.135   0.899  10.275  1.0622 -0.8859  0.0481
 5857SOL    HW229550   9.228   0.823  10.182  0.2408  0.4325 -1.9239
 5858SOL     OW29551   6.524   8.596   1.483 -0.2900  0.5146  0.0828
 5858SOL    HW129552   6.487   8.519   1.526  0.7344  0.7131  1.3985
 5858SOL    HW229553   6.520   8.665   1.550  2.9760  0.3829  0.5850
 5859SOL     OW29554   9.411   6.507   9.285  0.0564 -0.0728 -0.0164
 5859SOL    HW129555   9.491   6.522   9.336  1.3212 -0.1887 -1.8837
 5859SOL    HW229556   9.357   6.584   9.304  0.7309  0.1727  1.0381
 5860SOL     OW29557   8.313   5.629   6.385  0.4203  0.1194 -0.2146
 5860SOL    HW129558   8.299   5.544   6.427  0.5404  0.9556  1.5943
 5860SOL    HW229559   8.226   5.656   6.358  0.5220 -1.0790 -1.9002
 5861SOL     OW29560   5.504   3.053   8.494  0.1234  0.0699 -0.4050
 5861SOL    HW129561   5.511   3.040   8.588  0.0335 -1.1715 -0.5584
 5861SOL    HW229562   5.430   2.998   8.467  0.6008 -0.1489 -1.3018
 5862SOL     OW29563  10.368   6.443   2.073 -0.1686  0.9287 -0.3098
 5862SOL    HW129564  10.326   6.430   1.988 -0.8875 -0.3602  0.2242
 5862SOL    HW229565  10.321   6.385   2.133  1.1173  0.8928  0.7170
 5863SOL     OW29566   7.799   2.219   6.411 -0.4334  0.2806  0.4064
 5863SOL    HW129567   7.794   2.310   6.380 -2.1369  0.0558 -0.0525
 5863SOL    HW229568   7.799   2.227   6.507  1.4775  0.8162  0.4183
 5864SOL     OW29569   4.315   8.432   6.532  0.0110  0.2647 -0.1738
 5864SOL    HW129570   4.265   8.413   6.452 -0.5483 -1.3178  0.5246
 5864SOL    HW229571   4.384   8.366   6.533  2.5657  2.7136 -1.3871
 5865SOL     OW29572   8.942  10.215   6.706 -0.1287  0.7266  0.7178
 5865SOL    HW129573   8.851  10.209   6.675 -0.2734  1.7987  0.9151
 5865SOL    HW229574   8.935  10.254   6.793  0.4629 -0.0335  1.1232
 5866SOL     OW29575   3.100   2.912   4.199  0.1966 -0.2424 -0.0714
 5866SOL    HW129576   3.071   2.828   4.234 -0.7378  0.1647  0.1444
 5866SOL    HW229577   3.184   2.929   4.243  0.9307 -1.5621 -0.9121
 5867SOL     OW29578   2.694   8.108   9.863  0.4363 -0.2752 -0.4050
 5867SOL    HW129579   2.697   8.201   9.839 -1.0536 -0.1300 -0.1617
 5867SOL    HW229580   2.650   8.107   9.949 -0.2533 -1.2438 -0.7494
 5868SOL     OW29581   1.652   2.199   0.055 -0.2040 -0.1606 -0.3480
 5868SOL    HW129582   1.581   2.158   0.105 -0.5104  1.5825  0.7544
 5868SOL    HW229583   1.683   2.269   0.112  1.1481  0.3055 -1.6076
 5869SOL     OW29584   9.861   7.457   8.706  0.3281  0.2431 -0.3030
 5869SOL    HW129585   9.845   7.477   8.798 -0.8444 -0.1188 -0.4117
 5869SOL    HW229586   9.777   7.472   8.663  0.0986 -2.2278 -0.8542
 5870SOL     OW29587   0.176   5.251   1.820 -0.0955 -0.0167 -0.0728
 5870SOL    HW129588   0.139   5.299   1.746  1.5031  0.3464 -0.6722
 5870SOL    HW229589   0.109   5.187   1.843  0.3501 -1.9690 -3.5448
 5871SOL     OW29590   5.318   8.027   3.155 -0.2154  0.5901  0.4136
 5871SOL    HW129591   5.305   7.960   3.088 -0.1850  1.7683 -0.7993
 5871SOL    HW229592   5.244   8.016   3.215 -0.2479 -0.4658  0.1886
 5872SOL     OW29593   2.197   6.408  10.046 -0.1690  0.0362 -0.3605
 5872SOL    HW129594   2.167   6.498  10.030 -0.0624  0.4540  1.5395
 5872SOL    HW229595   2.120   6.363  10.081  0.3114  0.0066  0.7150
 5873SOL     OW29596   3.229   5.594   2.081 -0.1779 -0.2131 -0.2739
 5873SOL    HW129597   3.183   5.671   2.115  1.3057  0.4782  0.2467
 5873SOL    HW229598   3.204   5.524   2.141 -2.1788 -0.3641 -1.2164
 5874SOL     OW29599   6.459   3.663   8.889 -0.3077 -0.1314  0.2328
 5874SOL    HW129600   6.418   3.679   8.805 -0.9419  1.5905  0.8367
 5874SOL    HW229601   6.436   3.572   8.910 -0.7018 -0.3631 -1.1223
 5875SOL     OW29602   2.811   0.090   9.731  0.1915  0.0171  0.3890
 5875SOL    HW129603   2.784   0.001   9.756  0.7140 -0.5665 -1.0159
 5875SOL    HW229604   2.753   0.148   9.782 -1.2375 -1.1397  0.1481
 5876SOL     OW29605   1.821   9.200   1.220 -0.2678 -0.1115  0.1968
 5876SOL    HW129606   1.840   9.241   1.136  0.8457  2.2006  1.4668
 5876SOL    HW229607   1.885   9.129   1.228  0.3037  0.3232 -0.4698
 5877SOL     OW29608  10.342   0.496   1.336  0.1407  0.6731  0.2309
 5877SOL    HW129609  10.367   0.406   1.355  0.5164  0.9813  1.2459
 5877SOL    HW229610  10.365   0.508   1.244  1.1296  0.0708  0.3836
 5878SOL     OW29611   8.979   6.758   1.653 -0.4595 -0.0645  0.6233
 5878SOL    HW129612   9.033   6.821   1.700  0.0934  0.7791 -1.0528
 5878SOL    HW229613   8.890   6.794   1.657 -0.3191  0.2914  0.5361
 5879SOL     OW29614   0.074   2.846   5.143  0.1980 -0.3340 -0.2967
 5879SOL    HW129615   0.007   2.912   5.123 -0.3069 -1.2599 -1.8114
 5879SOL    HW229616   0.032   2.789   5.209  0.2537  0.2337  0.2411
 5880SOL     OW29617   0.979   5.314   5.037  0.2347  0.1974 -0.3958
 5880SOL    HW129618   0.934   5.230   5.031  0.2179  0.2573 -1.2524
 5880SOL    HW229619   1.049   5.300   5.101 -0.4747 -0.1312  0.3273
 5881SOL     OW29620   2.065   0.948  10.310 -0.1180 -0.1570  0.2212
 5881SOL    HW129621   2.029   1.018  10.256  3.0568  0.6090 -1.1732
 5881SOL    HW229622   2.050   0.868  10.260  0.3573  0.1843 -0.4813
 5882SOL     OW29623   1.510   0.154   7.490  0.0940  0.5931  0.4114
 5882SOL    HW129624   1.494   0.090   7.420  1.0412 -0.1103  0.8088
 5882SOL    HW229625   1.500   0.103   7.570  1.0571  0.8958  0.7299
 5883SOL     OW29626   1.261   3.495   7.067 -1.0823 -0.0061 -0.5109
 5883SOL    HW129627   1.170   3.517   7.084 -1.1583  0.2187 -1.1542
 5883SOL    HW229628   1.310   3.571   7.099 -1.0336 -0.5122  0.6697
 5884SOL     OW29629   0.536   1.698   0.982  0.1227  0.9778  0.5212
 5884SOL    HW129630   0.619   1.744   0.975  0.5840  0.1512  0.4735
 5884SOL    HW229631   0.559   1.605   0.974 -1.2639  0.7491 -4.9665
 5885SOL     OW29632   4.350   5.583   7.842 -0.0409  0.2008  0.0158
 5885SOL    HW129633   4.262   5.589   7.879 -0.0536  1.8188 -0.2159
 5885SOL    HW229634   4.341   5.614   7.752  0.6686 -0.2046 -0.2054
 5886SOL     OW29635   0.933   9.459   7.946  0.1316 -0.4510  0.2702
 5886SOL    HW129636   0.974   9.545   7.955 -0.4227  0.0054 -1.2537
 5886SOL    HW229637   0.917   9.430   8.035 -0.4470  1.4112  0.8096
 5887SOL     OW29638   9.523   6.528  10.270 -0.2714 -0.0854 -0.5589
 5887SOL    HW129639   9.543   6.609  10.318  1.1621  0.4159 -1.9469
 5887SOL    HW229640   9.458   6.554  10.205 -0.7995 -0.3609 -0.1536
 5888SOL     OW29641   5.053   4.940   9.479 -0.0697 -0.0124 -0.0287
 5888SOL    HW129642   5.070   4.851   9.509  0.1120 -0.1413 -0.5053
 5888SOL    HW229643   5.085   4.941   9.389 -0.3784  0.4391 -0.1350
 5889SOL     OW29644   5.877   6.700   7.657  0.6105 -0.5222  0.3787
 5889SOL    HW129645   5.821   6.642   7.604 -0.2072  1.3916 -0.9648
 5889SOL    HW229646   5.964   6.691   7.617  0.5010 -0.8590  0.2090
 5890SOL     OW29647   5.486   5.151   9.359  0.4613  0.5667 -0.2181
 5890SOL    HW129648   5.407   5.174   9.408  1.0522  0.2326  0.9327
 5890SOL    HW229649   5.524   5.235   9.334 -1.2169  0.7562 -2.4764
 5891SOL     OW29650   8.887   5.453   7.822  0.3357  0.2137  0.0308
 5891SOL    HW129651   8.942   5.503   7.883  0.8180 -0.8570  0.4874
 5891SOL    HW229652   8.949   5.408   7.765 -0.1075  0.8324 -0.9693
 5892SOL     OW29653   6.307  10.111   2.004 -0.2694 -0.1469 -0.2076
 5892SOL    HW129654   6.241  10.043   2.018  0.7913 -0.8341  2.0485
 5892SOL    HW229655   6.265  10.191   2.035 -0.2374 -0.5071  0.8183
 5893SOL     OW29656   8.620   1.948   4.338  0.3098  0.1025  0.1162
 5893SOL    HW129657   8.626   1.945   4.434  2.1335  1.4608  0.1200
 5893SOL    HW229658   8.683   1.883   4.308  1.0941  0.9461 -0.1160
 5894SOL     OW29659   4.507   8.672   3.283  0.3567  0.2217 -0.2727
 5894SOL    HW129660   4.531   8.745   3.341  1.0432 -0.2233  0.0147
 5894SOL    HW229661   4.445   8.620   3.334  0.6460  0.0560 -0.0856
 5895SOL     OW29662   5.476   3.914   1.654 -0.3220 -0.4774  0.0096
 5895SOL    HW129663   5.560   3.905   1.608 -0.1273  1.1567  0.0117
 5895SOL    HW229664   5.412   3.872   1.596  0.0783  0.6538 -1.2988
 5896SOL     OW29665   5.055   0.688   3.993  0.4486  0.2858 -0.0433
 5896SOL    HW129666   5.080   0.781   3.986 -0.0136  0.4027 -0.1473
 5896SOL    HW229667   5.000   0.672   3.917  1.2591 -0.3191 -0.5189
 5897SOL     OW29668   5.773   0.835   2.516 -0.3735 -0.1940  0.6480
 5897SOL    HW129669   5.780   0.793   2.431  0.0162 -2.1114  1.5797
 5897SOL    HW229670   5.798   0.926   2.500  1.3311 -0.8851 -0.9858
 5898SOL     OW29671   1.184   3.569   5.616 -0.0541  0.6878  0.0756
 5898SOL    HW129672   1.144   3.650   5.584  0.5111  0.1965 -1.9984
 5898SOL    HW229673   1.265   3.561   5.565 -0.1397 -1.2234  0.1793
 5899SOL     OW29674   7.328   1.635   6.865  0.3969  0.0426 -0.1095
 5899SOL    HW129675   7.266   1.703   6.888  0.4169 -0.0694  0.2828
 5899SOL    HW229676   7.280   1.553   6.877  0.1790 -0.0033 -1.1650
 5900SOL     OW29677   3.825   3.561   0.573 -0.2307  0.3509 -0.2056
 5900SOL    HW129678   3.848   3.651   0.547 -1.8563  1.4121  1.7236
 5900SOL    HW229679   3.748   3.540   0.521  1.1489 -0.6691 -1.9300
 5901SOL     OW29680   6.312   0.691   6.691  0.3678 -0.4817 -0.3309
 5901SOL    HW129681   6.298   0.772   6.642 -0.5042 -1.2670 -1.4423
 5901SOL    HW229682   6.401   0.699   6.725 -0.0478  1.3515  0.4283
 5902SOL     OW29683   5.705   1.823   9.315  0.0636 -0.2114  0.0866
 5902SOL    HW129684   5.789   1.780   9.332  0.4515  0.1505 -0.8587
 5902SOL    HW229685   5.664   1.768   9.248  0.0078  0.1801 -0.2040
 5903SOL     OW29686   6.494   4.196   8.593 -0.3352  0.0330  0.3720
 5903SOL    HW129687   6.436   4.248   8.537  0.5213  1.6133  0.9052
 5903SOL    HW229688   6.579   4.199   8.549 -0.1825 -0.6323  0.6040
 5904SOL     OW29689   0.939  10.094   6.312 -0.0300  0.2141  0.1956
 5904SOL    HW129690   0.900  10.146   6.383 -0.4355 -1.1920  1.0372
 5904SOL    HW229691   0.980  10.020   6.356 -0.6180 -0.9044 -1.0754
 5905SOL     OW29692   0.344   8.447   9.353  0.4337  0.0200  0.0004
 5905SOL    HW129693   0.289   8.455   9.431  1.6852 -0.0132  0.9108
 5905SOL    HW229694   0.308   8.512   9.292 -1.5161 -1.0104 -0.0206
 5906SOL     OW29695   2.660   7.608   6.319 -0.0506 -0.1080  0.2476
 5906SOL    HW129696   2.566   7.613   6.336 -0.1411  0.0162 -0.2721
 5906SOL    HW229697   2.696   7.569   6.398 -0.5680 -0.3592  0.3660
 5907SOL     OW29698   8.877   5.049   0.642 -0.4269  0.0761 -0.9472
 5907SOL    HW129699   8.948   5.093   0.689 -0.3409  0.4799 -1.4414
 5907SOL    HW229700   8.832   5.120   0.595 -1.0197 -0.2082 -0.8159
 5908SOL     OW29701   3.117   4.826   4.509 -0.5259 -0.1787 -0.0239
 5908SOL    HW129702   3.205   4.808   4.476 -0.3589 -2.4381  1.4153
 5908SOL    HW229703   3.132   4.876   4.590 -0.4352 -1.5382  0.8382
 5909SOL     OW29704   1.829   2.176   4.894 -0.0884 -0.1491  0.1064
 5909SOL    HW129705   1.737   2.189   4.870  0.4840  0.5216 -1.9200
 5909SOL    HW229706   1.866   2.128   4.821  0.8084 -2.0405  1.7305
 5910SOL     OW29707   1.844   9.847   2.902  0.0689 -0.2067  0.6343
 5910SOL    HW129708   1.877   9.757   2.910  1.3938  0.0378 -1.3239
 5910SOL    HW229709   1.861   9.887   2.987  1.1508 -1.2949  0.9491
 5911SOL     OW29710   3.737   0.510   1.441 -0.3225 -0.4576 -0.6333
 5911SOL    HW129711   3.766   0.426   1.404 -1.4913 -0.6138 -1.2659
 5911SOL    HW229712   3.653   0.490   1.482 -0.4677  0.3476 -0.5214
 5912SOL     OW29713  10.226   4.796   8.366 -0.5268 -0.6275  0.3705
 5912SOL    HW129714  10.244   4.715   8.414  0.5256 -0.3568  0.4511
 5912SOL    HW229715  10.194   4.766   8.281 -0.5887 -1.1184  0.5593
 5913SOL     OW29716   7.743   1.942   1.124  0.3630 -0.2500  0.5606
 5913SOL    HW129717   7.806   2.013   1.110 -0.0816 -0.0293 -0.3950
 5913SOL    HW229718   7.659   1.987   1.130  0.2043 -0.6105  1.0797
 5914SOL     OW29719   3.399   5.088   5.667  0.0455  0.1537 -0.1347
 5914SOL    HW129720   3.452   5.150   5.618  0.3747  0.2821  0.3819
 5914SOL    HW229721   3.385   5.130   5.752  0.5659 -0.6176  0.3457
 5915SOL     OW29722   0.487   2.898   2.217 -0.7047 -0.6117  0.2820
 5915SOL    HW129723   0.446   2.818   2.186 -1.7453  0.4723 -1.2770
 5915SOL    HW229724   0.552   2.920   2.150  0.2523 -0.6367  1.1695
 5916SOL     OW29725   6.975   1.305   7.183  0.2448 -0.4996 -0.0721
 5916SOL    HW129726   6.893   1.279   7.226  0.3277 -1.1126 -0.2812
 5916SOL    HW229727   7.041   1.245   7.217  0.6178 -0.0058  0.0987
 5917SOL     OW29728   0.943   5.909   9.442  0.1154 -0.5716 -0.0349
 5917SOL    HW129729   0.909   5.947   9.361 -1.4067 -2.0505 -0.1567
 5917SOL    HW229730   1.013   5.850   9.413  0.1608 -0.4455 -0.1818
 5918SOL     OW29731   5.860   0.615   6.963 -0.8367 -0.6242 -0.2350
 5918SOL    HW129732   5.830   0.613   6.872 -2.1141 -0.9735  0.1718
 5918SOL    HW229733   5.948   0.654   6.958 -2.1190  2.4823 -1.2855
 5919SOL     OW29734   6.672   6.539   0.709  0.1733  0.5505 -0.2213
 5919SOL    HW129735   6.745   6.594   0.682  2.2348 -2.9547 -2.4659
 5919SOL    HW229736   6.701   6.498   0.791  0.4205 -0.2307 -0.6893
 5920SOL     OW29737   1.465   5.846   9.927 -0.1439 -0.3353 -0.5796
 5920SOL    HW129738   1.548   5.797   9.928 -0.7895 -1.4613  0.9195
 5920SOL    HW229739   1.397   5.779   9.934 -1.1214  0.6762 -0.0034
 5921SOL     OW29740   6.756   2.820   9.770  0.4688  0.0101  0.3465
 5921SOL    HW129741   6.710   2.740   9.744  0.5661  0.6976 -2.2778
 5921SOL    HW229742   6.696   2.891   9.744  0.8073  0.8317  1.7168
 5922SOL     OW29743   1.066   8.838   9.334 -0.1481 -0.1423  0.0610
 5922SOL    HW129744   1.120   8.887   9.397 -0.0943  1.7986 -1.4002
 5922SOL    HW229745   0.978   8.841   9.372 -0.1312  1.0670  0.0443
 5923SOL     OW29746   3.524   7.760   8.199 -0.2688 -0.0234  0.1529
 5923SOL    HW129747   3.459   7.750   8.269 -0.9292 -2.1580 -0.7056
 5923SOL    HW229748   3.489   7.830   8.144 -1.7117 -0.9252 -0.1209
 5924SOL     OW29749   5.310   5.341   5.544  0.4672 -0.1229 -0.2176
 5924SOL    HW129750   5.294   5.320   5.452  0.4391 -1.0928 -0.0082
 5924SOL    HW229751   5.398   5.378   5.546 -0.6807  2.9099 -1.0413
 5925SOL     OW29752   8.417   1.618  10.263  0.0781 -0.3101  0.3666
 5925SOL    HW129753   8.386   1.682  10.199  0.7496 -1.2033 -0.9028
 5925SOL    HW229754   8.426   1.536  10.213  2.5929 -0.5584  1.0521
 5926SOL     OW29755   4.821   2.812   0.608  0.1980  0.5146 -0.8802
 5926SOL    HW129756   4.879   2.870   0.558 -0.4072  1.0608 -0.9595
 5926SOL    HW229757   4.737   2.817   0.562 -0.0298  0.0672 -0.5173
 5927SOL     OW29758   8.786   0.772  10.277 -0.6100 -0.1563 -0.5105
 5927SOL    HW129759   8.838   0.761  10.356  0.1099  0.3367 -0.8915
 5927SOL    HW229760   8.767   0.866  10.274 -0.2966 -0.1052 -1.1126
 5928SOL     OW29761   3.129   8.325   0.392  0.1811  0.2325 -0.2066
 5928SOL    HW129762   3.109   8.275   0.314  0.5182  0.0752 -0.1955
 5928SOL    HW229763   3.060   8.301   0.455  0.3305 -0.2057 -0.2067
 5929SOL     OW29764   1.319  10.270   7.933 -0.2497  0.1250  0.4092
 5929SOL    HW129765   1.269  10.261   7.852  1.0611 -0.9101 -0.3262
 5929SOL    HW229766   1.382  10.199   7.930  0.4096  0.6048  1.9332
 5930SOL     OW29767   1.741   0.693   3.141  0.0768 -0.4979  0.6263
 5930SOL    HW129768   1.682   0.662   3.210 -0.5025 -0.1526  0.2897
 5930SOL    HW229769   1.825   0.704   3.185 -0.4062  0.2055  1.4034
 5931SOL     OW29770   1.127   5.324   2.547  0.7418 -0.7910 -0.1074
 5931SOL    HW129771   1.071   5.268   2.492  0.4014 -0.2885 -0.2728
 5931SOL    HW229772   1.169   5.263   2.607  0.7450 -1.2928 -0.6087
 5932SOL     OW29773   6.082   7.110   6.849  0.2492 -0.5684  0.6243
 5932SOL    HW129774   6.117   7.117   6.760  1.4263 -3.4160  0.7591
 5932SOL    HW229775   6.137   7.169   6.901 -1.2140  2.0744 -0.6041
 5933SOL     OW29776   3.218   3.019   3.241 -0.3411  0.3045  0.0210
 5933SOL    HW129777   3.214   3.066   3.324  1.3424 -0.7431  0.7500
 5933SOL    HW229778   3.184   3.081   3.177 -2.4109  0.8794  1.5575
 5934SOL     OW29779   8.621   1.317   9.741 -0.0358 -0.0393  0.2945
 5934SOL    HW129780   8.702   1.295   9.787  0.6094 -2.5927 -1.8426
 5934SOL    HW229781   8.577   1.234   9.727 -2.8612  1.2212  0.9049
 5935SOL     OW29782   0.152   1.228   1.037 -0.5331  0.1320 -0.2085
 5935SOL    HW129783   0.118   1.286   1.106 -0.7963  1.0445 -1.0700
 5935SOL    HW229784   0.091   1.154   1.035 -0.9318  0.4509  0.0679
 5936SOL     OW29785   0.978   6.493   8.012  0.7827 -0.0592  0.2365
 5936SOL    HW129786   0.998   6.433   7.940  2.4814 -0.3702  0.9237
 5936SOL    HW229787   0.987   6.580   7.974  1.4569 -0.2231  0.0143
 5937SOL     OW29788   6.045   5.362   7.515 -0.5554 -0.0734 -0.2349
 5937SOL    HW129789   5.986   5.362   7.440 -2.4222  0.0297  1.1627
 5937SOL    HW229790   6.129   5.333   7.479 -1.3285  0.1085 -2.3674
 5938SOL     OW29791   9.991   7.535  10.337  0.1064 -0.1203  0.3995
 5938SOL    HW129792  10.065   7.525  10.397  2.0912 -0.3053 -1.9295
 5938SOL    HW229793   9.941   7.609  10.373  1.8158  0.4691  1.6847
 5939SOL     OW29794   4.197   6.697   8.579 -0.0072 -0.0062 -0.0166
 5939SOL    HW129795   4.213   6.779   8.534  2.5066  0.0815  0.8749
 5939SOL    HW229796   4.104   6.679   8.565 -0.0401  1.6100 -2.4505
 5940SOL     OW29797   6.171   7.133   1.361 -0.5906  0.0633  0.6246
 5940SOL    HW129798   6.199   7.208   1.413 -0.9347  0.5417  0.1211
 5940SOL    HW229799   6.076   7.130   1.371 -0.8244  0.9322 -0.9778
 5941SOL     OW29800   1.144   6.082   0.068 -0.2637  0.4436  0.0198
 5941SOL    HW129801   1.161   5.992   0.042 -0.8770  1.0599 -2.8853
 5941SOL    HW229802   1.092   6.075   0.149  0.6561 -1.7268  0.4798
 5942SOL     OW29803   1.531   5.113   2.098  0.5419  0.1835  0.3294
 5942SOL    HW129804   1.568   5.201   2.090 -1.3818  0.8703 -2.3853
 5942SOL    HW229805   1.440   5.128   2.122  0.4130 -1.1473  0.7113
 5943SOL     OW29806  10.009   0.087  10.077  0.9050 -0.2580 -0.0336
 5943SOL    HW129807  10.049   0.170  10.052 -1.4896  0.9900  0.0530
 5943SOL    HW229808  10.066   0.054  10.148  0.7251  2.4117  1.4923
 5944SOL     OW29809   6.581   5.353   9.137  0.3244 -0.7639 -0.0851
 5944SOL    HW129810   6.505   5.344   9.080 -0.5204 -2.7032  1.2524
 5944SOL    HW229811   6.579   5.445   9.166 -3.0207 -1.2930  1.8477
 5945SOL     OW29812   8.540   7.655   5.869  0.2112  0.1072  0.0087
 5945SOL    HW129813   8.581   7.595   5.932 -1.5123  1.5304  2.6987
 5945SOL    HW229814   8.447   7.632   5.871 -0.2615  1.8402 -0.0360
 5946SOL     OW29815   4.959   3.460   7.995 -0.3172 -0.0212 -0.2836
 5946SOL    HW129816   5.043   3.414   7.987  0.1024  0.7306 -0.3534
 5946SOL    HW229817   4.927   3.467   7.905 -0.8385 -0.9719 -0.1881
 5947SOL     OW29818   2.944   7.062   5.369  0.4526 -0.2422  0.5666
 5947SOL    HW129819   3.031   7.084   5.402 -0.1384  1.1590  1.2666
 5947SOL    HW229820   2.884   7.104   5.431 -0.7063  1.0326 -1.3360
 5948SOL     OW29821   9.182   9.276   9.823  0.6280  0.0340 -0.1970
 5948SOL    HW129822   9.094   9.302   9.795  0.2905 -1.0130 -0.1542
 5948SOL    HW229823   9.203   9.201   9.768  1.7113  0.5744 -0.5504
 5949SOL     OW29824   5.492   7.399   9.902 -0.2607 -0.1984  0.1804
 5949SOL    HW129825   5.483   7.450   9.982  1.0112  2.9150 -1.4882
 5949SOL    HW229826   5.403   7.393   9.867 -0.3879  1.3545  0.1809
 5950SOL     OW29827   9.354   3.763   2.468 -0.3856  0.2950  0.0738
 5950SOL    HW129828   9.444   3.797   2.465 -0.7553  1.3480  0.6637
 5950SOL    HW229829   9.360   3.687   2.526 -0.0067  0.7609  0.6541
 5951SOL     OW29830  10.288   0.759   4.166 -0.3052  0.3144  0.3627
 5951SOL    HW129831  10.334   0.701   4.105 -1.5717 -0.9890  0.5996
 5951SOL    HW229832  10.284   0.843   4.120 -1.3254 -0.6616 -1.4624
 5952SOL     OW29833   2.542   3.137   8.199  0.2314  0.0686  0.7086
 5952SOL    HW129834   2.559   3.114   8.108 -1.0900 -0.3690  0.5417
 5952SOL    HW229835   2.622   3.180   8.229  0.6191  0.3686 -0.6993
 5953SOL     OW29836   2.213   4.961   5.691 -0.0219 -0.1791 -0.4390
 5953SOL    HW129837   2.197   5.051   5.718  0.4084  0.0383 -0.8954
 5953SOL    HW229838   2.144   4.910   5.735 -0.7080  0.4612 -0.7523
 5954SOL     OW29839   3.634   1.706   8.867 -0.1728  0.8195  0.0989
 5954SOL    HW129840   3.719   1.737   8.899  0.3485  1.2168 -1.5881
 5954SOL    HW229841   3.570   1.759   8.915  0.4022 -0.5111  2.5100
 5955SOL     OW29842   8.899   2.450   3.962 -0.3018 -0.0711  0.2375
 5955SOL    HW129843   8.930   2.502   3.887  0.2802 -0.3414  0.2890
 5955SOL    HW229844   8.887   2.514   4.032 -0.5130  0.1326  0.0163
 5956SOL     OW29845   7.417   0.887  10.220 -0.0129  0.4402 -0.1577
 5956SOL    HW129846   7.423   0.852  10.131  1.3684 -0.5251  0.2807
 5956SOL    HW229847   7.345   0.950  10.216  1.0570  1.6419 -2.3549
 5957SOL     OW29848   7.189   0.695   8.254 -0.2715 -0.1301  0.6104
 5957SOL    HW129849   7.278   0.720   8.231  0.6746 -1.6766  2.3513
 5957SOL    HW229850   7.146   0.778   8.275  1.5287  0.4740  2.2329
 5958SOL     OW29851   5.203   9.501   3.112 -0.2449  0.6217 -0.1278
 5958SOL    HW129852   5.156   9.422   3.140  1.6710 -0.3952  0.3776
 5958SOL    HW229853   5.181   9.566   3.179 -0.9432  0.1855  0.0813
 5959SOL     OW29854   5.361   3.984   2.370  0.1039  0.0717  0.2373
 5959SOL    HW129855   5.353   4.058   2.430  1.8957  0.8330 -0.4279
 5959SOL    HW229856   5.276   3.940   2.376 -0.2259  0.8721  2.3333
 5960SOL     OW29857   7.722   6.948   8.393 -0.0038 -0.1553 -0.6969
 5960SOL    HW129858   7.635   6.959   8.354  1.0027 -0.4799 -3.1874
 5960SOL    HW229859   7.711   6.878   8.457 -1.6408  0.0314 -0.7341
 5961SOL     OW29860   9.352   7.375   4.391 -0.1534 -0.1384 -0.7004
 5961SOL    HW129861   9.400   7.421   4.460 -0.7987  1.9719 -1.5911
 5961SOL    HW229862   9.261   7.378   4.418 -0.3981  0.6082 -1.5614
 5962SOL     OW29863   9.392   1.832   2.313  0.1719 -0.3291 -0.2315
 5962SOL    HW129864   9.407   1.762   2.377 -1.4645 -2.7214 -2.2940
 5962SOL    HW229865   9.478   1.874   2.304  1.0861 -1.6697  1.5009
 5963SOL     OW29866   5.563   1.758   3.337  0.4910  0.7801  0.8112
 5963SOL    HW129867   5.658   1.754   3.325  0.5136  1.3263  0.7601
 5963SOL    HW229868   5.534   1.668   3.328  0.6793  0.9113 -1.9720
 5964SOL     OW29869   9.641   8.825   0.319 -0.0961  0.0294 -0.4681
 5964SOL    HW129870   9.708   8.865   0.374  0.6937 -1.7594 -0.0742
 5964SOL    HW229871   9.566   8.884   0.328  0.2606  0.2392  1.8908
 5965SOL     OW29872   0.151   4.038   7.575 -0.4053  0.3975 -0.2211
 5965SOL    HW129873   0.178   3.996   7.494 -1.5362  1.6401 -1.2915
 5965SOL    HW229874   0.057   4.023   7.580 -0.3688  0.4402  0.8057
 5966SOL     OW29875   4.902   0.591   4.213  0.1755 -0.0267 -0.4553
 5966SOL    HW129876   4.962   0.614   4.142 -1.1061 -0.1868 -1.6442
 5966SOL    HW229877   4.855   0.673   4.232 -1.1954 -0.5203 -1.5316
 5967SOL     OW29878   2.063   7.530   1.352  0.1442  0.3465  0.3030
 5967SOL    HW129879   2.053   7.621   1.325  1.4272  1.0232  1.8695
 5967SOL    HW229880   2.145   7.529   1.402  0.5146 -1.8120 -0.2176
 5968SOL     OW29881   3.942   9.143   4.863  0.0402 -0.1698 -0.0237
 5968SOL    HW129882   3.995   9.063   4.862  2.1727  1.1021  1.7931
 5968SOL    HW229883   3.950   9.177   4.774 -0.3372 -1.5908 -0.6321
 5969SOL     OW29884   0.632   9.694   9.396 -0.1359  0.4811  0.4577
 5969SOL    HW129885   0.537   9.699   9.394 -0.1655  0.2220  1.1620
 5969SOL    HW229886   0.660   9.758   9.330 -0.7749  1.3170  0.9602
 5970SOL     OW29887   4.262   8.104   2.516 -0.4414 -0.5781 -0.2617
 5970SOL    HW129888   4.191   8.167   2.529 -0.9369 -0.8946 -1.3574
 5970SOL    HW229889   4.220   8.019   2.527  0.0520 -0.7500  0.3612
 5971SOL     OW29890   0.423  10.287   2.346  0.9054  0.1206 -0.1028
 5971SOL    HW129891   0.508  10.330   2.349  2.0010 -1.9833  1.1269
 5971SOL    HW229892   0.375  10.323   2.420  0.6630  1.3450 -0.8244
 5972SOL     OW29893   8.913   1.190   6.924 -0.0048 -0.3299 -0.0941
 5972SOL    HW129894   8.858   1.153   6.992 -0.8813  3.1126  1.3098
 5972SOL    HW229895   8.971   1.251   6.970 -0.5773  2.0936 -2.2953
 5973SOL     OW29896   9.379   6.011  10.156  0.5580  0.4948  0.6253
 5973SOL    HW129897   9.395   5.947  10.086  1.4978  0.9180  0.4451
 5973SOL    HW229898   9.284   6.016  10.162  0.3965  1.7713 -1.8504
 5974SOL     OW29899   9.997   6.250   4.559  0.5274 -0.6562  0.0954
 5974SOL    HW129900   9.957   6.181   4.611 -0.0342 -0.7623 -0.4583
 5974SOL    HW229901  10.071   6.207   4.516  0.0606 -0.9723 -0.4040
 5975SOL     OW29902  10.070   5.249   9.646  0.4486  0.1223  0.4981
 5975SOL    HW129903  10.075   5.181   9.713 -1.0677  0.2990  0.8241
 5975SOL    HW229904   9.979   5.279   9.648  0.9719  1.9084  0.1055
 5976SOL     OW29905   4.272   7.704   2.920  0.5784 -0.2231 -0.0599
 5976SOL    HW129906   4.256   7.635   2.856  0.6026 -0.4041  0.1285
 5976SOL    HW229907   4.186   7.742   2.937  0.4192 -0.8218  0.5301
 5977SOL     OW29908   7.756  10.036   8.504  0.0881  0.1485  0.2287
 5977SOL    HW129909   7.814  10.043   8.428  0.7499  3.0337  0.8650
 5977SOL    HW229910   7.673  10.074   8.474  0.0364  0.3633  0.6312
 5978SOL     OW29911   3.719   4.722   8.053  0.6005  0.3535 -0.2488
 5978SOL    HW129912   3.792   4.694   7.997  0.6005  1.3800 -0.8057
 5978SOL    HW229913   3.760   4.744   8.137  1.0403  1.4526 -0.7291
 5979SOL     OW29914   3.729   5.540   4.592  0.0698 -0.2397  0.0577
 5979SOL    HW129915   3.671   5.543   4.668  0.5088  2.4609  0.3838
 5979SOL    HW229916   3.707   5.619   4.542  1.6243 -0.5632 -1.2003
 5980SOL     OW29917   1.188   5.838  10.368  0.3282  0.4507  0.6737
 5980SOL    HW129918   1.245   5.780  10.418  0.7155 -0.4362 -0.7383
 5980SOL    HW229919   1.223   5.835  10.279 -0.5883  1.6426  0.2488
 5981SOL     OW29920   2.149  10.173   1.577  0.4616 -0.4064 -0.1184
 5981SOL    HW129921   2.055  10.156   1.576  0.4948 -0.6431 -1.5171
 5981SOL    HW229922   2.187  10.093   1.614  0.0800 -0.0177  1.1499
 5982SOL     OW29923   0.667   5.937   2.222 -0.0154 -0.0984 -0.1814
 5982SOL    HW129924   0.668   6.002   2.152 -0.3117 -1.1257 -1.1728
 5982SOL    HW229925   0.744   5.957   2.274  0.7296  0.1423 -1.3374
 5983SOL     OW29926   1.707   4.013   8.170 -0.0347 -0.2104 -0.4673
 5983SOL    HW129927   1.745   3.944   8.115 -0.2148  0.8694 -2.0242
 5983SOL    HW229928   1.777   4.035   8.232 -0.0959 -1.9952  0.3003
 5984SOL     OW29929   6.959   9.658   1.130 -0.3081 -0.5429  0.4971
 5984SOL    HW129930   6.966   9.563   1.126  2.0462 -0.4375  0.9763
 5984SOL    HW229931   6.959   9.678   1.223  0.0789 -0.0413  0.3926
 5985SOL     OW29932   1.388   2.814   2.411 -0.7499  0.1178  0.0526
 5985SOL    HW129933   1.404   2.786   2.321  2.4680 -0.1502  0.5993
 5985SOL    HW229934   1.380   2.909   2.406  1.2816  0.3112 -0.3843
 5986SOL     OW29935   9.927   5.064   7.132  0.5072  0.3225  0.7996
 5986SOL    HW129936   9.857   5.127   7.149  1.2734  1.1456  0.9326
 5986SOL    HW229937   9.888   5.001   7.071 -1.0238 -0.4419  2.4597
 5987SOL     OW29938   7.854   7.395   4.752  0.0815 -0.2630  0.4041
 5987SOL    HW129939   7.939   7.351   4.755 -0.4118 -1.2895 -0.2181
 5987SOL    HW229940   7.864   7.461   4.683  0.0602 -1.0734 -0.3863
 5988SOL     OW29941   8.255   9.299   7.027  0.0917 -0.0615 -0.6447
 5988SOL    HW129942   8.236   9.292   6.933  0.7735  2.6847 -1.0824
 5988SOL    HW229943   8.334   9.245   7.039 -0.4299 -1.0493 -1.4687
 5989SOL     OW29944   4.492   0.977   3.133 -0.0982  0.4124 -0.4235
 5989SOL    HW129945   4.483   1.000   3.225 -1.3641  1.8313 -0.8716
 5989SOL    HW229946   4.443   1.044   3.086  3.2264  1.7650 -2.3764
 5990SOL     OW29947   4.252   6.126   8.532  0.0720 -0.3509  0.2384
 5990SOL    HW129948   4.304   6.123   8.451  0.5343 -2.5431  0.5587
 5990SOL    HW229949   4.199   6.047   8.529 -0.7341  0.1109  1.5784
 5991SOL     OW29950   6.611   0.238   9.534  0.0203  0.1939 -0.2884
 5991SOL    HW129951   6.587   0.146   9.546 -0.3247  0.3568  0.3329
 5991SOL    HW229952   6.577   0.282   9.612  1.8499  0.5390  0.3536
 5992SOL     OW29953   3.850   2.935   8.470  0.9046  0.3647  0.1137
 5992SOL    HW129954   3.807   2.862   8.516 -0.7961  0.4257 -1.3119
 5992SOL    HW229955   3.930   2.896   8.435 -1.0873 -1.5894 -2.6639
 5993SOL     OW29956   4.978   8.685   5.943  0.3004 -0.2265 -0.4236
 5993SOL    HW129957   4.951   8.708   6.031  2.3100  0.3027  0.1118
 5993SOL    HW229958   4.901   8.700   5.889 -0.2033  2.0751  0.8221
 5994SOL     OW29959   0.826   4.690   8.695  0.2384 -0.3272 -0.7674
 5994SOL    HW129960   0.849   4.614   8.749 -1.8121  0.2282  1.0585
 5994SOL    HW229961   0.794   4.652   8.613  1.1191 -1.3389 -0.6597
 5995SOL     OW29962   0.825   6.829   2.411  0.4173 -0.0482  0.4430
 5995SOL    HW129963   0.800   6.737   2.400  2.7623 -0.8593  1.2375
 5995SOL    HW229964   0.817   6.845   2.504  0.7165  0.3249  0.4054
 5996SOL     OW29965   3.572   7.065   9.374  0.5273  0.1177  0.4658
 5996SOL    HW129966   3.602   7.082   9.463  2.6386 -1.3757  0.1228
 5996SOL    HW229967   3.527   6.981   9.379 -1.6487  1.2257  0.5268
 5997SOL     OW29968   0.720   1.972   7.244 -0.1599 -0.2799  0.4119
 5997SOL    HW129969   0.658   1.941   7.311  0.1680  1.4801  1.5860
 5997SOL    HW229970   0.798   1.998   7.293 -0.1635  1.7131 -0.5247
 5998SOL     OW29971   8.595   3.885   1.887  0.0279 -0.4741  0.3046
 5998SOL    HW129972   8.527   3.949   1.864  0.3982 -0.0223  0.4471
 5998SOL    HW229973   8.662   3.937   1.932  0.3959 -0.9429  0.3027
 5999SOL     OW29974   9.756   3.880   6.001  0.0617  0.6514  0.2601
 5999SOL    HW129975   9.782   3.959   5.953 -1.5849 -0.8614 -3.5035
 5999SOL    HW229976   9.823   3.815   5.978 -2.3555 -0.9691 -2.8283
 6000SOL     OW29977   7.575   0.946   9.513 -0.6907 -0.4695  0.2907
 6000SOL    HW129978   7.646   0.887   9.540 -2.2196 -1.4878  2.4599
 6000SOL    HW229979   7.617   1.031   9.504  1.1048 -1.3591 -0.2034
 6001SOL     OW29980   9.253   4.055   8.457  0.1493  0.0550  0.3085
 6001SOL    HW129981   9.179   4.096   8.501  0.7258  0.1470  1.2224
 6001SOL    HW229982   9.274   3.979   8.511  0.2540 -0.4023 -0.3601
 6002SOL     OW29983   5.023   7.482   2.640 -0.2775 -0.4050  0.1235
 6002SOL    HW129984   5.088   7.500   2.708 -0.0388 -1.2898  0.1510
 6002SOL    HW229985   5.061   7.517   2.560 -0.7636  1.0554  0.5070
 6003SOL     OW29986   6.695   0.607   1.567 -0.0301 -0.4206 -0.2377
 6003SOL    HW129987   6.675   0.515   1.584 -1.8450 -0.1570 -0.7684
 6003SOL    HW229988   6.748   0.606   1.488  0.8799 -1.0584  0.3607
 6004SOL     OW29989   4.796   9.272   4.702 -0.1769  0.8776 -0.1074
 6004SOL    HW129990   4.802   9.349   4.758  1.9910  1.7552 -1.4257
 6004SOL    HW229991   4.841   9.297   4.621 -1.7425 -0.8898 -1.6333
 6005SOL     OW29992   9.553   5.643   0.343 -0.5456  0.4433 -0.6074
 6005SOL    HW129993   9.628   5.598   0.382 -0.1163  1.3987 -0.2960
 6005SOL    HW229994   9.486   5.641   0.412  0.1274  1.9096  0.1454
 6006SOL     OW29995  10.328   5.341   3.828 -0.1901  0.6181 -0.1595
 6006SOL    HW129996  10.340   5.410   3.763  2.3459 -0.9742 -1.5526
 6006SOL    HW229997  10.261   5.284   3.791 -1.1443  1.4571  0.2432
 6007SOL     OW29998   2.359   0.921  10.209  0.1665 -0.0640  0.6658
 6007SOL    HW129999   2.388   0.943  10.121  0.1082 -1.3884  0.2996
 6007SOL    HW230000   2.264   0.936  10.208 -0.4166 -3.0801 -0.5289
 6008SOL     OW30001   3.080   1.757   0.875  0.0314 -0.5302  0.6750
 6008SOL    HW130002   3.113   1.677   0.916  4.0324  0.6588  0.1569
 6008SOL    HW230003   3.069   1.734   0.782 -1.2826 -1.0672  0.9365
 6009SOL     OW30004   1.924   5.546   4.191 -0.2134 -0.3037  0.3076
 6009SOL    HW130005   1.873   5.625   4.171  1.1212 -0.0102 -2.4432
 6009SOL    HW230006   1.861   5.486   4.230 -2.5514  0.3249 -2.1894
 6010SOL     OW30007   2.555   9.223   9.467  0.1963 -0.5257  0.3444
 6010SOL    HW130008   2.612   9.199   9.540  0.2201 -1.6906 -0.0313
 6010SOL    HW230009   2.466   9.218   9.503  0.3104  1.8351  1.0837
 6011SOL     OW30010   0.970  10.032   5.017  0.4114  0.7335  0.2797
 6011SOL    HW130011   1.065  10.041   5.025  0.2483  1.0255  2.1979
 6011SOL    HW230012   0.958   9.945   4.977  1.4767  1.1783 -1.1031
 6012SOL     OW30013   2.026   6.207   8.257 -0.0032 -0.2035 -0.2690
 6012SOL    HW130014   2.057   6.209   8.348 -0.5987 -0.0203 -0.0695
 6012SOL    HW230015   1.954   6.269   8.255 -1.4968 -1.8704 -0.3257
 6013SOL     OW30016   0.695   2.283   9.842  0.1095  0.4982 -0.5011
 6013SOL    HW130017   0.674   2.350   9.778 -0.4208  1.1395  0.3282
 6013SOL    HW230018   0.621   2.223   9.839  0.1333  0.4710 -0.5550
 6014SOL     OW30019   1.935   2.643   3.537 -0.1440  0.1239  0.3383
 6014SOL    HW130020   1.881   2.629   3.459 -1.1113  0.1689  0.9847
 6014SOL    HW230021   1.879   2.691   3.597  0.5754  0.0494  1.0932
 6015SOL     OW30022   3.483   6.694   5.501 -0.4730  0.0664  0.1184
 6015SOL    HW130023   3.490   6.787   5.480  0.0460 -0.0745 -0.3760
 6015SOL    HW230024   3.467   6.691   5.595  2.8622  0.5849  0.8101
 6016SOL     OW30025   3.935   3.874   1.488 -0.1026 -0.2761  0.2962
 6016SOL    HW130026   3.938   3.778   1.483 -1.8980 -0.3504  0.0814
 6016SOL    HW230027   3.856   3.898   1.440  0.6225  1.3771 -0.1454
 6017SOL     OW30028   6.630   8.183   2.953 -0.0077 -0.0203  0.4868
 6017SOL    HW130029   6.723   8.167   2.935 -0.1622  0.0465 -0.4149
 6017SOL    HW230030   6.613   8.269   2.913 -1.2034 -1.4081 -2.2418
 6018SOL     OW30031   7.062   8.116   0.548  0.2551  0.2557 -0.3745
 6018SOL    HW130032   7.132   8.054   0.572 -0.1839 -0.2009 -0.2397
 6018SOL    HW230033   6.990   8.093   0.607  0.3925  1.5024  0.3033
 6019SOL     OW30034   7.467   3.356   2.780 -0.0715  0.9335  0.0050
 6019SOL    HW130035   7.560   3.334   2.775 -0.0231  1.3219 -1.0388
 6019SOL    HW230036   7.423   3.274   2.803  0.7147  1.1927  2.8059
 6020SOL     OW30037   6.481   2.921   0.815 -0.5104  0.4009 -0.3827
 6020SOL    HW130038   6.504   2.909   0.908  1.7098  1.0703 -0.7781
 6020SOL    HW230039   6.486   2.833   0.777 -2.7866 -0.1032  0.3500
 6021SOL     OW30040   8.126   8.772   5.674  0.1408  0.0150  0.4069
 6021SOL    HW130041   8.058   8.837   5.655 -0.2537 -0.6590 -0.6275
 6021SOL    HW230042   8.195   8.791   5.610  0.1914 -0.3255  0.3576
 6022SOL     OW30043   9.429   3.440   1.765 -0.2338 -0.2823 -0.0282
 6022SOL    HW130044   9.445   3.348   1.745 -5.9294 -1.1587 -2.6015
 6022SOL    HW230045   9.365   3.438   1.837 -1.7406  1.4306 -1.2107
 6023SOL     OW30046  10.217   4.975   5.189 -0.4483 -0.6717 -0.0609
 6023SOL    HW130047  10.173   5.060   5.187 -0.5376 -0.7170 -0.0606
 6023SOL    HW230048  10.199   4.940   5.276  0.5974 -0.1730  0.3659
 6024SOL     OW30049   1.703   6.450   1.369  0.5841 -0.2794 -0.1088
 6024SOL    HW130050   1.623   6.446   1.420  0.8004 -0.7174  0.2021
 6024SOL    HW230051   1.734   6.540   1.379  0.5974 -0.3462  0.4910
 6025SOL     OW30052   8.387   3.905   7.813  0.2537 -0.1952  0.1712
 6025SOL    HW130053   8.421   3.815   7.817 -0.8135 -0.5715  2.1925
 6025SOL    HW230054   8.393   3.936   7.903 -0.1594  1.4962 -0.3536
 6026SOL     OW30055   8.630   1.965   3.690 -0.3179  0.2699 -0.1137
 6026SOL    HW130056   8.606   2.057   3.699  0.1650  0.3673  0.1990
 6026SOL    HW230057   8.651   1.955   3.597 -0.6868  0.3981 -0.2118
 6027SOL     OW30058  10.381   0.135   2.246 -0.2608  0.2642 -0.2013
 6027SOL    HW130059  10.295   0.092   2.252 -0.2933  0.4173  0.5882
 6027SOL    HW230060  10.444   0.062   2.245 -0.2780  0.1523  1.7722
 6028SOL     OW30061  10.077   7.252   4.227 -0.1285 -0.5382  0.1177
 6028SOL    HW130062  10.074   7.322   4.293 -0.3991 -0.4806  0.0470
 6028SOL    HW230063  10.085   7.299   4.144 -1.1077 -0.5463 -0.0006
 6029SOL     OW30064   8.561   7.572   0.288 -0.0977  0.1763 -0.2828
 6029SOL    HW130065   8.548   7.571   0.193  0.2568  0.4975 -0.3383
 6029SOL    HW230066   8.493   7.631   0.321 -0.3370 -0.0815 -0.3219
 6030SOL     OW30067   2.345   3.701   0.139  0.1735  0.3974 -0.4961
 6030SOL    HW130068   2.252   3.678   0.142  0.4082 -0.8516 -1.9263
 6030SOL    HW230069   2.356   3.744   0.054  1.1373 -0.6477 -0.9242
 6031SOL     OW30070   8.469   2.560   4.472 -0.5955 -0.2066  0.2252
 6031SOL    HW130071   8.439   2.469   4.466 -0.7904 -0.1091 -0.3437
 6031SOL    HW230072   8.563   2.553   4.492 -0.3925 -0.5446 -0.8044
 6032SOL     OW30073   3.510   8.828   5.940  0.1908 -0.3541 -0.1127
 6032SOL    HW130074   3.446   8.843   6.009 -1.2972  1.0384 -1.6910
 6032SOL    HW230075   3.491   8.740   5.908 -1.0461  0.0561 -0.5911
 6033SOL     OW30076   1.061   8.252   6.201  0.3115 -0.1776 -0.0851
 6033SOL    HW130077   1.010   8.301   6.137  1.7853 -1.2968 -2.2490
 6033SOL    HW230078   1.141   8.303   6.212  0.0451  0.0446  0.9890
 6034SOL     OW30079   6.314   3.786   4.334  0.6153  0.2983 -0.0936
 6034SOL    HW130080   6.267   3.763   4.414 -0.8485  2.3907 -0.2695
 6034SOL    HW230081   6.258   3.753   4.263  1.6237 -1.0400 -0.3099
 6035SOL     OW30082   3.119   4.922   9.756  0.2254  0.2827 -0.3697
 6035SOL    HW130083   3.072   4.841   9.732  0.0383  0.4269 -0.4965
 6035SOL    HW230084   3.190   4.892   9.813  0.6207 -0.0612 -1.0271
 6036SOL     OW30085   7.053   4.532   6.767  0.1612  0.4730 -0.2008
 6036SOL    HW130086   6.965   4.554   6.740  0.5441  1.2047 -0.8886
 6036SOL    HW230087   7.083   4.467   6.703  0.6367  1.3163 -0.8531
 6037SOL     OW30088   7.428   7.793   4.310  0.0742 -0.0805 -0.3516
 6037SOL    HW130089   7.408   7.763   4.399 -0.3115  1.4248  0.0920
 6037SOL    HW230090   7.462   7.881   4.321  0.4144 -0.0247 -1.6785
 6038SOL     OW30091   4.038  10.003   9.838  0.5309  0.5493  0.4908
 6038SOL    HW130092   3.945  10.026   9.833  0.0441 -1.0658  1.3220
 6038SOL    HW230093   4.075  10.062   9.903  0.2076  1.5109 -0.1754
 6039SOL     OW30094   5.871   1.821   5.494  0.3283 -0.2100  0.1650
 6039SOL    HW130095   5.911   1.800   5.410 -0.2936  0.8354 -0.4169
 6039SOL    HW230096   5.910   1.905   5.518 -0.7231  0.3166  0.0949
 6040SOL     OW30097   8.496   2.452   8.586  0.0726 -0.5951 -0.1391
 6040SOL    HW130098   8.488   2.364   8.622 -2.0654 -0.1914  0.5474
 6040SOL    HW230099   8.471   2.510   8.658 -2.1324  0.3604 -1.5716
 6041SOL     OW30100   2.185   1.554   8.274 -0.0731 -0.0892 -0.7152
 6041SOL    HW130101   2.155   1.468   8.303  4.0349 -1.5217 -0.1482
 6041SOL    HW230102   2.157   1.560   8.182 -2.3371 -0.9722 -0.1405
 6042SOL     OW30103   2.533   6.781   9.453 -0.2947 -0.0495  0.0455
 6042SOL    HW130104   2.552   6.866   9.415 -1.3875 -0.0168 -0.4704
 6042SOL    HW230105   2.547   6.719   9.382  0.1971 -0.2722  0.3312
 6043SOL     OW30106   1.129  10.389   1.755  0.0453 -0.1575  0.5353
 6043SOL    HW130107   1.039  10.391   1.788  0.2834  0.8347  1.1661
 6043SOL    HW230108   1.139  10.301   1.719 -1.7455  0.2355 -1.1183
 6044SOL     OW30109   7.876   3.038   1.255 -0.2178 -0.0102 -0.7804
 6044SOL    HW130110   7.836   3.119   1.287  2.9212  1.4626 -0.1830
 6044SOL    HW230111   7.914   2.997   1.332  0.4438 -0.7242 -1.4684
 6045SOL     OW30112   1.328   5.482   4.149 -0.0466 -0.2762 -0.3636
 6045SOL    HW130113   1.349   5.393   4.176  1.5113 -0.8564 -3.1473
 6045SOL    HW230114   1.406   5.512   4.103 -1.1186  1.9693 -0.8366
 6046SOL     OW30115   1.405   4.513   5.127 -0.1043  0.0812 -0.2530
 6046SOL    HW130116   1.309   4.517   5.124 -0.1471 -0.8298 -0.2618
 6046SOL    HW230117   1.429   4.567   5.203 -0.7515 -1.4344  1.0720
 6047SOL     OW30118   0.443   3.111   7.415  0.5810 -0.0311 -0.1079
 6047SOL    HW130119   0.449   3.040   7.480  0.2375 -0.5012 -0.5845
 6047SOL    HW230120   0.409   3.185   7.465 -0.6187 -0.6645  0.0549
 6048SOL     OW30121   4.080   3.221   2.052  0.0577  0.1021  0.4774
 6048SOL    HW130122   3.984   3.211   2.053 -0.1226  1.4135  2.8717
 6048SOL    HW230123   4.111   3.154   2.113  0.5878  0.3103  0.4333
 6049SOL     OW30124   5.495   4.144   5.401  0.2730  0.3967 -0.1393
 6049SOL    HW130125   5.504   4.183   5.488  0.0650  2.1336 -0.8534
 6049SOL    HW230126   5.406   4.167   5.373 -0.1473 -1.3037 -0.2904
 6050SOL     OW30127   9.568   2.968   4.404 -0.3815 -0.4637  0.1277
 6050SOL    HW130128   9.546   2.875   4.402 -0.9350 -0.3888  1.5281
 6050SOL    HW230129   9.616   2.979   4.486 -1.5338  0.7233  0.6733
 6051SOL     OW30130   9.111   6.037   5.033  0.2120 -0.2422  0.0781
 6051SOL    HW130131   9.177   6.041   5.102  1.7704 -0.2614 -1.3601
 6051SOL    HW230132   9.084   5.945   5.031 -0.0060 -0.2012  0.7826
 6052SOL     OW30133   9.867   3.766   2.183 -0.3260 -0.3545  0.8499
 6052SOL    HW130134   9.959   3.791   2.171 -0.1905 -0.1405  2.1981
 6052SOL    HW230135   9.868   3.671   2.185 -0.3357 -0.4060 -0.4991
 6053SOL     OW30136   7.658   7.221   9.398  0.7581  0.6584  0.1399
 6053SOL    HW130137   7.748   7.235   9.427  1.1399 -0.0057 -0.7026
 6053SOL    HW230138   7.666   7.172   9.317 -0.3909 -0.0848  0.4569
 6054SOL     OW30139   1.796   6.539   6.627  0.6202  0.1886  0.0634
 6054SOL    HW130140   1.886   6.518   6.603  0.8155 -0.5372  1.2980
 6054SOL    HW230141   1.803   6.572   6.717 -0.2803  0.7397 -0.0597
 6055SOL     OW30142   1.630   6.762   5.284 -0.2089 -0.0555  0.1074
 6055SOL    HW130143   1.725   6.768   5.278 -0.1720 -1.5026 -1.3991
 6055SOL    HW230144   1.615   6.685   5.340 -0.4075 -1.7590 -2.1501
 6056SOL     OW30145   8.531   2.416   5.923 -0.5522  0.5083  0.1037
 6056SOL    HW130146   8.473   2.341   5.910  1.3806 -0.8301 -1.3165
 6056SOL    HW230147   8.490   2.487   5.874 -2.3424  0.3770  1.3499
 6057SOL     OW30148   2.648   4.898   7.195  0.2671 -0.3199  0.1276
 6057SOL    HW130149   2.725   4.934   7.240 -0.4275  0.5303  0.6627
 6057SOL    HW230150   2.609   4.838   7.259 -0.7234  0.8904  0.7017
 6058SOL     OW30151   9.502   2.894   4.732  0.3175 -0.0423 -0.2469
 6058SOL    HW130152   9.436   2.887   4.663  1.0754  0.0501 -0.9819
 6058SOL    HW230153   9.541   2.981   4.720 -0.4909  0.5573  1.1664
 6059SOL     OW30154   8.158   9.582   3.752  0.2610 -0.8343  0.3481
 6059SOL    HW130155   8.090   9.619   3.696 -1.1713 -1.3916  1.6551
 6059SOL    HW230156   8.240   9.601   3.706 -0.6666  0.9191 -0.6882
 6060SOL     OW30157   2.286   1.490   6.404 -0.3905 -0.2645 -0.4140
 6060SOL    HW130158   2.214   1.427   6.400 -0.9325  0.3593 -0.7115
 6060SOL    HW230159   2.310   1.493   6.497 -0.4981 -0.7443 -0.3673
 6061SOL     OW30160   5.078   5.556   5.274 -0.4174 -0.1255 -0.3196
 6061SOL    HW130161   4.986   5.542   5.295 -0.0963 -0.3510  1.0082
 6061SOL    HW230162   5.110   5.469   5.248 -0.9314  0.2408 -2.3710
 6062SOL     OW30163   7.465   3.294   8.571 -0.1362 -0.5330 -0.2848
 6062SOL    HW130164   7.494   3.208   8.541 -0.9160 -1.8721  2.4676
 6062SOL    HW230165   7.377   3.304   8.535  0.8836  0.3457 -2.7261
 6063SOL     OW30166   1.487   9.660   7.351 -0.1928  0.1815 -0.2340
 6063SOL    HW130167   1.483   9.736   7.409 -0.1811 -0.4358  0.5895
 6063SOL    HW230168   1.428   9.682   7.279  0.7151  1.4730 -0.6296
 6064SOL     OW30169   1.832   8.354   0.015 -0.2895 -0.0612 -0.3114
 6064SOL    HW130170   1.803   8.273  -0.027  0.3953 -0.7369  0.4948
 6064SOL    HW230171   1.784   8.357   0.097  1.6535 -1.0928  0.9531
 6065SOL     OW30172   8.061   5.233   1.585  0.1598  0.0568  0.1881
 6065SOL    HW130173   8.064   5.200   1.496 -0.7128  0.9823 -0.2058
 6065SOL    HW230174   7.975   5.206   1.618  0.2656  0.1659  0.5618
 6066SOL     OW30175   3.369   4.026   8.969  0.5739  0.2047  0.2938
 6066SOL    HW130176   3.359   4.104   9.023  1.5933  0.7123 -0.2158
 6066SOL    HW230177   3.279   3.999   8.948  0.1999  1.9052 -0.4479
 6067SOL     OW30178   0.804   5.415   3.849  0.9904  0.5296  0.4266
 6067SOL    HW130179   0.711   5.426   3.870  0.9953  0.7057  0.3607
 6067SOL    HW230180   0.808   5.335   3.797  0.8536  0.6125  0.2886
 6068SOL     OW30181   2.237   1.023   0.432  0.2281 -0.2255 -0.0051
 6068SOL    HW130182   2.191   1.005   0.514  1.2567 -0.4710  0.5386
 6068SOL    HW230183   2.183   1.087   0.387 -0.5963 -0.4506  0.6484
 6069SOL     OW30184   4.686   9.865   4.784 -0.2948 -0.9424 -0.2539
 6069SOL    HW130185   4.734   9.797   4.832 -0.1834 -1.2411 -0.7863
 6069SOL    HW230186   4.706   9.848   4.692  0.6853  0.5134 -0.3368
 6070SOL     OW30187   1.333  10.345   2.446  0.4403  0.1030 -0.6917
 6070SOL    HW130188   1.351  10.423   2.498  1.9133 -1.4425  1.2739
 6070SOL    HW230189   1.308  10.279   2.510  2.0078 -1.8016 -1.9259
 6071SOL     OW30190   3.810   8.969   5.689 -0.3691 -0.3327 -0.1743
 6071SOL    HW130191   3.856   8.932   5.764 -0.7821 -0.0975  0.1981
 6071SOL    HW230192   3.807   8.897   5.626  0.5993 -0.3217 -0.2551
 6072SOL     OW30193   8.353   4.008   7.548  0.4307 -0.5056 -0.1351
 6072SOL    HW130194   8.352   3.936   7.485  0.5728 -0.9125  0.3237
 6072SOL    HW230195   8.331   3.967   7.632  0.0843  0.0560  0.0586
 6073SOL     OW30196   3.006   2.827   3.265  0.4069 -0.1585  0.0164
 6073SOL    HW130197   3.067   2.901   3.264 -0.6079  0.6935 -0.3471
 6073SOL    HW230198   2.931   2.857   3.213  0.6298 -2.0288 -1.4946
 6074SOL     OW30199   6.354   8.644   2.228 -0.2974  0.1123 -0.7154
 6074SOL    HW130200   6.394   8.611   2.308  0.5884  0.1177 -1.1483
 6074SOL    HW230201   6.391   8.732   2.217 -1.1143  0.4773 -0.6428
 6075SOL     OW30202   1.464   5.259   7.452  0.3541 -0.3927  0.8086
 6075SOL    HW130203   1.550   5.219   7.440  0.5423 -0.5742  2.5041
 6075SOL    HW230204   1.482   5.342   7.495 -0.2586  0.0787  0.1688
 6076SOL     OW30205   0.026   8.749   8.578  0.0257 -0.3011 -0.3062
 6076SOL    HW130206   0.073   8.697   8.643 -0.6916 -0.4006  0.1359
 6076SOL    HW230207  -0.063   8.714   8.579 -0.1242  0.0399 -0.9747
 6077SOL     OW30208   6.014   7.357   7.769  0.0247  0.3824  0.5800
 6077SOL    HW130209   6.104   7.349   7.736 -0.4971  1.1407 -1.1225
 6077SOL    HW230210   5.970   7.413   7.706 -2.5263 -2.5193 -0.4879
 6078SOL     OW30211   6.765   8.979   3.472  0.0246  0.2150  0.3645
 6078SOL    HW130212   6.814   8.944   3.547  0.1786  0.1248  0.2225
 6078SOL    HW230213   6.760   8.906   3.410  1.0606  0.6716 -0.2832
 6079SOL     OW30214   8.266   1.483   5.857  0.8201  0.0313  0.7158
 6079SOL    HW130215   8.347   1.470   5.807  0.0519 -2.5714 -0.0203
 6079SOL    HW230216   8.270   1.415   5.924 -1.2245 -0.8897 -0.0298
 6080SOL     OW30217   9.038   2.729   2.280 -0.5152  0.1174 -0.0095
 6080SOL    HW130218   9.122   2.770   2.299 -0.0772  0.3948 -2.2432
 6080SOL    HW230219   8.976   2.772   2.338  0.8733 -0.1813  1.7751
 6081SOL     OW30220   1.033   8.685   3.587  0.6610  0.4509 -0.0862
 6081SOL    HW130221   1.118   8.651   3.614  0.4275  0.5999  0.8897
 6081SOL    HW230222   0.975   8.609   3.586  0.6508  0.4585 -0.1026
 6082SOL     OW30223   9.559   4.950  10.260  0.4887  0.0922 -0.5449
 6082SOL    HW130224   9.587   4.921  10.346 -0.3272  0.4934 -0.1322
 6082SOL    HW230225   9.629   5.010  10.231 -0.0983  1.3951  0.6370
 6083SOL     OW30226   6.677   5.470   3.864  0.2935  0.1526  0.0711
 6083SOL    HW130227   6.690   5.483   3.770 -1.4292  0.2662 -0.1890
 6083SOL    HW230228   6.628   5.388   3.870 -0.4496  0.6306  0.7778
 6084SOL     OW30229   7.112   5.694   6.737 -0.0643 -0.4545  0.2315
 6084SOL    HW130230   7.055   5.734   6.802  1.0358  0.0592  0.9200
 6084SOL    HW230231   7.076   5.606   6.723 -0.1274 -0.7117  1.8204
 6085SOL     OW30232   5.698   9.794   9.699  0.2374  0.9344 -0.0355
 6085SOL    HW130233   5.649   9.762   9.623  0.6606 -0.7285  0.3681
 6085SOL    HW230234   5.663   9.882   9.713 -0.1555  1.1200 -1.8758
 6086SOL     OW30235   1.578   2.079  10.087 -0.0669  0.0698 -0.0668
 6086SOL    HW130236   1.591   2.154  10.146 -0.0766 -0.5107  0.6939
 6086SOL    HW230237   1.493   2.095  10.046  0.1622  0.7275 -0.2985
 6087SOL     OW30238  10.348   7.426   2.724  0.2223  0.4960  0.3794
 6087SOL    HW130239  10.389   7.345   2.694 -0.3358  0.2178  0.3605
 6087SOL    HW230240  10.309   7.463   2.644  0.9694  1.0798  0.2757
 6088SOL     OW30241   8.983   9.198   3.790 -0.3091 -0.3032 -0.0441
 6088SOL    HW130242   8.978   9.276   3.734 -1.2538 -0.5853 -0.3811
 6088SOL    HW230243   9.067   9.158   3.768 -0.8490 -0.6648 -1.6451
 6089SOL     OW30244   9.989   7.496   9.849 -0.4626  0.1103 -0.1487
 6089SOL    HW130245  10.034   7.468   9.769 -1.3514 -0.8718 -0.3329
 6089SOL    HW230246  10.056   7.491   9.918  0.1944  0.5462 -0.7398
 6090SOL     OW30247   7.490   2.354   6.606 -0.6189  0.1283  0.0356
 6090SOL    HW130248   7.514   2.343   6.514 -0.2025 -0.1639  0.1770
 6090SOL    HW230249   7.560   2.311   6.654 -0.3907  1.0470  0.5254
 6091SOL     OW30250   8.793   3.776   9.319  0.5133  0.0798 -0.5781
 6091SOL    HW130251   8.866   3.720   9.295  0.8702  0.4472 -0.3609
 6091SOL    HW230252   8.829   3.837   9.384  0.1279  0.5365 -0.7812
 6092SOL     OW30253   2.731   7.763   9.233  0.7644  0.0369  0.1700
 6092SOL    HW130254   2.723   7.801   9.321  0.9872 -0.2355  0.3078
 6092SOL    HW230255   2.790   7.688   9.244 -0.4616 -0.9706  0.0972
 6093SOL     OW30256   1.007   3.172   4.598  0.0391 -0.2936 -0.6462
 6093SOL    HW130257   1.084   3.223   4.574  0.6615 -0.5851  0.6408
 6093SOL    HW230258   0.933   3.229   4.578  0.7236  1.2701  1.0103
 6094SOL     OW30259   5.480   9.767   5.974 -0.1305 -0.0627 -0.3520
 6094SOL    HW130260   5.484   9.719   5.891 -1.2040 -0.1204 -0.3846
 6094SOL    HW230261   5.561   9.744   6.019 -0.1397 -1.0633 -0.8250
 6095SOL     OW30262   7.978   5.413   6.868  0.0828  0.2426  0.4273
 6095SOL    HW130263   8.060   5.363   6.861  1.2820  1.8658  1.8440
 6095SOL    HW230264   7.924   5.363   6.929  0.0348 -0.7661 -0.4015
 6096SOL     OW30265   6.803  10.107   3.702  0.2357  0.0623  0.6428
 6096SOL    HW130266   6.749  10.156   3.765 -0.7609 -0.6858  0.3914
 6096SOL    HW230267   6.838  10.174   3.643 -2.1458  0.4126 -0.4855
 6097SOL     OW30268   2.496   7.429   5.876  0.1121 -0.1514 -0.0032
 6097SOL    HW130269   2.566   7.469   5.825  0.7554  0.5690  1.3918
 6097SOL    HW230270   2.417   7.443   5.824  0.5536  1.6343 -0.2499
 6098SOL     OW30271   5.446   2.459   8.891  0.1093  0.8677 -0.1283
 6098SOL    HW130272   5.487   2.521   8.951  0.7242  0.8907 -0.5712
 6098SOL    HW230273   5.353   2.482   8.893 -0.2099 -0.2691  2.1838
 6099SOL     OW30274   4.126   3.057   7.308 -0.4300 -0.4387  0.2639
 6099SOL    HW130275   4.096   2.975   7.348 -0.3139 -0.8064 -0.3804
 6099SOL    HW230276   4.180   3.098   7.375  1.4514 -2.0221 -0.2105
 6100SOL     OW30277   3.949   9.329   7.688  0.4799 -0.1610 -0.0129
 6100SOL    HW130278   3.862   9.352   7.654  0.6957 -0.6954 -0.9550
 6100SOL    HW230279   3.939   9.334   7.783 -0.4599  0.2268 -0.1156
 6101SOL     OW30280   1.555   5.331   6.480  0.1003 -0.3015  0.9729
 6101SOL    HW130281   1.523   5.412   6.441 -1.4458 -0.8016  1.1111
 6101SOL    HW230282   1.495   5.315   6.553  1.4937 -0.6247  2.0768
 6102SOL     OW30283   2.663   8.179   2.002  0.0132  0.0010  0.4717
 6102SOL    HW130284   2.578   8.211   2.034  0.2762  0.0394  1.1517
 6102SOL    HW230285   2.683   8.104   2.057 -0.1822 -0.8221 -0.5466
 6103SOL     OW30286   7.348   6.972   3.486 -0.1034 -0.5000 -0.2549
 6103SOL    HW130287   7.425   7.029   3.493  0.2043 -1.0374  1.1091
 6103SOL    HW230288   7.326   6.972   3.393  1.2037  0.1103 -0.5858
 6104SOL     OW30289   7.990   9.888   6.276 -0.3384 -0.2419 -0.4534
 6104SOL    HW130290   7.938   9.809   6.282  1.0823 -1.2721 -1.1525
 6104SOL    HW230291   8.005   9.900   6.182  2.0472 -0.9544 -0.2234
 6105SOL     OW30292   9.066   5.660   8.870 -0.3384  0.3247  0.7470
 6105SOL    HW130293   9.065   5.565   8.862  0.6315  0.3912 -0.3097
 6105SOL    HW230294   9.013   5.691   8.797 -2.4138  0.5715  2.2651
 6106SOL     OW30295   1.871   4.096   8.760 -0.1782 -0.5951  0.1224
 6106SOL    HW130296   1.815   4.090   8.837 -0.9801  0.2920 -0.3708
 6106SOL    HW230297   1.939   4.160   8.785 -0.5910 -0.1052  0.0113
 6107SOL     OW30298   3.546   2.133   6.166  0.6157  0.6177 -0.3935
 6107SOL    HW130299   3.580   2.215   6.200  1.5589 -0.1664  0.6211
 6107SOL    HW230300   3.498   2.094   6.239 -0.0562  0.3750 -0.9461
 6108SOL     OW30301   8.517   0.942   9.952  0.8032 -0.0618  0.1444
 6108SOL    HW130302   8.602   0.962   9.913  0.5962  1.4138  0.3768
 6108SOL    HW230303   8.511   1.000  10.028  0.4228 -1.5833  1.3436
 6109SOL     OW30304   7.706   1.052   4.319  0.0694  0.2023 -1.3784
 6109SOL    HW130305   7.785   1.087   4.362  0.5787 -1.2401 -1.0727
 6109SOL    HW230306   7.634   1.094   4.365  0.5726 -1.5448  1.2697
 6110SOL     OW30307   4.553   4.226   7.483 -0.5271 -0.5206 -0.5073
 6110SOL    HW130308   4.476   4.208   7.536 -0.9359 -1.5596 -1.4190
 6110SOL    HW230309   4.613   4.272   7.543 -1.5225 -0.4134  0.4339
 6111SOL     OW30310   6.884   0.528   7.676  0.7990 -0.6974 -0.5698
 6111SOL    HW130311   6.929   0.470   7.737  3.1553 -2.4622 -3.6845
 6111SOL    HW230312   6.848   0.470   7.609 -1.0401  1.1625 -1.3147
 6112SOL     OW30313   4.192   7.433   6.159  0.1221 -0.2332 -0.4499
 6112SOL    HW130314   4.153   7.417   6.072  2.2120  0.6193 -1.6166
 6112SOL    HW230315   4.251   7.507   6.145  0.2953  0.1062  1.8043
 6113SOL     OW30316   2.899   4.746   8.952  0.2145  0.3857  0.1423
 6113SOL    HW130317   2.903   4.677   9.018 -0.9935  1.0285  0.9321
 6113SOL    HW230318   2.953   4.817   8.988  1.3955 -0.0791 -0.6344
 6114SOL     OW30319   8.347   9.902   5.845  0.4235  0.4389  0.8693
 6114SOL    HW130320   8.369   9.836   5.780  0.2463  0.1239  1.1274
 6114SOL    HW230321   8.362   9.859   5.929  1.4731  1.1179  1.0446
 6115SOL     OW30322   2.420   2.670   6.282  0.0150 -0.2213 -0.3201
 6115SOL    HW130323   2.472   2.739   6.240  0.0418 -0.9177 -1.4816
 6115SOL    HW230324   2.483   2.599   6.297 -0.5514 -1.0526 -1.6922
 6116SOL     OW30325   5.967   4.666   3.338 -0.1097  0.0373  0.6429
 6116SOL    HW130326   6.027   4.695   3.407  1.5495  0.2604 -0.8316
 6116SOL    HW230327   5.956   4.743   3.282 -0.5877 -0.4314  0.0795
 6117SOL     OW30328   6.097   1.115   5.581  0.3830  0.3053  0.1563
 6117SOL    HW130329   6.060   1.164   5.507  0.8345 -0.8792 -0.8789
 6117SOL    HW230330   6.051   1.150   5.658  0.3319  1.9906 -0.5903
 6118SOL     OW30331   5.835   5.390   3.004 -0.1561  0.4015  0.5630
 6118SOL    HW130332   5.861   5.396   2.912  0.9718 -0.1628  0.8264
 6118SOL    HW230333   5.916   5.369   3.050 -1.2746 -3.0653  1.2410
 6119SOL     OW30334   5.330   4.480   9.503 -0.7818  0.3165 -0.2343
 6119SOL    HW130335   5.334   4.573   9.480 -1.7156  0.3606 -0.2470
 6119SOL    HW230336   5.248   4.449   9.464 -0.4548 -0.5306 -0.2728
 6120SOL     OW30337   8.174   0.246   2.043 -0.3724 -0.4382  0.2600
 6120SOL    HW130338   8.118   0.293   2.105  0.6870 -0.6433  1.4075
 6120SOL    HW230339   8.139   0.157   2.041  0.6097 -0.9037  1.9319
 6121SOL     OW30340   5.376   6.359   2.696  0.1156  0.2140  0.7020
 6121SOL    HW130341   5.469   6.339   2.689  0.4770  1.8925  0.3044
 6121SOL    HW230342   5.352   6.329   2.784  0.2920 -2.8362 -0.1606
 6122SOL     OW30343   0.263   9.920   8.970  0.1236 -0.6431 -0.3235
 6122SOL    HW130344   0.189   9.887   8.920 -0.0847 -1.1052  0.2646
 6122SOL    HW230345   0.317   9.968   8.907 -0.9790  0.2163 -0.6410
 6123SOL     OW30346   7.607   1.959   9.415  0.2070 -0.0542  0.4201
 6123SOL    HW130347   7.521   1.990   9.441  0.6389  1.9824 -0.3323
 6123SOL    HW230348   7.590   1.893   9.348 -0.7869  0.7576 -0.1646
 6124SOL     OW30349   1.142   4.225   6.315  0.0655 -0.2464 -0.6446
 6124SOL    HW130350   1.107   4.274   6.389 -0.2780 -2.2005  0.5445
 6124SOL    HW230351   1.165   4.293   6.251 -2.5152  1.3175 -0.0440
 6125SOL     OW30352   4.734   0.053   6.615 -0.4157 -0.1117  0.2436
 6125SOL    HW130353   4.684   0.132   6.629 -0.0357 -0.3424  3.7694
 6125SOL    HW230354   4.815   0.066   6.664  0.3967 -2.0317 -0.4537
 6126SOL     OW30355   5.658   8.426   7.869 -0.3391 -0.2033  0.4330
 6126SOL    HW130356   5.586   8.389   7.920 -0.1091 -1.2222  0.0538
 6126SOL    HW230357   5.655   8.378   7.787 -0.7451  1.4582 -0.5719
 6127SOL     OW30358   1.996   6.859   5.035 -0.4553  0.3001  0.4545
 6127SOL    HW130359   1.946   6.938   5.015 -0.9426 -0.4918 -1.7538
 6127SOL    HW230360   2.085   6.890   5.050 -0.9210  1.3853  1.1295
 6128SOL     OW30361  10.177  10.207   9.022 -0.4693  0.5209 -0.1184
 6128SOL    HW130362  10.198  10.158   8.943  0.6659 -0.0118  0.4961
 6128SOL    HW230363  10.081  10.209   9.024 -0.5362  1.1503 -1.8590
 6129SOL     OW30364   0.913   4.005   0.118  0.4417 -0.4219  0.4547
 6129SOL    HW130365   0.978   4.063   0.157  1.1165  0.6973 -2.0823
 6129SOL    HW230366   0.834   4.017   0.171  1.0609  1.5600  1.0000
 6130SOL     OW30367   2.265   2.162   6.689 -0.6933 -0.1469 -0.4846
 6130SOL    HW130368   2.221   2.120   6.763  0.1219  0.1620  0.1866
 6130SOL    HW230369   2.265   2.095   6.621 -1.9104 -0.2643 -0.3990
 6131SOL     OW30370   8.436   5.256   8.527  0.2209 -0.3329  0.5592
 6131SOL    HW130371   8.500   5.310   8.574  1.7795 -1.3850 -0.2762
 6131SOL    HW230372   8.436   5.173   8.574 -0.2836 -0.4560  0.3443
 6132SOL     OW30373   7.411   4.925   6.957 -0.3044  0.7857  0.2872
 6132SOL    HW130374   7.316   4.940   6.959 -0.2312  1.1979  0.6909
 6132SOL    HW230375   7.435   4.936   6.865 -0.8937 -0.8968 -0.1075
 6133SOL     OW30376   8.284   3.054   4.984  1.1361  0.0451 -0.7742
 6133SOL    HW130377   8.257   3.113   4.913 -2.2078 -0.1002  0.2118
 6133SOL    HW230378   8.310   3.113   5.055 -0.8483  0.4364 -0.2856
 6134SOL     OW30379   0.591   9.110   3.504 -0.4330 -0.5004 -0.0249
 6134SOL    HW130380   0.580   9.090   3.411  0.0614  1.9808 -0.6895
 6134SOL    HW230381   0.679   9.080   3.525 -0.6592 -1.3530 -0.2539
 6135SOL     OW30382   1.144   7.045   2.292  0.0587  0.0635 -0.3608
 6135SOL    HW130383   1.120   7.124   2.244  0.8589  0.5409 -0.0071
 6135SOL    HW230384   1.068   7.025   2.346 -1.3571 -1.2058 -2.6711
 6136SOL     OW30385   1.839   8.987   0.527  0.2293 -0.5799  0.1833
 6136SOL    HW130386   1.888   9.000   0.608  1.4618 -0.8788 -0.4970
 6136SOL    HW230387   1.813   9.075   0.500 -1.4479 -0.5629  1.6200
 6137SOL     OW30388   4.259   6.593   2.249  0.1534  0.1247 -0.4792
 6137SOL    HW130389   4.301   6.607   2.165 -2.1380  0.6927 -1.6184
 6137SOL    HW230390   4.170   6.564   2.227 -1.6606  3.4888  1.6191
 6138SOL     OW30391   4.113   8.902   4.893  0.1100  0.0653 -0.3094
 6138SOL    HW130392   4.165   8.823   4.875  0.0795 -0.0727  0.1913
 6138SOL    HW230393   4.166   8.951   4.956 -0.8305 -0.5862  1.0434
 6139SOL     OW30394   9.086   3.331   4.933  0.0399  0.2474 -0.0237
 6139SOL    HW130395   9.027   3.260   4.959  0.5970 -0.1509  0.1887
 6139SOL    HW230396   9.085   3.329   4.837  1.0388 -0.9116 -0.0353
 6140SOL     OW30397   8.649   5.006   6.901  0.2639 -0.1147 -0.1986
 6140SOL    HW130398   8.610   4.948   6.967  0.3944 -0.6747 -0.6090
 6140SOL    HW230399   8.641   5.094   6.939 -2.5350 -0.0184 -0.7553
 6141SOL     OW30400   7.763   7.757   0.970  0.5131  0.1773  0.1694
 6141SOL    HW130401   7.777   7.663   0.963  0.8846  0.2781 -0.6538
 6141SOL    HW230402   7.743   7.772   1.062 -0.3012 -0.8003  0.1743
 6142SOL     OW30403   6.143   5.319   5.108  0.3001 -0.7674 -0.3880
 6142SOL    HW130404   6.108   5.360   5.187  2.8238 -0.2265  0.5401
 6142SOL    HW230405   6.124   5.381   5.038  0.7896  0.2497  0.3584
 6143SOL     OW30406   7.071   5.039   0.717  0.2929 -0.2570 -1.0290
 6143SOL    HW130407   7.155   5.063   0.678  0.0589  3.0138  0.1386
 6143SOL    HW230408   7.087   5.036   0.811 -0.6191 -0.9826 -0.8790
 6144SOL     OW30409   9.596   1.471   4.119 -0.2320  0.1341 -0.2599
 6144SOL    HW130410   9.625   1.396   4.170  0.0047  1.2697  1.3397
 6144SOL    HW230411   9.573   1.537   4.184 -1.5777  1.0534 -1.6010
 6145SOL     OW30412   3.980   2.946   6.849  0.3245 -0.0380  0.2030
 6145SOL    HW130413   3.925   2.879   6.888 -1.5153  0.9028 -0.6404
 6145SOL    HW230414   3.966   3.023   6.904  0.9658  0.1654  0.0908
 6146SOL     OW30415   7.931   6.624   0.036 -1.0017 -0.0935 -0.8876
 6146SOL    HW130416   7.839   6.601   0.047 -0.9917  0.5347  0.8909
 6146SOL    HW230417   7.930   6.701  -0.021 -1.4560 -0.8863 -1.9698
 6147SOL     OW30418   3.315   7.042   6.624 -0.1615  0.0590  0.9989
 6147SOL    HW130419   3.351   7.029   6.712  1.0213 -0.5833  0.4438
 6147SOL    HW230420   3.383   7.091   6.577 -0.2913 -0.5785  0.1287
 6148SOL     OW30421   9.561   9.104   7.276 -0.2906  0.1238  0.4220
 6148SOL    HW130422   9.626   9.049   7.234 -1.0592 -1.7620  1.5718
 6148SOL    HW230423   9.489   9.108   7.213  0.3389  1.0462 -0.2616
 6149SOL     OW30424   1.627   0.790   4.734  0.4003 -0.2173 -0.6903
 6149SOL    HW130425   1.580   0.766   4.654  1.2015 -1.6548 -0.7723
 6149SOL    HW230426   1.568   0.764   4.805 -0.7307  1.9430 -0.7611
 6150SOL     OW30427   9.067   9.377   8.914 -0.1718 -0.2777  0.3044
 6150SOL    HW130428   9.085   9.453   8.969 -0.7595 -0.4699  0.7840
 6150SOL    HW230429   8.983   9.397   8.873  0.5915  0.1727 -1.1021
 6151SOL     OW30430   9.354   8.503   4.564  0.0236 -0.3631 -0.7289
 6151SOL    HW130431   9.279   8.456   4.601 -0.1770  1.2136  1.0015
 6151SOL    HW230432   9.418   8.506   4.635 -0.3224  2.6641 -0.4202
 6152SOL     OW30433   7.826   1.386   6.464 -0.7846  0.8079  0.4522
 6152SOL    HW130434   7.789   1.474   6.465 -1.2567  0.6352  2.3799
 6152SOL    HW230435   7.801   1.348   6.548  0.2604 -0.8199  0.0876
 6153SOL     OW30436   6.591   2.600   9.726  0.1171  0.1275  0.2556
 6153SOL    HW130437   6.532   2.640   9.790 -0.0631 -0.7500  0.6564
 6153SOL    HW230438   6.546   2.610   9.642  0.0250  0.6537  0.3621
 6154SOL     OW30439   5.398   5.418   8.838 -0.2888  0.1647  0.0713
 6154SOL    HW130440   5.385   5.355   8.767 -0.3761  0.2700 -0.0069
 6154SOL    HW230441   5.357   5.498   8.806  1.4701  0.8291 -0.6306
 6155SOL     OW30442   6.606   7.130   4.516 -0.1139 -0.1024  0.0118
 6155SOL    HW130443   6.637   7.147   4.606 -0.1958  0.2170 -0.0206
 6155SOL    HW230444   6.515   7.159   4.516 -0.6267 -1.6021  0.2777
 6156SOL     OW30445   2.259   7.418   7.805  0.3335  0.8212 -0.5875
 6156SOL    HW130446   2.181   7.385   7.850 -0.1296  3.0959  0.3966
 6156SOL    HW230447   2.332   7.379   7.854 -0.0906 -1.3260 -1.5186
 6157SOL     OW30448   2.622   0.071   0.828 -0.1468 -0.7846 -0.0856
 6157SOL    HW130449   2.660   0.013   0.894  0.0935  0.0203  0.5080
 6157SOL    HW230450   2.533   0.039   0.816 -0.5386 -0.3600  1.3867
 6158SOL     OW30451  10.097  10.292   1.245  0.0624 -0.0215  0.2816
 6158SOL    HW130452  10.047  10.224   1.199 -0.1502  0.6657 -0.5265
 6158SOL    HW230453  10.063  10.374   1.210  0.6898  0.4951  0.8606
 6159SOL     OW30454   7.712   3.033   7.394  0.0850 -0.6044  0.1659
 6159SOL    HW130455   7.619   3.027   7.371  0.2035  0.6581 -0.7305
 6159SOL    HW230456   7.758   3.032   7.310  0.6849  1.5596  0.4002
 6160SOL     OW30457   2.355   7.227   5.650  0.1535 -0.5833  0.5556
 6160SOL    HW130458   2.401   7.146   5.632 -0.1649 -0.3642 -1.5696
 6160SOL    HW230459   2.387   7.288   5.583 -1.0494  0.4229  0.8554
 6161SOL     OW30460   1.798   7.781  10.379  0.0215  0.2324 -0.4693
 6161SOL    HW130461   1.824   7.693  10.402 -0.2443  0.4641  0.7629
 6161SOL    HW230462   1.862   7.809  10.313  0.4437 -0.6630 -0.4465
 6162SOL     OW30463   9.888   6.223  10.208  0.2608  0.0800  0.6552
 6162SOL    HW130464   9.905   6.164  10.282 -0.4680 -0.3275  0.4993
 6162SOL    HW230465   9.817   6.181  10.160 -0.0244  0.9136  0.3476
 6163SOL     OW30466   8.310   6.668   4.520 -0.2046 -0.2409  0.0207
 6163SOL    HW130467   8.404   6.686   4.528  0.1373 -0.3275 -2.8979
 6163SOL    HW230468   8.294   6.597   4.582  1.7298 -0.4614  0.3236
 6164SOL     OW30469  10.355   1.595   5.265 -0.4019  0.0576 -0.2643
 6164SOL    HW130470  10.439   1.622   5.227 -0.6160  1.7230  0.3323
 6164SOL    HW230471  10.358   1.500   5.264  1.9424  0.0405  0.6858
 6165SOL     OW30472   5.906   0.787   7.874  0.0407  0.6848  0.0318
 6165SOL    HW130473   5.821   0.797   7.832 -0.7370 -0.3330  1.2790
 6165SOL    HW230474   5.909   0.854   7.942 -0.4310 -0.2380  0.9882
 6166SOL     OW30475   9.944   7.721   2.782  0.0505 -0.1972 -0.0425
 6166SOL    HW130476   9.979   7.652   2.839  1.8273 -0.0558 -0.9096
 6166SOL    HW230477  10.014   7.785   2.776 -1.1835  1.2061 -0.1205
 6167SOL     OW30478   0.472   6.497   6.622 -0.4972 -0.1498 -0.0719
 6167SOL    HW130479   0.448   6.590   6.622  0.3527  0.1568  2.7337
 6167SOL    HW230480   0.559   6.495   6.581 -0.1703  0.4357  0.5678
 6168SOL     OW30481   0.235  10.039   6.017  0.3928  0.5322 -0.5517
 6168SOL    HW130482   0.304  10.008   6.074  0.5665  0.7664 -0.6327
 6168SOL    HW230483   0.214  10.127   6.049 -2.2041 -0.7358  1.6201
 6169SOL     OW30484   7.162   1.395   0.345  0.3746  0.0290 -0.0525
 6169SOL    HW130485   7.223   1.414   0.416 -0.7731 -0.0253  0.9851
 6169SOL    HW230486   7.166   1.300   0.335  1.0358  0.0997 -0.5426
 6170SOL     OW30487   6.885   0.593   2.579  0.0551 -0.2161  0.2452
 6170SOL    HW130488   6.881   0.593   2.675 -0.3741  0.6154  0.2439
 6170SOL    HW230489   6.829   0.521   2.552  0.4536 -0.6746  0.6239
 6171SOL     OW30490   7.533   0.074   9.471 -0.2479 -0.7189  0.5351
 6171SOL    HW130491   7.591  -0.000   9.485  1.2176  0.2265 -0.2732
 6171SOL    HW230492   7.560   0.111   9.387 -1.5114  0.2192  0.5013
 6172SOL     OW30493   9.586   2.426   9.657  0.0681 -0.4546  0.1173
 6172SOL    HW130494   9.672   2.433   9.697  0.9201  0.7532 -1.7697
 6172SOL    HW230495   9.559   2.516   9.642 -0.5554 -0.8306 -1.2221
 6173SOL     OW30496  10.255   9.159   2.549  0.1771 -0.1022  0.1385
 6173SOL    HW130497  10.324   9.174   2.485 -0.4726 -0.6519 -0.7205
 6173SOL    HW230498  10.300   9.151   2.633  1.1128 -0.1104 -0.3595
 6174SOL     OW30499   5.560   4.396   1.235 -0.1153  0.3292  0.0818
 6174SOL    HW130500   5.546   4.489   1.253 -4.4527 -0.2061  0.6873
 6174SOL    HW230501   5.550   4.353   1.321  0.7712 -0.7963 -0.3485
 6175SOL     OW30502   4.778   9.909  10.294 -0.4764 -0.2889 -0.7199
 6175SOL    HW130503   4.797   9.999  10.269 -1.8513  0.4525  0.6697
 6175SOL    HW230504   4.862   9.873  10.321 -0.0638  0.9288 -0.3178
 6176SOL     OW30505   9.027   2.378   1.983  0.0951 -0.0757  0.1487
 6176SOL    HW130506   8.970   2.455   1.993 -0.1170 -0.2233  0.0727
 6176SOL    HW230507   9.079   2.377   2.063 -0.5527 -0.3862  0.5752
 6177SOL     OW30508   0.033  10.263   1.887 -0.0465  0.2818  0.8326
 6177SOL    HW130509  -0.000  10.177   1.913  0.8559 -0.2401  0.3258
 6177SOL    HW230510  -0.045  10.311   1.858 -0.4459 -0.7215  0.1657
 6178SOL     OW30511   5.482   8.578   0.215  0.1875 -0.0528  0.7985
 6178SOL    HW130512   5.461   8.491   0.182 -1.1962  0.5339  0.0599
 6178SOL    HW230513   5.515   8.562   0.304  0.7216 -1.3744  0.3950
 6179SOL     OW30514   8.619   5.090   9.879 -0.3134 -0.5444  0.0160
 6179SOL    HW130515   8.552   5.076   9.946  0.7670 -0.4666  1.1439
 6179SOL    HW230516   8.569   5.101   9.797 -1.6330 -1.0979  0.7160
 6180SOL     OW30517   9.534   1.117   8.773  1.1944 -0.7173 -0.6079
 6180SOL    HW130518   9.500   1.060   8.704  1.0597  0.0628 -1.2009
 6180SOL    HW230519   9.620   1.145   8.740 -0.2338  2.3142 -2.0638
 6181SOL     OW30520   8.440   0.455   9.449 -0.3169 -0.0324  0.3005
 6181SOL    HW130521   8.424   0.443   9.356 -1.5000 -0.7642  0.5730
 6181SOL    HW230522   8.463   0.547   9.458  1.4370 -0.3155 -0.9053
 6182SOL     OW30523   8.762   9.648   2.626  0.1227  0.6231 -0.2193
 6182SOL    HW130524   8.671   9.679   2.630 -0.0665  0.0622 -0.1310
 6182SOL    HW230525   8.803   9.704   2.560 -0.4109  0.5605 -0.6102
 6183SOL     OW30526   4.134   1.223   1.428  0.0993  0.3664 -0.2618
 6183SOL    HW130527   4.224   1.253   1.443  0.5997 -1.1783  0.0875
 6183SOL    HW230528   4.139   1.172   1.347 -0.4163  0.1363 -0.1554
 6184SOL     OW30529   0.898  10.210   7.447 -0.0820  0.2714  0.2018
 6184SOL    HW130530   0.926  10.298   7.419  0.8117  0.3140  1.1755
 6184SOL    HW230531   0.814  10.225   7.491 -0.9865  0.3372 -1.4676
 6185SOL     OW30532   8.470   7.545   6.134  0.2329  0.3006 -0.2079
 6185SOL    HW130533   8.470   7.575   6.225  2.3669  0.3491 -0.1757
 6185SOL    HW230534   8.383   7.508   6.121 -0.4206  1.0966  1.5780
 6186SOL     OW30535   4.202  10.210   5.192 -0.1434  0.0622  0.6475
 6186SOL    HW130536   4.187  10.146   5.262 -3.4551  0.1536  0.1794
 6186SOL    HW230537   4.219  10.157   5.114 -0.2401 -0.1516  0.7700
 6187SOL     OW30538   1.554   5.749   0.520 -0.1326  0.5366  0.1232
 6187SOL    HW130539   1.567   5.828   0.573  0.3888 -0.7865  2.0711
 6187SOL    HW230540   1.623   5.689   0.549 -0.0055 -0.3580 -1.8941
 6188SOL     OW30541   7.298   4.367   1.440 -0.4058  0.1106 -0.3725
 6188SOL    HW130542   7.316   4.274   1.452 -1.2311 -0.2756 -1.8801
 6188SOL    HW230543   7.202   4.373   1.441 -0.3820  0.8038 -1.1440
 6189SOL     OW30544   8.152   5.281   6.624 -0.5576  0.1029 -0.2234
 6189SOL    HW130545   8.133   5.194   6.589  1.9010 -0.9544  0.8544
 6189SOL    HW230546   8.172   5.267   6.716  1.7377  1.4474 -0.4169
 6190SOL     OW30547  10.016   3.510   4.652 -0.4786 -0.3617 -0.4439
 6190SOL    HW130548  10.073   3.447   4.608  0.1885  1.5874 -2.5406
 6190SOL    HW230549   9.928   3.486   4.623 -0.4971 -1.6011  0.5188
 6191SOL     OW30550   7.428   4.973   0.195 -0.4581 -0.4954  0.1473
 6191SOL    HW130551   7.470   4.934   0.271  2.0010  0.1972 -0.7749
 6191SOL    HW230552   7.484   4.950   0.121 -0.9873  1.5321 -0.9737
 6192SOL     OW30553   1.612   1.439   8.823  0.5446 -0.3178 -0.3985
 6192SOL    HW130554   1.554   1.516   8.818  0.9683  0.0167 -0.2064
 6192SOL    HW230555   1.571   1.375   8.765 -0.0926 -0.1324 -0.1603
 6193SOL     OW30556   0.598   5.353   8.597  0.7127 -0.4325  0.0951
 6193SOL    HW130557   0.551   5.389   8.672 -2.0488  0.2902 -1.7968
 6193SOL    HW230558   0.613   5.429   8.539  1.9175 -1.1076 -0.5147
 6194SOL     OW30559   4.814   4.318   4.274 -0.3549 -0.0545 -0.0797
 6194SOL    HW130560   4.820   4.306   4.369  2.0224  2.7701  0.3026
 6194SOL    HW230561   4.885   4.264   4.239 -1.5815 -1.5345 -0.3738
 6195SOL     OW30562   8.126   7.314   3.612  0.7592 -0.8578 -0.1743
 6195SOL    HW130563   8.191   7.269   3.666  2.1987  0.2375 -0.9101
 6195SOL    HW230564   8.176   7.382   3.567 -0.9682  0.1800 -0.6050
 6196SOL     OW30565   7.642   8.703   9.071 -0.0232  0.0769  0.1399
 6196SOL    HW130566   7.630   8.791   9.036 -0.9165  0.1110  0.5212
 6196SOL    HW230567   7.554   8.666   9.074  0.4163 -1.0718 -0.6226
 6197SOL     OW30568   2.318   3.289   6.331 -0.1391  0.0896 -0.1742
 6197SOL    HW130569   2.375   3.231   6.282 -0.3252  1.1353 -1.7236
 6197SOL    HW230570   2.251   3.316   6.267 -0.8293  0.9394  0.8653
 6198SOL     OW30571   0.193   8.650   3.304  0.8380  0.0931 -0.1095
 6198SOL    HW130572   0.159   8.582   3.246 -1.7207  1.1734 -0.0091
 6198SOL    HW230573   0.215   8.723   3.245  0.5015  0.3346  0.0639
 6199SOL     OW30574   6.016   1.182   5.152  0.0674 -0.5243 -0.8548
 6199SOL    HW130575   6.001   1.238   5.229  1.9894 -0.4668 -0.4741
 6199SOL    HW230576   5.949   1.114   5.158  0.3800 -0.7202  1.0793
 6200SOL     OW30577   8.534   6.578   4.856 -0.5354  0.3130 -0.1945
 6200SOL    HW130578   8.506   6.667   4.879 -0.2346  1.3075 -3.2103
 6200SOL    HW230579   8.621   6.570   4.895 -0.5883  1.3327  0.1675
 6201SOL     OW30580   2.104   6.209   8.528  0.0517 -0.0719  0.0056
 6201SOL    HW130581   2.126   6.302   8.524 -2.6912  0.6900  0.3232
 6201SOL    HW230582   2.065   6.197   8.614 -0.8510 -1.1845 -0.5259
 6202SOL     OW30583  10.199   7.242   9.806 -1.4250 -0.2367  0.1014
 6202SOL    HW130584  10.197   7.301   9.882 -1.7367  0.5827 -0.5260
 6202SOL    HW230585  10.146   7.287   9.739 -1.1419 -0.9344 -0.6076
 6203SOL     OW30586   1.188   2.638  10.086  0.6711 -0.2585  0.1196
 6203SOL    HW130587   1.271   2.685  10.080 -0.7104  2.2342 -0.9831
 6203SOL    HW230588   1.125   2.704  10.115 -1.1319 -1.8079 -0.0455
 6204SOL     OW30589   3.443   2.321   5.531  0.0660  0.3965  0.1540
 6204SOL    HW130590   3.492   2.255   5.481 -0.3274  0.8953 -0.9312
 6204SOL    HW230591   3.392   2.271   5.594  0.0329 -0.3115 -0.4232
 6205SOL     OW30592   2.345   6.637   3.246 -0.8303 -0.2652 -0.3643
 6205SOL    HW130593   2.255   6.647   3.278 -1.3629  0.9105 -2.0816
 6205SOL    HW230594   2.395   6.610   3.323 -2.0596  2.1493  1.4252
 6206SOL     OW30595   7.100   3.539   7.179 -0.1908 -0.1896  0.8254
 6206SOL    HW130596   7.195   3.534   7.174 -0.1054  1.7990 -0.8607
 6206SOL    HW230597   7.076   3.605   7.114 -2.7791 -1.0599  0.7934
 6207SOL     OW30598   7.837   4.619   0.280  0.4122  0.3036  0.3175
 6207SOL    HW130599   7.869   4.676   0.350 -0.0615  0.9512  0.0105
 6207SOL    HW230600   7.747   4.598   0.305  0.8795 -1.1423  0.9392
 6208SOL     OW30601   7.605  10.238   6.696 -0.2972  0.0917 -0.4532
 6208SOL    HW130602   7.580  10.330   6.693  0.3794  0.2794 -0.4608
 6208SOL    HW230603   7.613  10.212   6.604  1.1693  0.4987 -0.4672
 6209SOL     OW30604   3.534   9.916   2.969  0.0387 -0.0492  0.2776
 6209SOL    HW130605   3.466   9.977   2.998 -0.4168 -0.1579 -0.5210
 6209SOL    HW230606   3.558   9.946   2.882  1.0603  0.0066  0.5626
 6210SOL     OW30607   8.617   3.550   8.519  0.8138  0.0199 -0.2076
 6210SOL    HW130608   8.644   3.622   8.461  2.0181 -0.1955  0.0573
 6210SOL    HW230609   8.613   3.474   8.461 -1.7801  0.4946 -0.7719
 6211SOL     OW30610   3.986   4.821   3.835 -0.0254 -0.5698 -0.1375
 6211SOL    HW130611   4.026   4.760   3.773 -0.3180 -0.6251 -0.2712
 6211SOL    HW230612   4.035   4.902   3.823 -1.2209 -0.0203 -1.7301
 6212SOL     OW30613   8.399   5.578   8.152  0.4684 -0.1451 -0.0338
 6212SOL    HW130614   8.406   5.627   8.070  2.6398 -0.3314 -0.0318
 6212SOL    HW230615   8.306   5.559   8.161  0.1466 -0.0080 -2.3829
 6213SOL     OW30616   9.642   4.189   9.649 -0.7992 -0.3621 -0.3483
 6213SOL    HW130617   9.647   4.243   9.570 -1.3702 -1.0580 -0.8812
 6213SOL    HW230618   9.687   4.108   9.625 -0.1509 -0.2259  0.3643
 6214SOL     OW30619   4.942   4.630   4.615  0.0449 -0.0891 -0.2266
 6214SOL    HW130620   4.994   4.698   4.659 -0.4685  0.0306  0.2098
 6214SOL    HW230621   4.861   4.675   4.591 -0.4903 -0.6519  0.4672
 6215SOL     OW30622   4.827   3.805  10.081 -0.1828  0.6166  0.1742
 6215SOL    HW130623   4.755   3.823  10.142 -1.3331  2.4508 -1.6218
 6215SOL    HW230624   4.864   3.891  10.060  0.1543  0.0563 -1.7217
 6216SOL     OW30625   8.368   4.260   4.919  0.0324 -0.1077 -0.0846
 6216SOL    HW130626   8.384   4.319   4.844 -0.6916  1.1056  0.6805
 6216SOL    HW230627   8.441   4.277   4.978  1.0944 -1.7248 -0.8735
 6217SOL     OW30628   4.853   2.507   9.378 -0.0631 -0.2004 -0.4306
 6217SOL    HW130629   4.787   2.456   9.331  0.1091 -0.5415 -0.3069
 6217SOL    HW230630   4.918   2.442   9.406 -0.0186  0.0360  0.0295
 6218SOL     OW30631   5.527   8.802   6.752  0.6187  0.1544 -0.0190
 6218SOL    HW130632   5.587   8.864   6.793 -0.8834  2.7538 -1.5258
 6218SOL    HW230633   5.531   8.822   6.659 -1.1659 -0.8834 -0.3624
 6219SOL     OW30634   1.049   7.575   8.805 -0.2788  0.3202 -0.4788
 6219SOL    HW130635   1.132   7.559   8.759  0.6994  0.0835  1.2891
 6219SOL    HW230636   0.994   7.501   8.780  0.7471 -0.5788 -0.1366
 6220SOL     OW30637   9.991   2.054   6.500  0.1819 -0.2365  0.4721
 6220SOL    HW130638   9.936   2.107   6.558  0.2877 -1.6130  1.8818
 6220SOL    HW230639   9.982   2.096   6.414 -2.5488 -0.0111  0.7758
 6221SOL     OW30640   3.605   0.980   5.528  0.2560 -0.0038 -0.3663
 6221SOL    HW130641   3.567   1.019   5.449  0.6146  1.0217 -0.0609
 6221SOL    HW230642   3.691   1.022   5.535  1.3230 -1.9820 -0.8440
 6222SOL     OW30643   6.009   3.535   6.378 -0.2068  0.1890 -0.0047
 6222SOL    HW130644   6.054   3.466   6.427  0.7453  0.3096 -0.6679
 6222SOL    HW230645   5.929   3.494   6.345 -0.4615 -0.1155  0.9683
 6223SOL     OW30646   6.146   4.800   8.170 -0.6432 -0.0819  0.1275
 6223SOL    HW130647   6.111   4.779   8.257 -3.0998  0.1256 -0.7493
 6223SOL    HW230648   6.168   4.715   8.132 -1.9688 -0.3795  0.0060
 6224SOL     OW30649   9.517   0.624  10.257  0.3032 -0.2974  0.0873
 6224SOL    HW130650   9.587   0.684  10.281 -0.0317 -0.4810  1.5867
 6224SOL    HW230651   9.527   0.550  10.316 -1.3147 -0.2037  0.5301
 6225SOL     OW30652   4.609   1.263   0.343 -0.1375  0.0544 -0.1925
 6225SOL    HW130653   4.567   1.187   0.303  3.1228 -1.4821 -1.0051
 6225SOL    HW230654   4.621   1.237   0.435 -1.1303  0.5778  0.0887
 6226SOL     OW30655  10.154   5.978   2.368  0.1188 -0.4372 -0.3982
 6226SOL    HW130656  10.182   5.984   2.277  1.4524  3.5635  0.0816
 6226SOL    HW230657  10.234   5.992   2.419 -0.9211 -0.4832  1.3321
 6227SOL     OW30658   3.360   1.213   1.734 -0.0282 -0.4126 -0.4812
 6227SOL    HW130659   3.366   1.272   1.809 -0.8946 -2.6970  1.5188
 6227SOL    HW230660   3.267   1.217   1.709 -0.4354 -1.9483  0.6377
 6228SOL     OW30661   7.669   2.413   4.177 -0.3380  0.6449 -0.6026
 6228SOL    HW130662   7.675   2.376   4.088 -1.3683  0.8358 -0.7555
 6228SOL    HW230663   7.577   2.433   4.189 -0.2740  0.2658  0.6695
 6229SOL     OW30664   7.175   6.877   4.125 -0.2593  0.1455 -0.1431
 6229SOL    HW130665   7.162   6.972   4.125 -0.1574  0.1848  1.2080
 6229SOL    HW230666   7.099   6.842   4.077 -0.0516  0.9242 -1.0552
 6230SOL     OW30667   8.593   1.542   0.073 -0.0329 -0.0036  0.1555
 6230SOL    HW130668   8.519   1.561   0.016 -0.6387 -0.5618  0.7358
 6230SOL    HW230669   8.663   1.598   0.040  0.5082 -2.1840 -2.8810
 6231SOL     OW30670   7.989   8.798   8.833 -0.2354  0.5405  0.3359
 6231SOL    HW130671   7.960   8.707   8.839  0.6807  0.2714  0.9687
 6231SOL    HW230672   8.069   8.794   8.779  0.0663  0.8952  0.7517
 6232SOL     OW30673   7.846   9.640   1.610 -0.3090  0.3081 -0.4374
 6232SOL    HW130674   7.793   9.675   1.682  1.7228  0.7579  0.9157
 6232SOL    HW230675   7.812   9.551   1.597 -0.2861 -0.0554  1.5882
 6233SOL     OW30676   3.219   9.877   7.552  0.2604  0.0415  0.9881
 6233SOL    HW130677   3.312   9.895   7.563  0.3042 -0.1481  0.9435
 6233SOL    HW230678   3.185   9.869   7.641  0.3903 -0.3922  1.0025
 6234SOL     OW30679   2.713   9.689   2.192  0.7627 -0.2455 -0.2144
 6234SOL    HW130680   2.778   9.619   2.194  0.6791 -0.3011  1.0593
 6234SOL    HW230681   2.696   9.709   2.284  0.3697  1.0650 -0.5501
 6235SOL     OW30682   4.759   0.342   6.121 -0.6504  0.2957  0.5050
 6235SOL    HW130683   4.740   0.385   6.204 -1.0288  0.3240  0.4052
 6235SOL    HW230684   4.744   0.409   6.055 -1.4239 -0.0342  0.3363
 6236SOL     OW30685   7.257   7.804   8.804  0.6698 -0.1187  0.4412
 6236SOL    HW130686   7.319   7.865   8.764 -0.4176 -0.0397 -1.1928
 6236SOL    HW230687   7.177   7.855   8.815  0.5815 -0.4850  1.6824
 6237SOL     OW30688   1.806   7.229   8.502  0.0397 -0.0915 -0.4754
 6237SOL    HW130689   1.713   7.212   8.484  0.7337 -1.4005 -3.5087
 6237SOL    HW230690   1.847   7.143   8.498  1.5772  0.6187 -0.6255
 6238SOL     OW30691   9.477   1.219  10.191  0.3725  0.2808  0.4241
 6238SOL    HW130692   9.511   1.292  10.242 -1.4330  0.5979  1.2633
 6238SOL    HW230693   9.471   1.147  10.253 -0.9251  0.3892  0.4570
 6239SOL     OW30694   8.800   6.423   6.460  0.1238 -0.3221 -0.1397
 6239SOL    HW130695   8.790   6.349   6.401 -0.2145 -0.6162  0.2824
 6239SOL    HW230696   8.845   6.387   6.537  0.6904  0.0865 -0.2696
 6240SOL     OW30697   8.928   5.929   5.298  0.1107  0.3191  0.3024
 6240SOL    HW130698   8.846   5.905   5.341  0.1881 -0.1119  0.2170
 6240SOL    HW230699   8.916   5.903   5.207  0.0239  1.0407  0.0994
 6241SOL     OW30700   7.524   4.225   1.912  0.2988 -0.3790 -0.2921
 6241SOL    HW130701   7.604   4.248   1.865  1.4785  1.1964  2.2368
 6241SOL    HW230702   7.521   4.129   1.908  1.9457 -0.4369 -1.0080
 6242SOL     OW30703   2.040   5.937   8.624  0.5519  0.0045 -0.1366
 6242SOL    HW130704   2.024   6.008   8.687  0.4794  0.4225 -0.6141
 6242SOL    HW230705   2.064   5.983   8.543  2.9843 -0.5423  0.1905
 6243SOL     OW30706   2.976   7.064   1.334  0.1048  0.5512 -0.5307
 6243SOL    HW130707   2.885   7.039   1.314  0.0662  0.1259  0.1241
 6243SOL    HW230708   2.997   7.132   1.271 -0.5669  0.4271 -0.8984
 6244SOL     OW30709   7.985   0.337   2.799 -0.0106  0.4684  0.1643
 6244SOL    HW130710   7.985   0.370   2.709 -2.1602  0.6964  0.1950
 6244SOL    HW230711   8.045   0.263   2.797  1.6738  1.7622 -0.9041
 6245SOL     OW30712   8.568   8.603   8.921 -0.0401  0.1277 -0.0155
 6245SOL    HW130713   8.607   8.686   8.948  2.2152 -0.1785 -1.9787
 6245SOL    HW230714   8.637   8.538   8.936 -0.4620 -0.7892 -1.8112
 6246SOL     OW30715   0.034   7.763   8.643  0.1729 -0.6372  0.1910
 6246SOL    HW130716   0.087   7.803   8.712  0.6767 -2.1572  0.7433
 6246SOL    HW230717   0.052   7.815   8.565  3.8673 -2.0172 -0.0672
 6247SOL     OW30718   1.439   4.167   0.419 -0.1716  0.0103 -0.0201
 6247SOL    HW130719   1.394   4.219   0.352 -0.6751  1.5459  1.4110
 6247SOL    HW230720   1.371   4.110   0.454  0.5333 -2.2052 -2.0397
 6248SOL     OW30721   8.157   7.537   7.869 -0.4515 -0.6149 -0.1555
 6248SOL    HW130722   8.252   7.526   7.878  0.0560  1.7228 -1.6113
 6248SOL    HW230723   8.129   7.572   7.953 -0.0595 -1.3620  0.3031
 6249SOL     OW30724  10.139   6.044   2.099 -0.2126  0.4868 -0.2008
 6249SOL    HW130725  10.094   5.965   2.069  0.3996  0.1720 -0.3122
 6249SOL    HW230726  10.151   6.096   2.019  2.1707 -0.7301 -0.7117
 6250SOL     OW30727   7.661   0.729   7.040 -0.6983 -0.0604 -0.3098
 6250SOL    HW130728   7.634   0.746   6.949  1.2521 -1.9659 -1.3175
 6250SOL    HW230729   7.736   0.671   7.032  0.4421  0.8830  2.5159
 6251SOL     OW30730   4.742   3.578   7.289 -0.3255 -0.5473  1.1502
 6251SOL    HW130731   4.716   3.651   7.345  1.5918  1.2042 -0.0935
 6251SOL    HW230732   4.831   3.557   7.317  0.3587 -0.2015 -0.6327
 6252SOL     OW30733   5.102   1.567   0.316 -0.0048 -0.3336 -0.0020
 6252SOL    HW130734   5.176   1.511   0.291 -0.6389 -1.9101  1.4634
 6252SOL    HW230735   5.059   1.589   0.233  0.6871 -1.4155 -0.6773
 6253SOL     OW30736   4.148   3.346   7.252  0.1158  0.0715  0.9024
 6253SOL    HW130737   4.059   3.332   7.285  0.1932 -1.2604  0.6179
 6253SOL    HW230738   4.191   3.261   7.263  0.2896 -0.3311 -2.1407
 6254SOL     OW30739   1.264  10.214   9.236  0.6114  0.4215 -0.3392
 6254SOL    HW130740   1.259  10.289   9.297  0.6564  1.6286 -1.7725
 6254SOL    HW230741   1.209  10.240   9.162  0.6463 -0.9832 -0.8847
 6255SOL     OW30742   3.453   0.490   4.197  0.5441 -0.4523 -1.0389
 6255SOL    HW130743   3.499   0.550   4.137  1.4087 -0.5117 -0.4552
 6255SOL    HW230744   3.437   0.543   4.275  0.3129 -0.6678 -0.9406
 6256SOL     OW30745   3.499  10.286  10.000 -0.1989 -0.1896 -0.2038
 6256SOL    HW130746   3.409  10.306  10.023  0.4842  0.7896  1.8584
 6256SOL    HW230747   3.542  10.267  10.083  2.2822  2.8263 -0.5700
 6257SOL     OW30748   3.641   3.087   8.743  0.3041 -0.2762 -0.2384
 6257SOL    HW130749   3.686   3.112   8.662  2.4395  0.6391  1.1280
 6257SOL    HW230750   3.565   3.144   8.747  0.5322  0.1266 -1.2913
 6258SOL     OW30751   7.097   9.625   6.309 -0.4626 -0.3564  0.4170
 6258SOL    HW130752   7.029   9.667   6.361 -1.8635 -0.1862 -1.4838
 6258SOL    HW230753   7.114   9.685   6.237 -1.0639 -2.0990 -1.2390
 6259SOL     OW30754   6.178   3.381   5.170 -0.4705  0.4887  0.0915
 6259SOL    HW130755   6.161   3.452   5.232 -1.2451  0.4398 -0.0452
 6259SOL    HW230756   6.116   3.397   5.098 -1.0554 -0.6290  0.3171
 6260SOL     OW30757   0.290   5.165   0.051 -0.6237 -0.8950  0.9957
 6260SOL    HW130758   0.261   5.189  -0.037 -1.9782 -1.9756  1.1234
 6260SOL    HW230759   0.213   5.128   0.093 -0.3792  0.8315  3.1422
 6261SOL     OW30760   0.596   9.875   2.869  0.3552 -0.1295  0.1015
 6261SOL    HW130761   0.670   9.862   2.810  0.4299 -0.3813  0.2500
 6261SOL    HW230762   0.596   9.798   2.925 -0.7950 -0.7639 -0.7255
 6262SOL     OW30763   2.406   4.421   0.766 -0.1874 -0.3248 -0.4711
 6262SOL    HW130764   2.470   4.351   0.780 -0.4350 -0.6906 -1.1205
 6262SOL    HW230765   2.323   4.385   0.797  0.1964  0.8274  2.2045
 6263SOL     OW30766   5.748   1.227   8.330  0.7488 -0.2850 -0.1316
 6263SOL    HW130767   5.723   1.218   8.238  0.5487  0.1721 -0.1282
 6263SOL    HW230768   5.756   1.321   8.343 -0.5252 -0.2559  0.6470
 6264SOL     OW30769   3.038   6.927   7.288  0.1238 -0.0992  0.1279
 6264SOL    HW130770   3.021   6.914   7.194  0.1297  0.0421  0.1072
 6264SOL    HW230771   3.058   6.839   7.321 -1.6299 -0.4607  0.3609
 6265SOL     OW30772   7.783   0.307   1.065  0.5186  0.3532  0.2598
 6265SOL    HW130773   7.744   0.391   1.042 -1.2600 -0.3627  0.5194
 6265SOL    HW230774   7.727   0.242   1.024  0.0556 -0.8034  2.5270
 6266SOL     OW30775   7.201   7.077   9.341  0.2654  0.2727  0.2852
 6266SOL    HW130776   7.296   7.080   9.327 -0.1431  0.3668 -3.8988
 6266SOL    HW230777   7.176   7.168   9.355  0.6477  0.5521 -0.7076
 6267SOL     OW30778   2.043   0.834   4.223 -0.6916 -0.4503  0.3886
 6267SOL    HW130779   2.024   0.928   4.212  0.2907 -0.0875  1.5308
 6267SOL    HW230780   1.978   0.805   4.287 -0.3022 -0.2797  0.8675
 6268SOL     OW30781   9.360   6.628  10.079 -0.8670  0.0896 -0.0777
 6268SOL    HW130782   9.381   6.613   9.987  0.0393  0.9066 -0.0159
 6268SOL    HW230783   9.351   6.723  10.087  0.9053  0.2054  1.0250
 6269SOL     OW30784   8.859   1.108   9.251 -0.0561 -0.4878  0.3871
 6269SOL    HW130785   8.946   1.085   9.283 -0.0005  0.2619  0.8023
 6269SOL    HW230786   8.825   1.027   9.213  0.7777 -0.8143  0.3145
 6270SOL     OW30787   1.878   7.244   7.735  0.3535  0.2737  0.7120
 6270SOL    HW130788   1.956   7.259   7.789 -1.5517  0.3958  3.6551
 6270SOL    HW230789   1.808   7.288   7.783 -1.5551  0.2039 -1.8522
 6271SOL     OW30790   5.807   5.023   3.415 -0.6208  0.1535 -0.0778
 6271SOL    HW130791   5.862   4.953   3.451  2.3828  1.9710 -0.7530
 6271SOL    HW230792   5.807   5.090   3.483 -1.8882  0.2992 -0.1975
 6272SOL     OW30793   4.868   7.499   2.876 -0.2573 -0.0435 -0.3626
 6272SOL    HW130794   4.936   7.483   2.810  0.0134 -0.4944  0.0109
 6272SOL    HW230795   4.793   7.447   2.847  0.0948 -0.7939  0.0317
 6273SOL     OW30796   7.718   0.599   0.020 -0.0204  0.0999 -0.1546
 6273SOL    HW130797   7.684   0.648  -0.054  0.0613  0.4135  0.0125
 6273SOL    HW230798   7.807   0.576  -0.005 -0.9275 -2.4421 -1.4365
 6274SOL     OW30799   2.437   0.651   3.698  0.1797  0.0119 -0.0685
 6274SOL    HW130800   2.500   0.583   3.677 -0.5792 -0.7301  0.0191
 6274SOL    HW230801   2.445   0.662   3.793  0.0265 -0.2336 -0.0271
 6275SOL     OW30802   5.217   8.519   0.483  0.4455 -0.7240  0.1787
 6275SOL    HW130803   5.147   8.582   0.506 -0.6652 -1.4262 -1.1532
 6275SOL    HW230804   5.297   8.560   0.515 -0.4587  0.5592  0.9028
 6276SOL     OW30805  10.018   8.177   9.500 -0.4551  0.3863 -0.0043
 6276SOL    HW130806   9.935   8.130   9.495 -1.3830  2.0204 -1.2773
 6276SOL    HW230807  10.057   8.149   9.583 -2.3212 -0.3666  0.6710
 6277SOL     OW30808   3.839   2.990   7.290 -0.2332  0.5363 -0.0710
 6277SOL    HW130809   3.912   2.935   7.261  1.2086  3.4041 -2.3671
 6277SOL    HW230810   3.875   3.041   7.363 -1.4755 -1.1911  1.8602
 6278SOL     OW30811   3.583   4.585   1.338  0.0399 -0.0542  0.4646
 6278SOL    HW130812   3.531   4.511   1.306  0.7353 -0.1112 -0.5746
 6278SOL    HW230813   3.518   4.646   1.374 -0.8349  0.1842 -1.4081
 6279SOL     OW30814   6.453   9.106   6.779 -0.2040  0.3595 -0.1190
 6279SOL    HW130815   6.529   9.049   6.768 -1.0531 -0.6400 -1.0348
 6279SOL    HW230816   6.410   9.073   6.859 -0.1089  0.4175 -0.0437
 6280SOL     OW30817   8.173   1.989   3.586  0.1705 -0.0787  0.8794
 6280SOL    HW130818   8.235   2.061   3.571  1.5856 -1.2376  0.9110
 6280SOL    HW230819   8.153   1.993   3.679  1.4068 -0.5863  1.1916
 6281SOL     OW30820   6.953  10.181   4.232  0.2910 -0.1852 -0.0679
 6281SOL    HW130821   7.008  10.122   4.180  0.0925 -0.2237 -0.2368
 6281SOL    HW230822   6.907  10.123   4.293  0.9761 -0.0755  0.5686
 6282SOL     OW30823   8.301   3.734   8.725  0.2810  0.5909 -0.0583
 6282SOL    HW130824   8.235   3.693   8.781 -0.4512 -1.3475 -2.1741
 6282SOL    HW230825   8.385   3.716   8.769 -0.1982 -1.5587  0.0799
 6283SOL     OW30826   9.806   2.536   5.327 -0.3696  0.0087 -0.1511
 6283SOL    HW130827   9.717   2.557   5.355 -0.1995  2.5009 -1.2127
 6283SOL    HW230828   9.836   2.615   5.282  2.5284 -0.6228  0.4909
 6284SOL     OW30829   1.516  10.370   3.071 -0.1337 -0.3141 -0.0512
 6284SOL    HW130830   1.442  10.430   3.074  0.0166 -0.1612  1.6747
 6284SOL    HW230831   1.478  10.288   3.039 -0.9205 -0.0514  0.1682
 6285SOL     OW30832   5.131   7.536   6.107 -0.3813 -0.2686  0.1379
 6285SOL    HW130833   5.136   7.466   6.042 -0.7350  1.1063 -1.4361
 6285SOL    HW230834   5.179   7.502   6.183  2.5483 -0.8889 -1.8252
 6286SOL     OW30835   9.797   0.469   9.331  0.3338  0.4063  0.0405
 6286SOL    HW130836   9.852   0.409   9.382 -0.1075 -0.9478 -0.9975
 6286SOL    HW230837   9.849   0.488   9.252  0.5187  1.5193  0.4130
 6287SOL     OW30838   1.067   6.441   1.489  0.3575  0.4141 -0.3390
 6287SOL    HW130839   1.146   6.390   1.471  0.3669  0.2150  0.2301
 6287SOL    HW230840   1.058   6.499   1.413  1.5079  1.0027 -0.0574
 6288SOL     OW30841   3.643   9.046   6.096 -0.5582 -0.1696 -0.1325
 6288SOL    HW130842   3.659   9.130   6.053  1.1017 -0.4931 -0.2180
 6288SOL    HW230843   3.632   8.984   6.025  0.4197 -0.3996 -0.0863
 6289SOL     OW30844   5.658   5.131   8.972 -0.2450 -0.2851  0.1975
 6289SOL    HW130845   5.626   5.221   8.977 -0.3648 -0.2626 -0.6710
 6289SOL    HW230846   5.719   5.132   8.898 -0.7114 -1.0463 -0.2176
 6290SOL     OW30847   9.163   7.688   5.673  1.1667 -0.6031  0.2143
 6290SOL    HW130848   9.176   7.679   5.767 -0.6063 -1.7382  0.3848
 6290SOL    HW230849   9.068   7.693   5.662  1.3507 -0.3693 -1.5150
 6291SOL     OW30850   8.655   5.585   4.953 -0.0798  0.1714 -0.7379
 6291SOL    HW130851   8.690   5.496   4.960 -3.6552 -1.3824 -0.5900
 6291SOL    HW230852   8.652   5.602   4.859  0.9266  0.3437 -0.7565
 6292SOL     OW30853   0.046   7.655   6.851  0.2792 -0.4340  0.2536
 6292SOL    HW130854   0.062   7.743   6.818  2.7141 -0.9029  0.0112
 6292SOL    HW230855   0.042   7.600   6.773 -0.5234 -0.6759  0.4461
 6293SOL     OW30856   6.378   2.182   4.377 -0.1985  0.3373 -0.3421
 6293SOL    HW130857   6.386   2.130   4.457  0.2757  0.9520  0.0239
 6293SOL    HW230858   6.466   2.182   4.339 -0.0556  1.3035 -0.0473
 6294SOL     OW30859   0.190   5.962   9.226 -0.2660 -1.0115 -0.0898
 6294SOL    HW130860   0.227   6.040   9.183 -0.0221 -1.2411 -0.3001
 6294SOL    HW230861   0.167   5.904   9.154 -0.0247 -1.3243  0.0856
 6295SOL     OW30862   6.174   9.574   2.107  0.1962  0.3322 -0.2396
 6295SOL    HW130863   6.110   9.572   2.035 -0.4016 -4.4748  0.1092
 6295SOL    HW230864   6.121   9.565   2.186  0.9949  3.5776  0.7932
 6296SOL     OW30865   6.702   7.811   0.393 -0.1253  0.3356  0.8301
 6296SOL    HW130866   6.619   7.812   0.345 -0.3249  0.7851  1.1803
 6296SOL    HW230867   6.750   7.737   0.356 -0.5890  0.2124  0.4665
 6297SOL     OW30868   1.885   4.571   9.227 -0.2330  0.8003  0.1982
 6297SOL    HW130869   1.952   4.580   9.160  1.7429  0.5536  2.0335
 6297SOL    HW230870   1.876   4.660   9.263 -0.0546  0.6245  0.6881
 6298SOL     OW30871   5.187   4.474   2.854 -0.1981 -0.7078 -0.6535
 6298SOL    HW130872   5.117   4.413   2.833 -0.3574  0.0344 -2.4365
 6298SOL    HW230873   5.149   4.561   2.839  0.5764 -0.2331  0.0488
 6299SOL     OW30874   1.937   1.573   7.747  0.1928  0.2127  0.0489
 6299SOL    HW130875   1.987   1.492   7.745 -0.1969 -0.0198 -1.5386
 6299SOL    HW230876   1.846   1.545   7.754  0.1000  0.5472  0.2216
 6300SOL     OW30877   3.018   4.079   7.271 -0.0536 -0.3368  0.6958
 6300SOL    HW130878   3.070   4.159   7.278 -1.7569  1.0238 -1.0652
 6300SOL    HW230879   3.060   4.029   7.202 -0.1351  0.0142  0.3863
 6301SOL     OW30880   9.879   4.640   0.981  1.2089 -0.1969 -0.0149
 6301SOL    HW130881   9.903   4.731   0.967 -3.1360  1.2173  0.2970
 6301SOL    HW230882   9.838   4.612   0.899 -0.0963 -0.8500  0.8248
 6302SOL     OW30883   3.354   5.676   3.838 -0.6632  0.5124  0.7416
 6302SOL    HW130884   3.325   5.674   3.929 -0.4017 -0.0971  0.8179
 6302SOL    HW230885   3.446   5.700   3.843 -0.0227 -1.7399  0.8262
 6303SOL     OW30886   6.941   6.625   9.358  0.6162  0.2139 -0.3530
 6303SOL    HW130887   6.927   6.621   9.453 -2.1158  0.0721 -0.6778
 6303SOL    HW230888   6.970   6.715   9.342 -0.1375  0.6352  0.5107
 6304SOL     OW30889   0.088   9.269   2.743  0.1150  0.0830  0.2871
 6304SOL    HW130890   0.038   9.299   2.819  0.8334  0.5584  0.5826
 6304SOL    HW230891   0.131   9.348   2.710  0.4783 -0.2719 -0.1059
 6305SOL     OW30892   5.604   9.147   4.570  0.3054 -0.2104  0.5366
 6305SOL    HW130893   5.665   9.211   4.535  3.0546 -1.5776  2.4620
 6305SOL    HW230894   5.653   9.065   4.571 -2.2563 -1.8597  0.4340
 6306SOL     OW30895   8.924   9.052  10.148 -0.6298  0.1415  0.0316
 6306SOL    HW130896   8.950   9.135  10.187 -2.7155  1.5137 -1.3392
 6306SOL    HW230897   8.999   9.027  10.093 -0.3432  1.6187 -0.2884
 6307SOL     OW30898   9.053   7.854   9.978  0.3061  0.8113 -0.1964
 6307SOL    HW130899   9.040   7.829  10.070  0.3352 -0.9328 -0.6349
 6307SOL    HW230900   8.986   7.805   9.931  1.4770  0.2416 -1.3070
 6308SOL     OW30901   1.307   8.379   2.901  0.1827  0.2006 -0.1187
 6308SOL    HW130902   1.400   8.402   2.908 -0.0029  0.9269  0.0206
 6308SOL    HW230903   1.297   8.302   2.957  0.4737  0.8005  0.7716
 6309SOL     OW30904   8.746   3.073   7.318 -0.3290 -0.0400 -0.8010
 6309SOL    HW130905   8.829   3.027   7.331  0.4811  1.8900  1.4942
 6309SOL    HW230906   8.679   3.006   7.333  0.8007 -1.1745 -0.6465
 6310SOL     OW30907   3.809   3.257   4.252  0.9586 -0.0802 -0.3143
 6310SOL    HW130908   3.878   3.322   4.267  0.8926 -0.4300  1.9844
 6310SOL    HW230909   3.728   3.304   4.271  0.6212  0.0527 -2.0032
 6311SOL     OW30910   6.689   5.461   7.528  0.2042 -0.4363  0.5875
 6311SOL    HW130911   6.640   5.382   7.550  0.0925 -0.0173  1.9623
 6311SOL    HW230912   6.747   5.475   7.603  1.8119 -0.4245 -0.6000
 6312SOL     OW30913   7.929   8.826   2.848  0.2667 -0.3274 -0.6911
 6312SOL    HW130914   7.985   8.800   2.776  0.8958 -1.7676  0.2700
 6312SOL    HW230915   7.845   8.848   2.807  1.7840  3.1619 -2.3059
 6313SOL     OW30916   5.717   6.941   8.177 -0.9933  0.5952 -0.5791
 6313SOL    HW130917   5.704   6.871   8.241  0.5348  1.3259  0.5736
 6313SOL    HW230918   5.640   6.997   8.187 -0.0098  1.6371  1.9158
 6314SOL     OW30919   2.517   6.169   4.441 -0.2035  0.1618 -0.2600
 6314SOL    HW130920   2.593   6.198   4.490 -0.4926  1.8946 -0.7871
 6314SOL    HW230921   2.518   6.073   4.450  0.9115  0.2850  1.3564
 6315SOL     OW30922   9.320   5.151   6.817  0.0017 -0.0664 -0.2901
 6315SOL    HW130923   9.383   5.155   6.888  0.3738 -0.9479 -0.5590
 6315SOL    HW230924   9.328   5.235   6.773  0.5905  0.0397  0.0120
 6316SOL     OW30925   2.272   9.410   0.173  0.0686  0.5713 -0.6893
 6316SOL    HW130926   2.206   9.460   0.222  1.9707  2.9929 -0.3609
 6316SOL    HW230927   2.314   9.355   0.239 -1.6616 -1.1369 -0.9372
 6317SOL     OW30928   7.184   0.565   3.191 -0.0709  0.1009  0.1313
 6317SOL    HW130929   7.277   0.570   3.213  0.2975 -3.3504 -0.1128
 6317SOL    HW230930   7.179   0.597   3.101  1.6302 -3.0175 -1.2295
 6318SOL     OW30931   9.338   0.274   3.863 -0.4714  0.2526 -0.2006
 6318SOL    HW130932   9.375   0.311   3.943  2.7626 -1.6888 -0.6505
 6318SOL    HW230933   9.309   0.186   3.889  0.3485 -0.2891 -1.0731
 6319SOL     OW30934  10.298   7.030   7.338  0.3095  0.0055  0.2562
 6319SOL    HW130935  10.215   7.028   7.385  0.4723  1.0039  0.6073
 6319SOL    HW230936  10.282   6.981   7.258 -0.5618  0.0281  0.4144
 6320SOL     OW30937   7.869   6.911   9.356  0.8093 -0.0155 -0.2585
 6320SOL    HW130938   7.911   6.975   9.413 -1.2286  0.5591  0.6868
 6320SOL    HW230939   7.816   6.857   9.415  0.3620 -0.8292 -1.3625
 6321SOL     OW30940   7.533   3.823   3.253  0.1226  0.1743 -0.2220
 6321SOL    HW130941   7.459   3.882   3.244 -2.1682 -1.7508  3.4925
 6321SOL    HW230942   7.590   3.866   3.317  0.8217  0.3612 -0.9529
 6322SOL     OW30943   8.085   7.397   5.070  0.1002  0.2073 -0.0253
 6322SOL    HW130944   8.099   7.304   5.053 -1.0956 -0.1214  0.6383
 6322SOL    HW230945   7.991   7.403   5.091  0.3300  1.4227  0.7466
 6323SOL     OW30946   6.565   1.438   1.032 -0.9471 -0.1460  0.5978
 6323SOL    HW130947   6.533   1.468   0.947 -0.7783  0.6997  0.8246
 6323SOL    HW230948   6.620   1.362   1.012  0.9811  1.3942 -0.3068
 6324SOL     OW30949   9.291   8.161   6.796 -0.3430 -0.1756  0.0670
 6324SOL    HW130950   9.289   8.233   6.733  1.6378  0.3271  0.4877
 6324SOL    HW230951   9.369   8.110   6.771 -0.2294 -0.6757  1.3439
 6325SOL     OW30952   1.004   1.991   5.540  0.4554 -0.5111 -0.0495
 6325SOL    HW130953   0.936   2.044   5.583  1.0986 -0.7550  1.3097
 6325SOL    HW230954   1.080   2.049   5.537  0.2772 -0.3172 -1.3697
 6326SOL     OW30955   6.359   0.020   4.584  0.3523 -0.1861 -0.0030
 6326SOL    HW130956   6.421  -0.044   4.617  1.0455 -0.6575 -2.0492
 6326SOL    HW230957   6.284  -0.032   4.553 -0.0080  0.1714  0.2493
 6327SOL     OW30958   9.100   7.475   6.657  0.2186  0.1702  0.2467
 6327SOL    HW130959   9.147   7.418   6.596  1.0670 -0.5694  1.5402
 6327SOL    HW230960   9.168   7.528   6.699 -0.5643  2.4227 -1.1222
 6328SOL     OW30961   4.864   8.348   2.081 -0.0275 -0.5848  0.2082
 6328SOL    HW130962   4.825   8.420   2.032  0.4959 -0.9465 -0.7726
 6328SOL    HW230963   4.892   8.285   2.014  0.4637 -1.2198  0.9840
 6329SOL     OW30964   9.098  10.096   6.325  0.0958 -0.4564  0.5796
 6329SOL    HW130965   9.084  10.149   6.246 -0.3079 -1.1261  0.1911
 6329SOL    HW230966   9.115  10.160   6.394 -0.9645  0.2112  0.2432
 6330SOL     OW30967   4.573   0.700   2.331  0.2360  0.1068  0.5406
 6330SOL    HW130968   4.588   0.703   2.237  1.1139  0.5556  0.6922
 6330SOL    HW230969   4.512   0.627   2.343  1.8051 -1.3909 -0.1581
 6331SOL     OW30970   6.698   3.630   1.692 -0.6733  0.1461 -0.8516
 6331SOL    HW130971   6.611   3.669   1.699 -1.0494 -0.5729 -1.3921
 6331SOL    HW230972   6.703   3.571   1.767 -0.0219  1.3550  0.0880
 6332SOL     OW30973   6.173   7.871   8.500  0.4734  0.3089  0.3952
 6332SOL    HW130974   6.094   7.863   8.446 -0.8175 -0.3874  2.2951
 6332SOL    HW230975   6.239   7.821   8.453  0.1698  1.8381 -1.8218
 6333SOL     OW30976   1.123   5.635   5.920 -0.1715 -0.4272 -0.0408
 6333SOL    HW130977   1.045   5.656   5.868  1.4675 -0.6007 -2.7436
 6333SOL    HW230978   1.146   5.546   5.893  1.8998  0.2369 -0.5956
 6334SOL     OW30979   6.238   8.546   1.878 -0.2384  0.1189  0.2753
 6334SOL    HW130980   6.199   8.510   1.957  1.9874 -1.4964  0.7249
 6334SOL    HW230981   6.175   8.524   1.809 -0.2355 -2.3739  0.9578
 6335SOL     OW30982   0.738   6.313   7.141  0.2081 -0.3497 -0.0852
 6335SOL    HW130983   0.799   6.310   7.067  0.7106  0.6298  0.2562
 6335SOL    HW230984   0.665   6.367   7.110 -0.3438 -1.2449 -0.3813
 6336SOL     OW30985   3.324   3.262   1.213 -0.1077 -0.3937  0.2580
 6336SOL    HW130986   3.295   3.354   1.219 -0.4368 -0.5306  0.8102
 6336SOL    HW230987   3.320   3.230   1.303 -0.6603 -1.1490 -0.0296
 6337SOL     OW30988   4.145   1.744   9.284 -0.5924 -0.4153  0.1707
 6337SOL    HW130989   4.103   1.663   9.257  0.4092 -0.8874  0.0075
 6337SOL    HW230990   4.075   1.810   9.280 -1.6250 -1.4172  1.1271
 6338SOL     OW30991   4.447   0.800   4.404  0.0689 -0.2589 -0.3582
 6338SOL    HW130992   4.431   0.894   4.409 -0.7288 -0.4724  2.0441
 6338SOL    HW230993   4.374   0.765   4.353 -0.4563  0.2395  0.0510
 6339SOL     OW30994   4.898   7.090   7.070  0.0155 -0.5214  0.2536
 6339SOL    HW130995   4.963   7.053   7.010 -1.5541 -1.6959 -0.7973
 6339SOL    HW230996   4.875   7.017   7.128  1.6169  0.6244  2.4730
 6340SOL     OW30997   0.900   3.080  10.289  0.4537  0.8357 -0.3677
 6340SOL    HW130998   0.853   3.044  10.364  1.3883 -0.3058 -0.2838
 6340SOL    HW230999   0.934   3.164  10.319  2.5593 -0.4819  1.2677
 6341SOL     OW31000   6.498   7.989   9.620 -0.3271 -0.3304  0.1565
 6341SOL    HW131001   6.510   7.913   9.563 -1.7590 -0.7075  0.3229
 6341SOL    HW231002   6.531   8.063   9.569 -0.5684 -0.8228 -0.7251
 6342SOL     OW31003   8.297   1.181   4.892 -0.1894  0.2399 -0.2460
 6342SOL    HW131004   8.234   1.108   4.894  0.8529 -0.6797 -0.0359
 6342SOL    HW231005   8.376   1.144   4.853  0.2589  1.3577 -0.4348
 6343SOL     OW31006   3.838   7.894  10.255  0.3760  0.6693  0.6535
 6343SOL    HW131007   3.759   7.936  10.290 -0.6003  0.2014 -0.9153
 6343SOL    HW231008   3.842   7.923  10.164  1.1485 -0.5460  0.2821
 6344SOL     OW31009   9.899   5.245   7.456  0.7148  0.2772  0.5953
 6344SOL    HW131010   9.885   5.178   7.523  1.4475 -1.4875 -0.9089
 6344SOL    HW231011   9.811   5.259   7.419  0.5047  0.3652  1.1210
 6345SOL     OW31012   9.116   8.873   0.013  0.2551  0.2769 -0.8231
 6345SOL    HW131013   9.057   8.867   0.088  1.3186  0.6712  0.0781
 6345SOL    HW231014   9.130   8.967   0.001  1.6550  0.1756 -0.2185
 6346SOL     OW31015   7.788   0.801   4.271 -0.2669  0.6278 -0.5113
 6346SOL    HW131016   7.785   0.788   4.176  0.6912  0.5338 -0.5446
 6346SOL    HW231017   7.751   0.888   4.284 -0.7525  0.4912 -0.9285
 6347SOL     OW31018   0.752   6.931   8.393 -0.5815  0.5003 -0.4530
 6347SOL    HW131019   0.672   6.906   8.439 -2.4308  3.3332 -1.8727
 6347SOL    HW231020   0.724   6.947   8.303  2.0794 -0.5928 -1.6020
 6348SOL     OW31021   1.209  10.302   7.167 -0.0724 -0.0920 -0.4971
 6348SOL    HW131022   1.168  10.234   7.220 -0.3141  1.3515  1.2561
 6348SOL    HW231023   1.136  10.357   7.137  0.2807  0.7412  0.1109
 6349SOL     OW31024   8.867   8.766   7.269 -0.5764 -0.1427  0.4436
 6349SOL    HW131025   8.776   8.735   7.276 -0.6953 -0.3576 -1.4556
 6349SOL    HW231026   8.916   8.689   7.241 -0.5352  0.8032 -2.4122
 6350SOL     OW31027   7.944   8.801   2.303  0.3513 -0.2759  0.0431
 6350SOL    HW131028   7.955   8.736   2.235 -3.4733 -0.1453 -0.9197
 6350SOL    HW231029   7.985   8.880   2.268  1.7779 -1.1817 -0.3766
 6351SOL     OW31030   2.081  10.043   2.859 -0.3589  0.1056 -0.0749
 6351SOL    HW131031   2.165  10.061   2.817 -0.3550  1.9599  0.6109
 6351SOL    HW231032   2.103  10.033   2.952 -0.7373 -0.8206 -0.0760
 6352SOL     OW31033   2.942   5.258   6.103  0.0625 -0.0567  0.0022
 6352SOL    HW131034   2.883   5.291   6.171 -0.2597 -0.8964  0.1454
 6352SOL    HW231035   2.892   5.190   6.058  0.9315 -0.8596  0.1945
 6353SOL     OW31036   3.852   8.740   9.416 -0.4067  0.0213 -0.5265
 6353SOL    HW131037   3.766   8.761   9.380 -1.4247  0.6573  2.0718
 6353SOL    HW231038   3.901   8.822   9.413 -0.2820 -0.0642 -0.9265
 6354SOL     OW31039   0.775   3.221   4.266 -0.0933 -0.4072 -0.0589
 6354SOL    HW131040   0.696   3.196   4.217  0.2370 -1.2055 -0.1907
 6354SOL    HW231041   0.794   3.144   4.320  0.0795  0.1229  0.6393
 6355SOL     OW31042   4.505   0.531   5.411  0.0687  0.2008  0.3690
 6355SOL    HW131043   4.421   0.565   5.380 -0.4660  1.1612  2.7178
 6355SOL    HW231044   4.483   0.446   5.449  0.6054 -0.6283 -1.0683
 6356SOL     OW31045   5.287   0.341   7.698 -0.0825  0.3257  0.2166
 6356SOL    HW131046   5.220   0.323   7.632  1.1680 -0.6173 -0.8511
 6356SOL    HW231047   5.240   0.339   7.781 -1.5647  0.7853 -0.5749
 6357SOL     OW31048   5.092   3.578   5.245  0.5528 -0.3106 -0.1985
 6357SOL    HW131049   5.160   3.574   5.313  0.4463 -1.1548 -0.1317
 6357SOL    HW231050   5.124   3.644   5.184  1.1392 -0.2586  0.1503
 6358SOL     OW31051   7.057   3.282   3.291  0.1692 -0.3356 -0.2834
 6358SOL    HW131052   7.018   3.217   3.232  2.2720 -2.1798  0.2426
 6358SOL    HW231053   7.110   3.231   3.352 -0.3215  1.6803  1.9809
 6359SOL     OW31054  10.323   5.250   3.454 -0.4695 -0.4616 -0.8004
 6359SOL    HW131055  10.396   5.308   3.477  0.3900 -1.4827 -0.8965
 6359SOL    HW231056  10.363   5.165   3.439 -1.7558 -1.1926 -0.2859
 6360SOL     OW31057   8.938   8.726   9.737  0.3437  0.2138  0.4923
 6360SOL    HW131058   8.943   8.704   9.830 -4.9271 -1.2519  0.7141
 6360SOL    HW231059   8.888   8.807   9.733  0.4065  0.2178 -1.0816
 6361SOL     OW31060   3.505   6.265   6.157  0.3753  0.3005  0.1058
 6361SOL    HW131061   3.520   6.175   6.185  1.1078  1.0733  2.4154
 6361SOL    HW231062   3.413   6.268   6.132 -0.4795 -0.4395  2.8887
 6362SOL     OW31063   0.514   6.888   8.516  0.0577 -0.4928  0.5345
 6362SOL    HW131064   0.510   6.982   8.536  1.1685 -0.1156 -0.8293
 6362SOL    HW231065   0.439   6.850   8.561 -0.9399  1.2030  0.3587
 6363SOL     OW31066   9.313   9.011   4.427  0.0205  0.4570 -0.5263
 6363SOL    HW131067   9.282   9.050   4.508 -1.0230 -0.2243 -0.5780
 6363SOL    HW231068   9.388   9.064   4.401 -1.0634  2.1327 -0.3597
 6364SOL     OW31069   1.741   7.071   4.238  0.1464  0.2073 -0.0901
 6364SOL    HW131070   1.733   6.980   4.208 -0.4306  0.2540 -0.0805
 6364SOL    HW231071   1.832   7.094   4.219 -0.3074  0.4132 -2.3789
 6365SOL     OW31072  10.122   8.323   9.969 -0.2494 -0.0805 -0.3228
 6365SOL    HW131073  10.032   8.355   9.973  0.3032  1.8708 -1.9243
 6365SOL    HW231074  10.134   8.299   9.877  0.6129 -1.1897  0.0534
 6366SOL     OW31075   7.370   5.239   8.351 -0.3843  0.2306 -0.1097
 6366SOL    HW131076   7.371   5.334   8.358  1.0584  0.1547  1.5011
 6366SOL    HW231077   7.360   5.208   8.441  0.4712 -1.1281 -0.4421
 6367SOL     OW31078   5.813   3.650   6.084 -0.3489 -0.0169 -0.3647
 6367SOL    HW131079   5.896   3.603   6.082  0.2383  0.9087  0.8808
 6367SOL    HW231080   5.747   3.583   6.065  0.4821 -1.2864  1.0298
 6368SOL     OW31081   8.052   8.389   4.618  0.0749  0.5345  0.0507
 6368SOL    HW131082   8.073   8.482   4.630  1.6480  0.1433  0.4327
 6368SOL    HW231083   8.136   8.345   4.618 -0.6997 -1.0035  0.6328
 6369SOL     OW31084   2.027   9.216   4.118  0.2173 -0.1115 -0.0628
 6369SOL    HW131085   1.969   9.197   4.044 -0.7274  2.0376  0.0416
 6369SOL    HW231086   1.973   9.201   4.195 -0.5560  2.6314  0.0226
 6370SOL     OW31087   6.466   3.193   6.809 -0.2461  0.3265 -0.0491
 6370SOL    HW131088   6.530   3.181   6.738  0.3263 -0.4154  0.5762
 6370SOL    HW231089   6.401   3.253   6.772  1.1507  1.6463 -0.4825
 6371SOL     OW31090   8.228   0.307   0.662 -0.0637  0.1507 -0.2070
 6371SOL    HW131091   8.159   0.364   0.695 -0.6091 -0.2229 -0.6964
 6371SOL    HW231092   8.308   0.359   0.673 -0.4969  0.8524 -0.2683
 6372SOL     OW31093   1.554   9.794   0.184 -0.0078  0.4147  0.5701
 6372SOL    HW131094   1.483   9.758   0.131 -1.2218  3.4717 -0.1043
 6372SOL    HW231095   1.633   9.752   0.149 -1.1465 -0.5119 -1.0442
 6373SOL     OW31096   5.337   7.274   6.591  0.2576  0.1976  0.1773
 6373SOL    HW131097   5.301   7.335   6.656  0.9956  1.4296 -0.5336
 6373SOL    HW231098   5.430   7.266   6.614  1.0601  2.3518 -1.9245
 6374SOL     OW31099   9.642   3.602   2.316 -0.1104 -0.0128  0.2901
 6374SOL    HW131100   9.646   3.594   2.412 -0.6333  0.8454  0.4033
 6374SOL    HW231101   9.721   3.649   2.292  1.0892 -2.0564  0.0412
 6375SOL     OW31102   6.820   5.283   9.226  0.1428 -0.2969 -0.6540
 6375SOL    HW131103   6.888   5.315   9.167  1.4775 -0.5356  0.6950
 6375SOL    HW231104   6.739   5.320   9.191  1.1671  1.5112 -1.2661
 6376SOL     OW31105   3.686   4.626   5.457  0.4468 -0.3489  0.0883
 6376SOL    HW131106   3.591   4.633   5.446  0.5876 -0.1601 -1.1233
 6376SOL    HW231107   3.699   4.540   5.497 -0.2393 -0.3289  0.3778
 6377SOL     OW31108   1.136   7.136   6.829  0.2272  0.3964 -0.1656
 6377SOL    HW131109   1.186   7.108   6.905 -0.2752  0.1938  0.1014
 6377SOL    HW231110   1.046   7.111   6.850  0.3128 -1.2743 -1.5490
 6378SOL     OW31111   5.110   4.628   5.726 -0.3893  0.4511 -0.0896
 6378SOL    HW131112   5.086   4.631   5.634  0.2390 -1.4451 -0.3660
 6378SOL    HW231113   5.184   4.687   5.734 -0.6810  0.9067 -0.7193
 6379SOL     OW31114   1.257   8.439   6.254  0.2563 -0.1777 -0.6735
 6379SOL    HW131115   1.321   8.500   6.219  0.7173  0.1227  0.6256
 6379SOL    HW231116   1.265   8.448   6.349 -4.1202  2.4495 -0.3029
 6380SOL     OW31117   1.494   4.876   7.895 -0.1765 -0.2349 -0.0139
 6380SOL    HW131118   1.539   4.799   7.929 -1.3939 -1.7190 -1.6243
 6380SOL    HW231119   1.561   4.922   7.844  0.2914 -0.8048  0.0744
 6381SOL     OW31120   0.912   8.519   7.167  0.2735  0.0074  0.5039
 6381SOL    HW131121   0.901   8.493   7.076 -1.2280 -0.4819  0.7971
 6381SOL    HW231122   0.892   8.440   7.217  1.6249  0.1113  1.2709
 6382SOL     OW31123  10.376   5.885   1.861 -0.2043  0.4386 -0.1077
 6382SOL    HW131124  10.354   5.945   1.932  0.0197  1.0279 -0.5210
 6382SOL    HW231125  10.291   5.852   1.830 -0.2791 -0.1449  0.6927
 6383SOL     OW31126   8.537   4.369   5.117 -0.2264 -0.1161 -0.0372
 6383SOL    HW131127   8.632   4.360   5.104 -0.0919 -2.5176  1.6819
 6383SOL    HW231128   8.513   4.288   5.162 -2.9993  0.7566  0.1904
 6384SOL     OW31129   2.348   8.178   2.699  0.3538 -0.4466 -0.1003
 6384SOL    HW131130   2.382   8.207   2.615 -1.4793 -0.8227 -1.0350
 6384SOL    HW231131   2.336   8.083   2.689  1.7078 -0.8142  1.2207
 6385SOL     OW31132   1.362   5.830   7.824  0.9980 -0.1271 -0.0524
 6385SOL    HW131133   1.415   5.812   7.902  0.1025 -2.0864  0.1647
 6385SOL    HW231134   1.416   5.888   7.771  1.6521  1.2594  1.9865
 6386SOL     OW31135   2.021   9.363   9.442  0.0951 -0.1134  0.1122
 6386SOL    HW131136   1.931   9.391   9.462 -0.0184 -0.1664 -0.3087
 6386SOL    HW231137   2.024   9.271   9.469 -0.9510 -1.0906 -2.7134
 6387SOL     OW31138   8.823   8.372   8.896  0.1654  0.9074 -0.2343
 6387SOL    HW131139   8.779   8.383   8.812  2.3485  1.2030 -1.4140
 6387SOL    HW231140   8.840   8.278   8.902  1.2225  1.0450 -0.8171
 6388SOL     OW31141   1.197   8.027   6.337 -0.3925 -0.4937  0.3045
 6388SOL    HW131142   1.228   8.016   6.247  1.2142 -0.6088  0.8339
 6388SOL    HW231143   1.177   7.939   6.368  1.0228 -0.7009  0.6960
 6389SOL     OW31144   9.062   7.065   5.497  0.0795  0.0542 -0.2007
 6389SOL    HW131145   9.135   7.107   5.543  0.7774 -1.7118  0.3559
 6389SOL    HW231146   9.097   7.048   5.409  0.2956 -0.6842  0.0287
 6390SOL     OW31147   9.067   3.081   8.184 -0.2635  0.1233 -0.6322
 6390SOL    HW131148   9.141   3.104   8.240 -0.9015 -1.0461  0.7558
 6390SOL    HW231149   9.105   3.024   8.117 -0.2873 -3.2979  1.9872
 6391SOL     OW31150   5.660   0.320   8.944  0.3733 -0.2145  0.0804
 6391SOL    HW131151   5.703   0.373   9.011 -0.0075 -1.5600  1.4691
 6391SOL    HW231152   5.629   0.243   8.992 -0.3445 -1.0020 -1.5793
 6392SOL     OW31153   2.201   5.018   9.065 -0.2105  0.5069  0.2457
 6392SOL    HW131154   2.228   4.964   8.991  1.1699  0.6706  0.6129
 6392SOL    HW231155   2.282   5.049   9.104 -0.9480  1.8942  0.7645
 6393SOL     OW31156   6.374   1.758   7.456  0.9171  0.7211 -0.6267
 6393SOL    HW131157   6.322   1.838   7.461 -0.0729  0.0286  1.3955
 6393SOL    HW231158   6.331   1.698   7.518  1.2656 -1.5942 -2.4609
 6394SOL     OW31159   6.967   9.095   9.725  0.3152 -0.0073 -0.5633
 6394SOL    HW131160   6.977   9.028   9.793 -0.7820  0.6461  0.2840
 6394SOL    HW231161   7.017   9.170   9.758 -0.4327  0.4023 -0.3308
 6395SOL     OW31162   5.112   5.436   8.388  0.0235 -0.0077 -0.1548
 6395SOL    HW131163   5.123   5.371   8.318 -0.0471  0.4700 -0.6163
 6395SOL    HW231164   5.082   5.385   8.463  1.7302 -0.8014  0.0467
 6396SOL     OW31165   9.394   3.081   2.171  0.4802  0.2484  0.3513
 6396SOL    HW131166   9.371   3.153   2.230  0.4983  0.5093  0.0384
 6396SOL    HW231167   9.479   3.105   2.136 -0.1901  0.8344 -0.9370
 6397SOL     OW31168   7.153   3.878   5.248 -0.4442  0.0531  0.1395
 6397SOL    HW131169   7.247   3.861   5.245 -0.5511 -0.5637 -2.3839
 6397SOL    HW231170   7.142   3.939   5.321  1.6731 -1.0229  1.4589
 6398SOL     OW31171   2.945   6.798   4.138 -0.3505 -0.5094  0.0045
 6398SOL    HW131172   2.885   6.863   4.102 -0.7857 -1.4801 -1.0986
 6398SOL    HW231173   2.998   6.846   4.201 -0.7827  0.8611 -0.6495
 6399SOL     OW31174   6.351   7.143   8.020  0.3434  0.2263  0.1319
 6399SOL    HW131175   6.399   7.068   8.055  1.2746  0.6358 -0.2362
 6399SOL    HW231176   6.295   7.106   7.952  2.1520  0.0855 -1.3383
 6400SOL     OW31177   3.958   9.817   8.289  0.8551  0.2047 -0.2664
 6400SOL    HW131178   3.997   9.763   8.220 -0.5606 -0.3868 -0.6483
 6400SOL    HW231179   4.010   9.797   8.367  2.3035  0.6707 -1.0760
 6401SOL     OW31180   2.034   5.904   4.017  0.0919  0.6857  0.3201
 6401SOL    HW131181   2.058   5.824   4.064  0.9159  1.8270  1.9334
 6401SOL    HW231182   2.113   5.926   3.966  1.2625  2.3224  2.6291
 6402SOL     OW31183   3.374   6.372   9.200 -0.1228 -0.5394 -0.5518
 6402SOL    HW131184   3.287   6.339   9.220  0.6842 -0.4344  4.3344
 6402SOL    HW231185   3.366   6.467   9.205  0.4448 -0.5484  1.6482
 6403SOL     OW31186   4.554   6.369   8.400  0.0074 -0.2991 -0.3335
 6403SOL    HW131187   4.545   6.445   8.458  0.9313 -1.3142  1.2355
 6403SOL    HW231188   4.635   6.386   8.351 -0.6287  0.4334 -1.1689
 6404SOL     OW31189   1.851   8.552   3.964  0.0091  0.2051 -0.2023
 6404SOL    HW131190   1.888   8.507   3.888 -1.9846 -0.8254 -0.6196
 6404SOL    HW231191   1.763   8.516   3.973 -0.2184  1.1578  1.9087
 6405SOL     OW31192   4.817   7.393   3.127  0.5056  0.4544 -0.6384
 6405SOL    HW131193   4.842   7.433   3.043  1.3833  1.9036  0.2666
 6405SOL    HW231194   4.727   7.421   3.141  0.9236  1.7112 -0.2956
 6406SOL     OW31195   7.590   2.943   0.493 -0.1322  0.2889  0.5080
 6406SOL    HW131196   7.628   3.023   0.529  0.8134  0.3728 -0.6112
 6406SOL    HW231197   7.615   2.874   0.555 -0.4380  0.7572  1.1648
 6407SOL     OW31198   6.777   8.024   5.566 -0.4462  0.2817  0.3158
 6407SOL    HW131199   6.756   8.090   5.632 -0.9221 -2.4400  3.1308
 6407SOL    HW231200   6.702   8.023   5.508 -2.4953 -0.6430  2.8038
 6408SOL     OW31201   0.446   5.122   3.321 -0.0613  0.0272  0.0840
 6408SOL    HW131202   0.502   5.196   3.298  0.2629 -0.5482 -1.0362
 6408SOL    HW231203   0.361   5.162   3.338  0.3337  0.7574  0.3994
 6409SOL     OW31204   1.250   8.600   4.087  0.5772 -0.0602  0.2208
 6409SOL    HW131205   1.200   8.519   4.075 -2.1100  1.6963 -1.4292
 6409SOL    HW231206   1.259   8.609   4.182 -1.4303 -0.9865  0.5535
 6410SOL     OW31207   2.576   4.167  10.072  0.1784 -0.1377  0.1347
 6410SOL    HW131208   2.539   4.170  10.160 -1.4114  0.5179 -0.5265
 6410SOL    HW231209   2.638   4.240  10.070  0.5211 -0.3980  0.8143
 6411SOL     OW31210   9.410   2.595   9.769  0.2837 -0.0795 -0.0696
 6411SOL    HW131211   9.322   2.626   9.789 -0.0630 -0.8361 -0.3768
 6411SOL    HW231212   9.430   2.533   9.839  0.8391  0.5855  0.3649
 6412SOL     OW31213   0.391   7.553   3.044 -0.1944 -0.0278 -0.2276
 6412SOL    HW131214   0.373   7.632   3.096  0.2132 -0.3714  0.4428
 6412SOL    HW231215   0.486   7.554   3.032 -0.1285 -0.6573  0.1813
 6413SOL     OW31216   7.886   8.848  10.318  0.1347  0.1784 -0.2069
 6413SOL    HW131217   7.953   8.785  10.291  0.7989 -0.7838  3.1878
 6413SOL    HW231218   7.803   8.801  10.308  0.2183  0.3159 -1.6561
 6414SOL     OW31219   8.932   1.132   8.279 -0.3107 -0.0984  0.1656
 6414SOL    HW131220   8.906   1.099   8.365  0.5149 -0.9073  0.1327
 6414SOL    HW231221   8.889   1.216   8.270 -1.5916 -0.6691  0.7550
 6415SOL     OW31222   3.540   2.930   6.118 -0.0364  0.3114  0.2335
 6415SOL    HW131223   3.505   2.954   6.033 -1.6677  0.3580  0.8812
 6415SOL    HW231224   3.525   3.008   6.173  2.9727  1.1295  0.0757
 6416SOL     OW31225   4.524   2.452   3.303  0.1750  0.0055 -0.1550
 6416SOL    HW131226   4.527   2.358   3.286 -2.3612 -0.1350 -0.2010
 6416SOL    HW231227   4.544   2.492   3.218  1.8622 -0.4212 -0.0051
 6417SOL     OW31228  10.114   1.219  10.301 -0.6213  0.4156  0.0375
 6417SOL    HW131229  10.186   1.281  10.289 -0.0432 -0.4227 -1.0596
 6417SOL    HW231230  10.037   1.264  10.263  0.3144 -0.4752 -3.2629
 6418SOL     OW31231   6.595  10.344   0.563  0.0060 -0.1988  0.3528
 6418SOL    HW131232   6.660  10.340   0.493  0.1861  0.7462  0.4589
 6418SOL    HW231233   6.604  10.431   0.601 -0.8172 -0.3139  0.8623
 6419SOL     OW31234   8.035   3.735   6.311  0.4045  0.4777  0.2399
 6419SOL    HW131235   7.944   3.747   6.285  0.5214  0.6434 -0.0957
 6419SOL    HW231236   8.073   3.823   6.307  0.0784  0.7663  2.3299
 6420SOL     OW31237   8.815   9.394   5.328  0.2683 -1.0780 -0.0332
 6420SOL    HW131238   8.779   9.428   5.409  1.2630  0.6818 -0.2708
 6420SOL    HW231239   8.740   9.353   5.283 -1.5735  2.4392 -0.5462
 6421SOL     OW31240   4.026   9.606  10.239  0.1114  0.1508 -0.3666
 6421SOL    HW131241   4.057   9.639  10.155  0.4328  1.3820  0.2200
 6421SOL    HW231242   4.089   9.638  10.303 -1.4142  1.2984  0.6533
 6422SOL     OW31243   8.374   1.165   0.044 -0.4581  0.5201  0.3192
 6422SOL    HW131244   8.330   1.085   0.072 -1.1329  0.8427  0.1856
 6422SOL    HW231245   8.315   1.236   0.067 -0.2815  0.9182 -0.3943
 6423SOL     OW31246   8.517   7.678   8.490 -0.2495 -0.1436  0.9289
 6423SOL    HW131247   8.504   7.584   8.478  2.6374 -0.2851 -3.0814
 6423SOL    HW231248   8.581   7.685   8.561 -1.1910 -1.0643  1.9002
 6424SOL     OW31249  10.185   1.374   7.462 -0.2560 -0.1377  0.0074
 6424SOL    HW131250  10.223   1.314   7.526 -0.4658  0.2286  0.4769
 6424SOL    HW231251  10.127   1.430   7.513 -0.8353 -0.1887 -0.5807
 6425SOL     OW31252   9.132   2.734   6.058  0.8130  0.1108 -0.3269
 6425SOL    HW131253   9.054   2.712   6.007 -0.1242 -0.1252  1.1350
 6425SOL    HW231254   9.129   2.673   6.133  2.0032  0.5942  0.1392
 6426SOL     OW31255   8.566   9.328   7.939 -0.5743 -0.0605  0.0037
 6426SOL    HW131256   8.561   9.317   7.845  1.0783 -0.2842 -0.0873
 6426SOL    HW231257   8.611   9.250   7.970 -0.6517  0.2451  0.9262
 6427SOL     OW31258   1.980   6.895   1.058 -0.7196  0.2920  0.6806
 6427SOL    HW131259   1.960   6.804   1.033 -0.9004  0.6553 -0.5868
 6427SOL    HW231260   1.902   6.944   1.031  0.8733  1.4217 -2.4256
 6428SOL     OW31261   2.074   5.054   8.136 -0.5883 -0.1983  0.1238
 6428SOL    HW131262   2.045   5.036   8.226  0.2127  2.0355  0.8864
 6428SOL    HW231263   1.999   5.097   8.095 -0.5801 -0.2487  0.0565
 6429SOL     OW31264   2.551   6.768   0.040 -0.4778  0.5238  0.2071
 6429SOL    HW131265   2.524   6.762  -0.051  0.2907  2.2639 -0.1728
 6429SOL    HW231266   2.479   6.728   0.089 -1.5078  0.7486 -1.0769
 6430SOL     OW31267   8.538   0.795   0.588  0.2830 -0.2025 -0.3962
 6430SOL    HW131268   8.634   0.795   0.590  0.2843 -0.1344  1.6167
 6430SOL    HW231269   8.513   0.718   0.639 -0.7352 -0.3329 -1.0735
 6431SOL     OW31270   8.366   9.692   6.071 -0.0591 -0.5456 -0.2285
 6431SOL    HW131271   8.278   9.728   6.060 -0.6396 -2.0843 -0.8132
 6431SOL    HW231272   8.395   9.726   6.156 -1.0464  0.3125 -0.2192
 6432SOL     OW31273   1.949   4.611   7.553  0.1823  0.4273 -0.2612
 6432SOL    HW131274   1.922   4.541   7.612 -1.4512  1.3522  0.1471
 6432SOL    HW231275   2.002   4.567   7.486  1.5198 -0.7416  1.4824
 6433SOL     OW31276   9.500   3.281   7.147 -0.6902  0.0670 -0.0832
 6433SOL    HW131277   9.505   3.333   7.067 -1.0000  1.3050  0.6552
 6433SOL    HW231278   9.425   3.319   7.194 -1.2414 -1.4065  0.2619
 6434SOL     OW31279   9.081   8.418  10.105 -0.0229  0.2458  0.3088
 6434SOL    HW131280   9.099   8.360  10.031 -0.7821  1.4906 -0.9188
 6434SOL    HW231281   9.165   8.457  10.127  0.1579  0.0929 -0.1081
 6435SOL     OW31282   1.438   9.050   1.559 -0.5398 -1.1070  0.2993
 6435SOL    HW131283   1.424   9.070   1.652 -1.5213 -1.9914  0.3637
 6435SOL    HW231284   1.500   9.117   1.529 -1.1258 -0.0778  1.2951
 6436SOL     OW31285   0.653   6.217   1.689 -0.6303  0.0700  0.4744
 6436SOL    HW131286   0.715   6.198   1.618 -1.4399  0.1012 -0.2578
 6436SOL    HW231287   0.637   6.131   1.729 -0.0377  0.0771  0.7502
 6437SOL     OW31288   4.255   7.607   3.549 -0.4397 -0.3318 -0.0150
 6437SOL    HW131289   4.182   7.618   3.487 -1.3187 -3.7254  0.2448
 6437SOL    HW231290   4.218   7.554   3.620  1.1772  1.5154  2.3472
 6438SOL     OW31291   2.501   1.369   2.275 -0.4264  0.3466  0.4738
 6438SOL    HW131292   2.488   1.463   2.262 -0.9245  0.0936 -1.0799
 6438SOL    HW231293   2.573   1.347   2.217 -0.8714 -0.3785  0.1879
 6439SOL     OW31294   0.894  10.151   5.317  0.5574  0.2062 -0.1115
 6439SOL    HW131295   0.946  10.221   5.278  1.7615  0.5348  1.9306
 6439SOL    HW231296   0.815  10.195   5.350 -0.7994 -0.1856 -2.6266
 6440SOL     OW31297   9.145   3.051   6.646 -0.2622  0.3748 -0.8544
 6440SOL    HW131298   9.203   3.048   6.571 -2.0791  0.2678 -2.3195
 6440SOL    HW231299   9.079   3.116   6.624 -1.8370 -0.8915 -0.1425
 6441SOL     OW31300   0.958   5.623   6.440 -0.2069  0.2153  0.1643
 6441SOL    HW131301   1.002   5.545   6.476  0.1999 -0.0772 -0.9221
 6441SOL    HW231302   0.938   5.599   6.349  2.7733  2.4366 -1.2616
 6442SOL     OW31303   3.314   1.613   0.712 -0.0086 -0.3485 -0.5151
 6442SOL    HW131304   3.254   1.546   0.744  2.8558 -2.7113  0.3366
 6442SOL    HW231305   3.388   1.564   0.675  2.7065  2.2161  1.0240
 6443SOL     OW31306   5.786   8.339   9.789  0.3300 -0.1050  0.1764
 6443SOL    HW131307   5.834   8.312   9.867  0.5020  1.4877  0.6727
 6443SOL    HW231308   5.706   8.379   9.823  0.5139  0.8231 -0.4272
 6444SOL     OW31309   5.958   1.588   3.771 -0.2470 -0.0169  0.5648
 6444SOL    HW131310   6.053   1.576   3.766 -0.6219 -3.1864 -2.2333
 6444SOL    HW231311   5.933   1.538   3.849  0.1788 -1.4962 -0.2092
 6445SOL     OW31312   9.402   6.853  10.372 -0.2541 -0.3557  0.8141
 6445SOL    HW131313   9.318   6.832  10.332 -1.6504 -0.1348  3.4351
 6445SOL    HW231314   9.421   6.779  10.429  0.8526  0.0369  0.9876
 6446SOL     OW31315   0.740   8.381   2.541 -0.7507 -0.2600  0.0210
 6446SOL    HW131316   0.778   8.408   2.457  0.0074 -0.6882  0.2251
 6446SOL    HW231317   0.645   8.393   2.528 -0.6390 -0.2370 -0.8630
 6447SOL     OW31318   3.083   1.129   8.408  0.5775 -0.4161  0.1672
 6447SOL    HW131319   3.003   1.161   8.366  1.0789  0.9594  0.2320
 6447SOL    HW231320   3.129   1.083   8.337  1.2432  1.5763 -0.7828
 6448SOL     OW31321   6.651   7.071   1.898 -0.1850  0.0942  0.2030
 6448SOL    HW131322   6.679   7.151   1.944  1.4676  0.2177 -0.9417
 6448SOL    HW231323   6.661   7.091   1.805 -1.7789 -0.7609 -0.1990
 6449SOL     OW31324  10.091   4.663   1.885 -0.4130 -0.2258  0.5589
 6449SOL    HW131325  10.074   4.737   1.944  0.5616  0.2475  0.2607
 6449SOL    HW231326  10.159   4.612   1.930  0.9093  0.5608 -0.4866
 6450SOL     OW31327   7.517  10.039   3.214 -0.8766  0.1534  0.0203
 6450SOL    HW131328   7.423  10.046   3.197 -0.9492  0.7012  0.5908
 6450SOL    HW231329   7.546  10.130   3.224 -0.2218  0.0058 -0.4734
 6451SOL     OW31330  10.021   4.793   8.904 -0.5691 -0.5187 -0.4805
 6451SOL    HW131331   9.957   4.771   8.971  0.3629 -2.9197 -0.2880
 6451SOL    HW231332   9.969   4.806   8.824 -1.6320  1.8380  0.5128
 6452SOL     OW31333   6.087  10.149   9.082 -0.3069 -0.5793  0.0633
 6452SOL    HW131334   6.169  10.102   9.094  0.8858  1.3094 -0.2605
 6452SOL    HW231335   6.082  10.165   8.987 -0.1036  0.8665  0.2722
 6453SOL     OW31336   1.744   5.562   8.070  0.0194 -0.3689  0.0028
 6453SOL    HW131337   1.743   5.533   7.979 -2.6460 -0.9127  0.1300
 6453SOL    HW231338   1.776   5.652   8.066  0.7324 -0.6478 -1.3489
 6454SOL     OW31339   1.755   6.469   5.190 -0.2678 -0.1179  0.3645
 6454SOL    HW131340   1.733   6.534   5.257 -0.9751 -0.9459  0.9579
 6454SOL    HW231341   1.676   6.463   5.136 -0.6338 -1.2784  0.9932
 6455SOL     OW31342   7.914   4.261   0.829  0.2755 -0.6621 -0.2675
 6455SOL    HW131343   7.858   4.333   0.802  0.4990 -0.7892 -1.1110
 6455SOL    HW231344   7.862   4.211   0.891  0.7846  1.2541  1.8258
 6456SOL     OW31345   3.737   9.849   3.373 -0.2089  0.1099 -0.0092
 6456SOL    HW131346   3.702   9.924   3.325 -0.5026  0.0585  0.1205
 6456SOL    HW231347   3.765   9.788   3.306 -1.2496 -0.2608 -0.1358
 6457SOL     OW31348   1.150   7.156   5.494 -0.1821  0.1097  0.2538
 6457SOL    HW131349   1.207   7.227   5.465  0.1409 -0.1329  0.2882
 6457SOL    HW231350   1.200   7.112   5.563  0.5846 -1.5096 -1.2578
 6458SOL     OW31351   8.560   8.938   5.786  0.3702  0.7004 -0.3543
 6458SOL    HW131352   8.605   8.900   5.710  0.3194 -0.0318 -0.0284
 6458SOL    HW231353   8.494   8.873   5.810 -0.6444  1.5970 -0.6010
 6459SOL     OW31354   2.893   9.864   0.866  0.2277 -0.3900 -0.5785
 6459SOL    HW131355   2.897   9.952   0.905  0.8557  0.1618 -1.8227
 6459SOL    HW231356   2.937   9.808   0.930  0.9925  0.4386 -0.3508
 6460SOL     OW31357   7.093   9.369   3.271  0.5507 -0.4400 -0.2169
 6460SOL    HW131358   7.092   9.274   3.278 -1.6940 -0.5404 -1.0762
 6460SOL    HW231359   7.094   9.386   3.177  1.7565  0.4262 -0.0741
 6461SOL     OW31360   2.482   6.496   3.606 -1.1790 -0.4600 -0.3239
 6461SOL    HW131361   2.575   6.474   3.609 -1.2805 -0.7936  0.6375
 6461SOL    HW231362   2.480   6.589   3.628 -1.0366 -0.3381 -0.8188
 6462SOL     OW31363   4.412   0.102   8.637  0.6391 -0.6185  0.1233
 6462SOL    HW131364   4.394   0.061   8.722  1.2348 -1.0477  0.0505
 6462SOL    HW231365   4.371   0.188   8.643 -1.0567 -1.3862  0.0990
 6463SOL     OW31366   3.678   4.675   8.441 -0.2350  0.3353  0.5496
 6463SOL    HW131367   3.753   4.632   8.482 -0.6989 -1.8158 -0.6878
 6463SOL    HW231368   3.716   4.727   8.370  0.0943 -2.1663 -1.2609
 6464SOL     OW31369   0.120   1.062   7.017 -0.5317 -0.6523 -0.0418
 6464SOL    HW131370   0.043   1.066   6.961 -1.1749  0.7074  0.8860
 6464SOL    HW231371   0.193   1.047   6.957 -1.1723  0.9711 -1.2718
 6465SOL     OW31372   3.531   7.392   8.863  0.1999 -0.0949 -0.4066
 6465SOL    HW131373   3.522   7.298   8.874 -1.4615  0.1723  0.9207
 6465SOL    HW231374   3.575   7.422   8.942  3.0039  0.0227 -1.8860
 6466SOL     OW31375   8.513   8.204   9.516  0.2107  0.0547 -0.3993
 6466SOL    HW131376   8.535   8.273   9.453 -0.0795  0.9906  0.5028
 6466SOL    HW231377   8.533   8.122   9.469  0.9741  0.7471 -1.3375
 6467SOL     OW31378   0.949   1.532   7.503 -0.5245  0.0607  0.0698
 6467SOL    HW131379   0.902   1.555   7.583 -0.6210 -1.6200  0.5358
 6467SOL    HW231380   0.885   1.485   7.450  0.2058 -1.0167  0.1023
 6468SOL     OW31381   8.718   0.061   4.611 -0.0859 -0.2902  0.1489
 6468SOL    HW131382   8.799   0.088   4.568 -0.9650  0.9754 -0.8044
 6468SOL    HW231383   8.649   0.085   4.549 -1.3370  0.5438  1.7779
 6469SOL     OW31384   0.259   4.603   4.694  0.4205  0.3352 -0.6678
 6469SOL    HW131385   0.185   4.583   4.750  0.8487  1.6585  0.4210
 6469SOL    HW231386   0.230   4.677   4.641  1.5361  2.2249  1.1769
 6470SOL     OW31387   7.061   1.121   0.417 -0.0335 -0.1421 -0.5425
 6470SOL    HW131388   7.022   1.174   0.487 -0.2786 -1.1001  0.0679
 6470SOL    HW231389   7.129   1.070   0.462 -2.1231 -2.9605 -0.3487
 6471SOL     OW31390   2.186   1.232   3.811 -0.4891  0.4126  0.2234
 6471SOL    HW131391   2.158   1.274   3.730  1.6364 -0.6388 -1.1460
 6471SOL    HW231392   2.224   1.149   3.783  0.2345 -0.0204  2.3159
 6472SOL     OW31393   4.856   7.586   7.844  0.4413  0.3531  0.2581
 6472SOL    HW131394   4.801   7.644   7.791 -1.0319  1.3340  2.7246
 6472SOL    HW231395   4.914   7.644   7.891  3.1382 -0.6250 -1.6018
 6473SOL     OW31396   5.447   9.656   1.878 -0.1971  0.1527  0.2187
 6473SOL    HW131397   5.499   9.579   1.901 -0.9373 -0.3401  0.2560
 6473SOL    HW231398   5.477   9.679   1.790 -1.5074 -1.5309 -0.7346
 6474SOL     OW31399   8.813   8.410   7.276  0.0535  0.0038 -0.3795
 6474SOL    HW131400   8.726   8.376   7.255  0.3214 -0.7092 -0.3630
 6474SOL    HW231401   8.801   8.452   7.362 -0.1607 -0.5692 -0.1172
 6475SOL     OW31402   7.907   0.473   6.164 -0.0273  0.2792  0.0613
 6475SOL    HW131403   7.923   0.475   6.070 -0.9181  0.9157 -0.0867
 6475SOL    HW231404   7.880   0.562   6.186 -1.5989 -0.2958  0.5979
 6476SOL     OW31405   1.014   8.253   7.504 -0.3628 -0.4895 -0.1074
 6476SOL    HW131406   0.931   8.278   7.544 -0.0516 -0.7161  0.7119
 6476SOL    HW231407   1.055   8.196   7.569 -0.2814 -1.6932 -1.1858
 6477SOL     OW31408   0.279   2.935   1.752  0.3525 -0.0689  0.2747
 6477SOL    HW131409   0.251   2.859   1.701 -0.0998 -0.5633  1.2199
 6477SOL    HW231410   0.374   2.934   1.746  0.4947 -1.8213  1.7319
 6478SOL     OW31411   1.285  10.126   6.343  0.0375 -0.2908  0.0421
 6478SOL    HW131412   1.242  10.211   6.355 -0.1955 -0.3081 -0.6259
 6478SOL    HW231413   1.273  10.106   6.250  0.8592 -0.6432  0.0018
 6479SOL     OW31414   5.892   2.661   8.176 -0.6962 -0.0995 -0.0257
 6479SOL    HW131415   5.962   2.673   8.239 -0.8125 -0.9355  0.2813
 6479SOL    HW231416   5.925   2.594   8.116 -1.1549 -0.3739  0.0218
 6480SOL     OW31417   0.884   4.184   1.943 -0.5987 -0.6541  0.0225
 6480SOL    HW131418   0.814   4.127   1.973  0.7151 -2.0154  0.6623
 6480SOL    HW231419   0.867   4.197   1.849 -2.5065  0.3091  0.4642
 6481SOL     OW31420  10.331   6.365  10.268 -0.1474 -0.0059 -0.2330
 6481SOL    HW131421  10.301   6.455  10.254  1.3559  0.7167  0.8559
 6481SOL    HW231422  10.300   6.344  10.356  2.1645  0.6731  0.8198
 6482SOL     OW31423   6.201   6.970   7.847 -0.7849 -0.2709  0.3834
 6482SOL    HW131424   6.192   6.984   7.752 -0.6793 -1.0072  0.2533
 6482SOL    HW231425   6.127   6.913   7.869 -0.3066 -0.8264  0.5727
 6483SOL     OW31426   0.928   1.211   0.783  0.2143  0.4329  0.1486
 6483SOL    HW131427   0.909   1.122   0.811  1.3172  0.2848  0.4965
 6483SOL    HW231428   0.874   1.266   0.839  0.9730  0.0589  1.2968
 6484SOL     OW31429   4.284   5.506   0.846 -0.6566 -0.1388  0.1952
 6484SOL    HW131430   4.307   5.424   0.889  1.7128  0.4191  0.1030
 6484SOL    HW231431   4.361   5.530   0.795 -0.8150  2.6851  1.0859
 6485SOL     OW31432   2.803   3.892   0.882  0.2192 -0.3057  0.3157
 6485SOL    HW131433   2.733   3.905   0.946 -0.6543 -1.2643 -0.4124
 6485SOL    HW231434   2.805   3.975   0.833 -2.5345 -1.2197 -1.6342
 6486SOL     OW31435   7.103   5.344   4.317  0.1289  0.0900  0.2259
 6486SOL    HW131436   7.021   5.386   4.341 -1.1240 -0.6018 -2.4742
 6486SOL    HW231437   7.078   5.256   4.288  1.9847 -0.5608  0.4594
 6487SOL     OW31438   4.888   9.727   7.189  0.3678 -0.3133  0.5654
 6487SOL    HW131439   4.810   9.756   7.237  1.1647  1.1512  1.0432
 6487SOL    HW231440   4.935   9.808   7.169  2.1775 -1.1972  0.9913
 6488SOL     OW31441   9.235   1.883   3.167  0.0485 -0.6095 -0.6413
 6488SOL    HW131442   9.171   1.817   3.143 -2.6061  1.6181 -0.2252
 6488SOL    HW231443   9.273   1.912   3.084 -0.1781 -1.2884 -0.9882
 6489SOL     OW31444   1.318   4.755   2.072  0.2578 -0.2458  0.1990
 6489SOL    HW131445   1.322   4.751   1.977  0.0257 -1.5394  0.2286
 6489SOL    HW231446   1.228   4.782   2.091  0.8297  1.9242  0.0415
 6490SOL     OW31447   3.569   5.046   8.425  0.3553 -0.5992  0.2559
 6490SOL    HW131448   3.628   5.083   8.360  0.5629  0.7303  1.1589
 6490SOL    HW231449   3.496   5.108   8.429 -0.4539 -1.5218  0.1255
 6491SOL     OW31450   9.836   0.059   2.829  0.2692 -0.4194  0.3825
 6491SOL    HW131451   9.930   0.061   2.851 -0.0845 -0.2284  2.0003
 6491SOL    HW231452   9.799  -0.003   2.892 -0.9311  0.6863  0.8037
 6492SOL     OW31453   5.104   0.636   8.020 -0.1870 -0.2387 -0.1512
 6492SOL    HW131454   5.025   0.665   8.064 -1.4963 -2.0547 -1.1490
 6492SOL    HW231455   5.098   0.540   8.021  0.7206 -0.3880 -2.4138
 6493SOL     OW31456   9.156   0.510   0.018  0.2455  0.3807  0.1081
 6493SOL    HW131457   9.222   0.450   0.053  1.0021  0.1792 -1.5993
 6493SOL    HW231458   9.074   0.461   0.023  1.0029 -1.2645 -2.2196
 6494SOL     OW31459   5.759   8.405  10.183 -0.6213  0.4602 -0.6957
 6494SOL    HW131460   5.811   8.328  10.161 -0.5226  1.0352 -2.5760
 6494SOL    HW231461   5.788   8.429  10.271  0.6456 -0.5721 -0.8022
 6495SOL     OW31462   9.840   9.511   2.379  0.1734 -0.3711 -0.6586
 6495SOL    HW131463   9.786   9.561   2.440 -2.1669 -0.7555 -2.3053
 6495SOL    HW231464   9.899   9.576   2.341 -1.2161  0.7048 -1.0459
 6496SOL     OW31465   6.957   2.837   1.214  0.4061  0.2699 -0.2747
 6496SOL    HW131466   6.909   2.759   1.243  1.0899 -0.3426 -0.7536
 6496SOL    HW231467   7.039   2.803   1.179  0.0373  1.0366 -2.0204
 6497SOL     OW31468   7.548   3.365   7.359  0.1747  0.3397  0.4076
 6497SOL    HW131469   7.572   3.272   7.357 -0.1847  0.1712  2.1456
 6497SOL    HW231470   7.628   3.411   7.337  0.0159 -0.3765 -1.9470
 6498SOL     OW31471   9.943   3.296   1.709 -0.8592  0.5134 -0.2582
 6498SOL    HW131472   9.966   3.346   1.788 -0.9086 -0.5578  0.4630
 6498SOL    HW231473  10.010   3.227   1.705 -0.6853  0.7306 -1.3342
 6499SOL     OW31474   1.469   5.260   9.297 -0.4260 -0.3603  0.2780
 6499SOL    HW131475   1.537   5.257   9.230 -2.0666 -0.2109 -1.4797
 6499SOL    HW231476   1.509   5.307   9.370  0.4553  2.3493 -1.8021
 6500SOL     OW31477  10.224   0.141   4.240  0.2758 -0.5576  0.1543
 6500SOL    HW131478  10.296   0.181   4.191  0.4695  0.4985  1.2665
 6500SOL    HW231479  10.145   0.180   4.202  0.2635 -1.5792 -0.9413
 6501SOL     OW31480   1.077   2.385   1.007 -0.6762  0.4704  0.2206
 6501SOL    HW131481   1.017   2.419   0.940  0.4706  0.5558 -0.7882
 6501SOL    HW231482   1.164   2.404   0.974  0.0075 -1.9770  0.3618
 6502SOL     OW31483   1.948   7.963   0.436  0.3877  0.6834  0.2995
 6502SOL    HW131484   1.972   7.975   0.344  1.5460 -0.8507  0.3526
 6502SOL    HW231485   1.999   8.028   0.483  0.2463  1.0769 -0.0845
 6503SOL     OW31486   0.028   8.907   5.607  0.1463  0.1823 -0.2430
 6503SOL    HW131487   0.071   8.983   5.567  0.2024  0.0744 -0.3856
 6503SOL    HW231488   0.100   8.854   5.641  0.0548  1.2366  1.7801
 6504SOL     OW31489   1.398   9.202   1.780 -0.2232 -0.6300 -0.1197
 6504SOL    HW131490   1.492   9.219   1.791 -0.0836 -0.1643 -1.7688
 6504SOL    HW231491   1.366   9.186   1.869  1.2074  0.2720  0.5966
 6505SOL     OW31492   2.003   9.933   3.718  0.7175  0.0081  0.7041
 6505SOL    HW131493   2.031  10.013   3.763  0.9843  0.1098  0.3644
 6505SOL    HW231494   2.033   9.945   3.628 -0.0324 -0.0772  0.4350
 6506SOL     OW31495   3.512   9.266   9.437 -0.2308 -0.0811 -0.2776
 6506SOL    HW131496   3.588   9.290   9.490 -0.4449  2.1854 -0.8744
 6506SOL    HW231497   3.549   9.222   9.361  0.4914  0.7539 -0.4288
 6507SOL     OW31498   1.742   3.057   2.980  0.0916 -0.2465 -0.5813
 6507SOL    HW131499   1.727   2.965   2.957  0.9777 -0.7710  0.7872
 6507SOL    HW231500   1.750   3.056   3.075  0.6835  1.1694 -0.6007
 6508SOL     OW31501   1.215   4.051   3.953  0.5144 -0.3994  0.1272
 6508SOL    HW131502   1.204   4.123   4.015  1.8343  0.1000 -0.1902
 6508SOL    HW231503   1.294   4.006   3.982  0.3225 -1.0544 -0.3338
 6509SOL     OW31504   1.527   0.049   9.336 -0.0450 -0.0922 -0.2238
 6509SOL    HW131505   1.606   0.089   9.371  0.1055 -1.6464  1.3792
 6509SOL    HW231506   1.553  -0.041   9.316 -1.2813 -0.5001 -0.0913
 6510SOL     OW31507   9.419   9.150   1.485  0.2120  0.9857 -0.6660
 6510SOL    HW131508   9.422   9.162   1.390 -0.4300  0.9816 -0.6922
 6510SOL    HW231509   9.483   9.213   1.520  1.1265  0.3505 -1.1464
 6511SOL     OW31510  10.271   8.451   2.697  0.2012  0.6057  0.1388
 6511SOL    HW131511  10.316   8.509   2.636  0.5535 -0.1883 -0.3768
 6511SOL    HW231512  10.290   8.487   2.783  1.4076  0.5772 -0.1015
 6512SOL     OW31513   0.050   7.920   4.998 -0.4376 -0.0956 -0.7543
 6512SOL    HW131514   0.119   7.885   5.055 -1.0468 -1.7169 -0.9480
 6512SOL    HW231515   0.092   7.929   4.913  0.4532  2.2487 -0.1401
 6513SOL     OW31516   2.731  10.090  10.262 -0.4891 -0.2184  0.1907
 6513SOL    HW131517   2.657  10.030  10.262 -0.4508 -0.3286 -2.0125
 6513SOL    HW231518   2.806  10.035  10.238 -0.2292  0.4466 -0.5556
 6514SOL     OW31519   4.403  10.309   9.360  0.2480 -0.3617  0.5649
 6514SOL    HW131520   4.440  10.253   9.427  0.6229  0.6787  1.2525
 6514SOL    HW231521   4.467  10.307   9.288 -0.1417 -1.4497  0.2380
 6515SOL     OW31522   1.931   4.330   0.074  0.2641  0.2812 -0.7977
 6515SOL    HW131523   1.964   4.251   0.032  1.1123  0.5249 -0.6125
 6515SOL    HW231524   2.008   4.369   0.115 -0.5723 -0.1896  1.3927
 6516SOL     OW31525   8.166   6.498   1.611 -0.6042  0.2696 -0.1886
 6516SOL    HW131526   8.149   6.581   1.565  0.8308  0.4667 -0.4084
 6516SOL    HW231527   8.104   6.497   1.683 -0.6584  1.5330 -0.2017
 6517SOL     OW31528   9.519   7.649   1.418  0.1824  0.2446  0.3572
 6517SOL    HW131529   9.435   7.605   1.433 -0.4798  2.1757  2.9110
 6517SOL    HW231530   9.512   7.682   1.329 -1.8621  0.4677  0.5362
 6518SOL     OW31531   7.122   4.168   5.728 -0.6605  0.6056  0.3828
 6518SOL    HW131532   7.028   4.188   5.732 -0.6402  0.5706  1.1676
 6518SOL    HW231533   7.138   4.114   5.805 -0.0809  0.2292  0.0036
 6519SOL     OW31534   3.287   9.684   2.099 -0.0140  0.1566  0.1566
 6519SOL    HW131535   3.228   9.736   2.045  0.4938  0.9527  0.3606
 6519SOL    HW231536   3.249   9.688   2.187  0.7079  1.2767  0.4418
 6520SOL     OW31537   5.550   0.906   7.128 -0.1888 -0.4088 -0.1967
 6520SOL    HW131538   5.538   0.858   7.046 -0.4405 -0.5289 -0.0903
 6520SOL    HW231539   5.510   0.851   7.195  1.1539 -0.9267  0.2120
 6521SOL     OW31540   6.281   7.088   7.035 -0.0455  0.3697 -0.6121
 6521SOL    HW131541   6.296   6.994   7.026  1.5990  0.5600 -0.2168
 6521SOL    HW231542   6.339   7.127   6.969 -0.7294  1.1104 -0.7814
 6522SOL     OW31543   9.255   7.927  10.285 -0.6979 -0.3245  0.6175
 6522SOL    HW131544   9.350   7.930  10.297 -0.1550 -0.9648 -2.5367
 6522SOL    HW231545   9.222   8.005  10.329  1.0125 -1.0047  3.3196
 6523SOL     OW31546   7.312   5.713   9.034  0.0798  0.2635 -0.0062
 6523SOL    HW131547   7.276   5.748   9.115 -0.5606 -0.8939  0.2291
 6523SOL    HW231548   7.236   5.696   8.979  0.3712 -0.7232 -0.1191
 6524SOL     OW31549   9.428  10.125   9.504  0.1083  0.2708 -0.0961
 6524SOL    HW131550   9.464  10.190   9.444 -1.5812  1.2783 -0.0864
 6524SOL    HW231551   9.341  10.105   9.468  0.5408 -1.9628 -0.0684
 6525SOL     OW31552   7.226   9.824   5.446  0.1973 -0.2848  0.0452
 6525SOL    HW131553   7.317   9.850   5.461  0.3124  0.2237 -1.3915
 6525SOL    HW231554   7.208   9.759   5.514  1.7005 -0.5575  0.2148
 6526SOL     OW31555   7.077   3.016   9.692 -0.6560  0.2217  0.2079
 6526SOL    HW131556   7.003   3.034   9.634  1.0009 -0.4649 -2.2620
 6526SOL    HW231557   7.127   2.948   9.647  2.5070  1.9535  0.7955
 6527SOL     OW31558   0.328   9.952   0.844 -0.2767 -0.1379  0.2174
 6527SOL    HW131559   0.289   9.875   0.801 -1.0441  0.3207  0.0698
 6527SOL    HW231560   0.416   9.923   0.869 -0.0376 -0.6179 -1.1024
 6528SOL     OW31561   3.112   8.631   9.655 -0.1499 -0.1130 -0.6006
 6528SOL    HW131562   3.067   8.613   9.738 -1.2812  1.4059 -0.8432
 6528SOL    HW231563   3.069   8.573   9.592 -0.2990 -0.2123 -0.4083
 6529SOL     OW31564   8.080   5.665   9.973 -0.4572 -0.0393  0.1699
 6529SOL    HW131565   8.032   5.624   9.901  0.5019  0.1989 -0.6256
 6529SOL    HW231566   8.045   5.622  10.051 -2.1977  0.3754 -0.3336
 6530SOL     OW31567   7.310  10.232   1.927  0.4853 -0.0474  0.0602
 6530SOL    HW131568   7.350  10.158   1.973  3.2473  0.7207 -0.9005
 6530SOL    HW231569   7.228  10.197   1.892  0.0531 -1.6481  2.4699
 6531SOL     OW31570   2.215   0.419   9.893  0.3465 -0.4387  0.2935
 6531SOL    HW131571   2.163   0.437   9.815  0.7871 -2.3472 -0.5155
 6531SOL    HW231572   2.288   0.481   9.888 -0.9653  1.1777  0.5964
 6532SOL     OW31573   1.928  10.139   2.026 -0.0380 -0.0006  0.1520
 6532SOL    HW131574   1.837  10.123   2.051 -0.1238 -1.0371 -0.7010
 6532SOL    HW231575   1.976  10.137   2.108 -0.5782 -1.1333  0.4639
 6533SOL     OW31576   2.965   8.372   4.922 -0.2453 -0.1717 -0.0024
 6533SOL    HW131577   3.003   8.292   4.886 -0.3563 -0.5723  0.7448
 6533SOL    HW231578   2.899   8.342   4.984  0.3373  0.4749  0.9653
 6534SOL     OW31579   1.867   7.623   3.234 -0.0413 -0.0893  0.1201
 6534SOL    HW131580   1.812   7.590   3.304  0.1877 -1.4742 -0.3210
 6534SOL    HW231581   1.955   7.590   3.255 -0.0779 -1.0623 -1.1076
 6535SOL     OW31582   7.324   9.475   2.968  0.9937  0.2405 -0.3063
 6535SOL    HW131583   7.402   9.424   2.990  0.0262 -0.6033  1.3840
 6535SOL    HW231584   7.315   9.536   3.041 -1.5152 -1.6552  1.1316
 6536SOL     OW31585   7.787   9.520   6.630  0.2767  0.1738  0.1003
 6536SOL    HW131586   7.710   9.524   6.688  0.0699 -1.4262 -0.0063
 6536SOL    HW231587   7.861   9.514   6.690  0.2207  0.4193  0.1975
 6537SOL     OW31588   2.411   4.986   5.182  0.1803 -0.6295  0.0913
 6537SOL    HW131589   2.352   4.959   5.252 -0.4701 -0.1393 -0.2522
 6537SOL    HW231590   2.497   4.953   5.208 -0.4139 -2.2662  0.1002
 6538SOL     OW31591   2.507   6.995   5.528 -0.5327 -0.1690 -0.3508
 6538SOL    HW131592   2.442   6.933   5.560  2.0991 -2.6248  0.7501
 6538SOL    HW231593   2.566   6.942   5.473 -0.0922  2.1625 -2.2988
 6539SOL     OW31594  10.131   9.854   7.302  0.4280 -0.6399 -0.2143
 6539SOL    HW131595  10.089   9.940   7.296 -1.6344 -1.4446  1.7403
 6539SOL    HW231596  10.121   9.817   7.214  0.0492  0.4966 -0.6766
 6540SOL     OW31597   7.001   9.423   1.619  0.1253  0.4385 -0.0702
 6540SOL    HW131598   7.033   9.355   1.678 -0.9765  1.5049  1.8618
 6540SOL    HW231599   6.910   9.436   1.645  0.2495  2.5133 -0.4596
 6541SOL     OW31600   8.512   9.109   0.951 -0.2629  0.1710  0.5002
 6541SOL    HW131601   8.578   9.097   1.019 -0.4764 -3.4033  0.2699
 6541SOL    HW231602   8.498   9.021   0.916 -0.2096  1.7437 -4.1480
 6542SOL     OW31603   9.528   8.937   5.715  0.8250  0.0371 -0.1391
 6542SOL    HW131604   9.535   9.027   5.684 -1.9911  0.0847 -0.9423
 6542SOL    HW231605   9.545   8.884   5.637  0.4503 -0.0503 -0.1633
 6543SOL     OW31606   9.069   1.386   4.350  0.7381 -0.9385 -0.7613
 6543SOL    HW131607   8.993   1.444   4.346  0.9830 -0.6770 -2.1119
 6543SOL    HW231608   9.056   1.335   4.430  0.6122  1.0679  0.5643
 6544SOL     OW31609   8.583   4.417   6.936  0.0293  0.2550 -0.4875
 6544SOL    HW131610   8.630   4.498   6.917 -1.4303  1.4337  0.6655
 6544SOL    HW231611   8.492   4.436   6.916 -0.0997 -1.8560 -2.3022
 6545SOL     OW31612   2.917   4.453   5.005 -1.0284  0.3217 -0.0740
 6545SOL    HW131613   2.946   4.370   5.042 -2.3451  0.2016  0.7352
 6545SOL    HW231614   2.981   4.472   4.936 -0.0803 -0.7968  0.4677
 6546SOL     OW31615   3.456   1.933   0.472 -0.3166 -0.2385  0.2005
 6546SOL    HW131616   3.426   2.020   0.498  3.4906  0.6838  2.1551
 6546SOL    HW231617   3.495   1.946   0.386  1.5315  0.3948  1.0931
 6547SOL     OW31618   9.447   1.720   2.062  0.3246  0.1191 -0.2708
 6547SOL    HW131619   9.534   1.732   2.024 -0.4070 -0.7053 -2.3814
 6547SOL    HW231620   9.450   1.768   2.144  2.2853  1.4286 -1.0222
 6548SOL     OW31621   4.892   3.473   3.558 -0.1711  0.4627 -0.2428
 6548SOL    HW131622   4.807   3.490   3.598  0.6592 -0.3067  1.9989
 6548SOL    HW231623   4.894   3.379   3.543  0.1848  0.5154 -0.5522
 6549SOL     OW31624   4.743   6.165   2.761 -0.0524  0.1300  0.0875
 6549SOL    HW131625   4.760   6.078   2.726 -0.6379 -0.0045  0.1369
 6549SOL    HW231626   4.695   6.149   2.842 -1.8574  0.5418 -0.8536
 6550SOL     OW31627   4.642   8.001   2.490 -0.3414 -0.0392 -0.1671
 6550SOL    HW131628   4.682   7.946   2.557  0.4144 -0.3545 -0.8534
 6550SOL    HW231629   4.594   7.940   2.434  0.4988 -0.0182 -0.9311
 6551SOL     OW31630  10.111   3.129   9.168 -0.0507  0.5046 -0.0717
 6551SOL    HW131631  10.126   3.114   9.075  0.1173 -0.6109  0.1162
 6551SOL    HW231632  10.182   3.081   9.211 -1.2569 -0.6456  0.6854
 6552SOL     OW31633   9.390   6.696   8.851  0.2943  0.4506 -0.2424
 6552SOL    HW131634   9.455   6.695   8.921  0.1303  0.8848 -0.0800
 6552SOL    HW231635   9.306   6.695   8.896  0.1879  0.2590 -0.4458
 6553SOL     OW31636   1.778   6.594   7.874  0.1390 -0.2856  0.0962
 6553SOL    HW131637   1.686   6.618   7.882  0.3166  0.2441  0.6022
 6553SOL    HW231638   1.826   6.677   7.877  0.6991 -0.6180  0.8769
 6554SOL     OW31639   6.534   3.385   0.479 -0.0635  0.6970 -0.2678
 6554SOL    HW131640   6.612   3.410   0.527 -1.5358  1.3117  1.9635
 6554SOL    HW231641   6.514   3.297   0.509 -1.2158  1.2304  0.6085
 6555SOL     OW31642   1.275   8.235   7.762 -0.6121 -0.5086  0.0075
 6555SOL    HW131643   1.308   8.276   7.682 -1.2642 -0.6962 -0.3704
 6555SOL    HW231644   1.254   8.308   7.820  0.1924 -0.3815  0.1461
 6556SOL     OW31645   2.811   9.309   3.250 -0.6675 -0.4571 -0.0035
 6556SOL    HW131646   2.881   9.270   3.198 -0.5653  2.4156 -2.2043
 6556SOL    HW231647   2.855   9.375   3.304 -1.4040 -0.0511  0.1158
 6557SOL     OW31648   1.955   0.106   5.593  0.0753  0.2059 -0.8830
 6557SOL    HW131649   1.968   0.181   5.651 -2.1997 -0.3168  0.4331
 6557SOL    HW231650   2.014   0.039   5.627  0.4862  0.6873 -0.6468
 6558SOL     OW31651   8.049   4.446   6.365  0.3360 -0.2210  0.0565
 6558SOL    HW131652   8.024   4.538   6.355 -0.8134 -0.1984  2.4879
 6558SOL    HW231653   8.044   4.410   6.276 -3.2991  1.0605 -0.4332
 6559SOL     OW31654   9.103   3.208   9.796 -0.0933  0.7619 -0.4592
 6559SOL    HW131655   9.075   3.157   9.720  0.4521  0.0188 -0.1774
 6559SOL    HW231656   9.107   3.144   9.867  1.5719  0.9842 -0.3236
 6560SOL     OW31657   5.873   9.434   1.217  0.0110  0.0458  0.6102
 6560SOL    HW131658   5.872   9.346   1.177 -3.1968  0.0509  0.4303
 6560SOL    HW231659   5.905   9.420   1.306  0.7702 -1.0838  0.1796
 6561SOL     OW31660   0.280   9.810   6.337  0.2911 -0.1644 -0.1101
 6561SOL    HW131661   0.288   9.797   6.432 -0.3016 -1.0203 -0.1682
 6561SOL    HW231662   0.195   9.852   6.326 -0.0314 -0.8602 -0.3224
 6562SOL     OW31663   0.288   7.698   5.659 -0.1625  0.4872  0.4828
 6562SOL    HW131664   0.239   7.768   5.616 -1.3267 -0.4274  0.2404
 6562SOL    HW231665   0.227   7.624   5.661  1.4914 -0.9841 -0.5563
 6563SOL     OW31666   6.156   4.641   7.439  0.7218  0.4962  0.0513
 6563SOL    HW131667   6.197   4.673   7.519 -0.6352  2.8646 -0.1103
 6563SOL    HW231668   6.080   4.697   7.427  0.3075 -0.4671 -2.3714
 6564SOL     OW31669   9.909   7.922   6.182  0.3656  0.0167  0.2082
 6564SOL    HW131670   9.925   7.968   6.264  3.4205 -0.3969 -0.0572
 6564SOL    HW231671   9.928   7.830   6.202 -0.5781 -0.3670 -0.5594
 6565SOL     OW31672   8.771   0.576   1.343 -1.1082  0.1295 -0.2718
 6565SOL    HW131673   8.851   0.605   1.298 -1.0476  1.2012  0.4791
 6565SOL    HW231674   8.789   0.593   1.436 -1.2763 -1.9129  0.1825
 6566SOL     OW31675   9.846   9.570   8.495  0.3592 -0.2267  0.0458
 6566SOL    HW131676   9.787   9.644   8.480  1.6644  1.0070  0.6623
 6566SOL    HW231677   9.829   9.544   8.586  0.2369 -0.3610 -0.0160
 6567SOL     OW31678   1.354   1.459   9.190 -0.1091  0.1768  0.1387
 6567SOL    HW131679   1.315   1.469   9.103  0.7256  1.8964 -0.0662
 6567SOL    HW231680   1.435   1.411   9.175 -0.4368 -0.3842  0.1176
 6568SOL     OW31681   0.103   8.399   3.993 -0.1345  0.4279  0.0900
 6568SOL    HW131682   0.056   8.317   3.978 -0.9521  1.0779 -1.0151
 6568SOL    HW231683   0.043   8.467   3.962  0.8386  1.3960  0.2887
 6569SOL     OW31684   6.534   7.923   0.167 -0.2658  0.4082 -0.2229
 6569SOL    HW131685   6.465   7.989   0.163  0.5903  1.2529 -2.1380
 6569SOL    HW231686   6.612   7.967   0.134  1.1579 -0.6170  1.5840
 6570SOL     OW31687   6.437   2.144  10.250 -0.7828  0.1923 -0.1143
 6570SOL    HW131688   6.431   2.049  10.259 -0.1035  0.2942  2.2834
 6570SOL    HW231689   6.517   2.167  10.297 -1.2319  1.9865 -0.1699
 6571SOL     OW31690   8.334   4.359   2.484  0.0009  0.3115 -0.4186
 6571SOL    HW131691   8.356   4.324   2.571  1.8176  1.8930 -0.1554
 6571SOL    HW231692   8.352   4.453   2.491 -0.2710  0.5518 -2.3813
 6572SOL     OW31693   1.139   2.265   6.611  0.1668 -0.3089  0.1627
 6572SOL    HW131694   1.137   2.271   6.706  1.1653 -0.9180  0.2346
 6572SOL    HW231695   1.058   2.309   6.582  0.3331  0.7650  1.2379
 6573SOL     OW31696   8.799  10.237   1.466 -0.0243  0.1511  0.0801
 6573SOL    HW131697   8.802  10.332   1.454  0.9963  0.4818  2.4690
 6573SOL    HW231698   8.827  10.223   1.556  0.3126 -2.4716 -0.3545
 6574SOL     OW31699   2.499   0.433   1.228  0.3277 -0.3770 -0.3611
 6574SOL    HW131700   2.590   0.459   1.241 -0.7314  3.9399 -0.1221
 6574SOL    HW231701   2.481   0.451   1.136 -0.3798 -0.7664 -0.3056
 6575SOL     OW31702   6.385   1.473   9.129 -0.2798 -0.2552  0.1842
 6575SOL    HW131703   6.328   1.540   9.167  0.5900 -0.2137  1.5044
 6575SOL    HW231704   6.424   1.429   9.204  0.0554 -1.4874 -0.6741
 6576SOL     OW31705   9.790   7.338   3.400 -0.4980  0.1440  0.3878
 6576SOL    HW131706   9.772   7.295   3.484 -0.4229  0.2203  0.4426
 6576SOL    HW231707   9.720   7.308   3.342  0.1128 -0.8645  0.1407
 6577SOL     OW31708   5.124   8.554   6.958 -0.0778 -0.8789  0.5580
 6577SOL    HW131709   5.164   8.617   7.018 -2.8089  2.1994 -0.5762
 6577SOL    HW231710   5.198   8.516   6.911  1.7756  1.8427  1.0266
 6578SOL     OW31711   3.566   5.173   7.195 -0.0042 -0.3079  0.3067
 6578SOL    HW131712   3.573   5.265   7.223 -2.9235 -0.4838  2.0919
 6578SOL    HW231713   3.657   5.143   7.189  1.2357  3.2409 -2.7258
 6579SOL     OW31714   8.538   2.908   7.345  0.1497  0.5879  0.6807
 6579SOL    HW131715   8.508   2.877   7.431  1.5738  0.5916  1.2125
 6579SOL    HW231716   8.536   2.830   7.290 -1.6343  0.7714  0.4413
 6580SOL     OW31717   2.357   6.246   1.814 -0.1295 -0.0461 -0.1768
 6580SOL    HW131718   2.406   6.311   1.864  0.3912 -0.9177  0.4735
 6580SOL    HW231719   2.302   6.298   1.755 -0.0682  0.9806  0.6431
 6581SOL     OW31720  10.135   2.833   0.969 -0.2272 -0.0603  0.6505
 6581SOL    HW131721  10.132   2.779   0.890 -0.1481 -1.6450  1.6811
 6581SOL    HW231722  10.080   2.909   0.948 -0.5623 -0.6564 -0.7627
 6582SOL     OW31723   7.013   6.992   1.975 -0.2349  0.0051  0.0238
 6582SOL    HW131724   7.081   6.925   1.964 -0.7228 -0.2573 -1.8840
 6582SOL    HW231725   7.037   7.061   1.914  0.0741  1.4661  1.7361
 6583SOL     OW31726   8.308   7.644   2.339 -0.0371  0.6039  0.2877
 6583SOL    HW131727   8.240   7.606   2.395  0.7077  1.5580  1.9185
 6583SOL    HW231728   8.390   7.607   2.374  0.4509  1.2993 -0.1070
 6584SOL     OW31729   2.773   6.191   2.755  0.5038 -0.2810 -0.6201
 6584SOL    HW131730   2.868   6.182   2.763  0.7135  1.5891 -0.3672
 6584SOL    HW231731   2.749   6.135   2.682  1.7935 -0.8405 -0.6396
 6585SOL     OW31732   9.905   6.954   9.542 -0.2548 -0.2593  0.8427
 6585SOL    HW131733   9.870   6.938   9.629 -1.6578  1.5103  0.6773
 6585SOL    HW231734   9.879   7.044   9.522  1.0055 -0.2318 -0.9567
 6586SOL     OW31735   5.773   0.287   3.150 -0.0465 -0.3896  0.1737
 6586SOL    HW131736   5.853   0.325   3.115 -0.6414  2.3478  1.4807
 6586SOL    HW231737   5.732   0.243   3.075  1.8018 -0.3724 -0.9063
 6587SOL     OW31738   0.172   9.205   3.205 -0.6427 -0.0862  0.1886
 6587SOL    HW131739   0.123   9.269   3.153 -0.2309  2.6311  2.8368
 6587SOL    HW231740   0.105   9.161   3.258 -0.6970 -0.1633  0.0575
 6588SOL     OW31741   7.993   2.560   3.785  0.1407 -0.0694 -0.2555
 6588SOL    HW131742   8.005   2.566   3.690  1.1906  1.7905 -0.0504
 6588SOL    HW231743   8.011   2.469   3.806 -0.7516 -0.6696 -1.9032
 6589SOL     OW31744   0.170   1.080   0.729 -0.6039  0.3388  0.8875
 6589SOL    HW131745   0.189   1.008   0.789  0.4036  0.8379  1.1887
 6589SOL    HW231746   0.246   1.082   0.670 -0.2533  1.6203  1.3539
 6590SOL     OW31747   6.841   2.310   5.309 -0.1116  0.4844 -0.4862
 6590SOL    HW131748   6.905   2.351   5.368  0.6297 -0.9961 -0.2200
 6590SOL    HW231749   6.891   2.243   5.262 -1.4222 -0.5975 -0.3953
 6591SOL     OW31750   5.197   1.112   5.515 -0.3005  0.0490  0.1467
 6591SOL    HW131751   5.267   1.070   5.564 -1.8989 -0.5479  2.0374
 6591SOL    HW231752   5.124   1.050   5.519 -1.8498  1.8245  0.7034
 6592SOL     OW31753   0.045   1.895   0.367  0.3446  0.2799 -0.0149
 6592SOL    HW131754   0.032   1.846   0.448  1.5915 -0.4010 -0.1851
 6592SOL    HW231755   0.139   1.914   0.365  0.2517  0.7460 -1.0397
 6593SOL     OW31756  10.206   8.308   7.852 -0.5563 -0.0351  0.0010
 6593SOL    HW131757  10.256   8.237   7.811 -1.7211 -0.7417 -0.2411
 6593SOL    HW231758  10.239   8.312   7.941  1.7239  1.2511 -0.8156
 6594SOL     OW31759   8.948   5.215   8.160  0.3937 -0.0027 -0.5402
 6594SOL    HW131760   8.998   5.206   8.079 -0.3086  0.0502 -0.9912
 6594SOL    HW231761   8.882   5.146   8.155  2.0843 -1.8784  1.3322
 6595SOL     OW31762   3.905   3.000   8.846 -0.4794 -0.1794  0.4087
 6595SOL    HW131763   3.829   3.030   8.796  0.0971 -1.1704 -1.1410
 6595SOL    HW231764   3.976   3.057   8.817 -0.5803  0.7173  1.8243
 6596SOL     OW31765   5.493   8.070   8.269  0.0080 -0.0837 -0.1144
 6596SOL    HW131766   5.504   8.065   8.174 -0.9812 -2.8448 -0.1760
 6596SOL    HW231767   5.579   8.045   8.304  0.3825  0.9705 -0.2729
 6597SOL     OW31768   1.508   9.765   1.553 -0.4312 -0.3418 -0.4039
 6597SOL    HW131769   1.584   9.813   1.585 -1.3461  0.2562  0.9646
 6597SOL    HW231770   1.437   9.788   1.614 -1.2820 -2.2423 -0.5918
 6598SOL     OW31771   6.554   1.656   5.676  0.3491  0.9153 -0.1618
 6598SOL    HW131772   6.605   1.619   5.604  0.3606  1.8697 -0.6614
 6598SOL    HW231773   6.467   1.673   5.638  0.0108  0.4023  0.3594
 6599SOL     OW31774   0.935   2.948   4.132 -0.3369  0.7658  0.5285
 6599SOL    HW131775   0.876   2.873   4.144  0.2213  0.3495  0.6719
 6599SOL    HW231776   0.954   2.978   4.221 -0.6766  1.1793  0.4683
 6600SOL     OW31777  10.150   3.634  10.282 -0.1563  0.2491 -0.1463
 6600SOL    HW131778  10.157   3.684  10.363 -0.4039  0.9203 -0.5286
 6600SOL    HW231779  10.130   3.545  10.310  0.4114  0.3297  0.5531
 6601SOL     OW31780   7.367   0.589   7.396 -0.1571 -0.0567  0.5514
 6601SOL    HW131781   7.429   0.539   7.344  0.2333 -0.4801  1.4032
 6601SOL    HW231782   7.421   0.653   7.442 -0.4522  0.0730  0.7161
 6602SOL     OW31783   2.122   1.858   0.652 -0.2754 -0.5444  0.0728
 6602SOL    HW131784   2.141   1.946   0.620  0.9056 -1.0155 -0.5680
 6602SOL    HW231785   2.065   1.820   0.585 -2.3800  0.3485  1.2654
 6603SOL     OW31786   1.657   5.136   2.407  0.0005 -0.1408 -0.2995
 6603SOL    HW131787   1.734   5.159   2.460  1.1004 -1.3228 -1.3255
 6603SOL    HW231788   1.692   5.119   2.320 -1.4820 -0.4029 -0.8744
 6604SOL     OW31789   6.887   4.381   4.401 -0.5533  0.2599  0.6116
 6604SOL    HW131790   6.794   4.380   4.379 -0.6692  0.8665  1.0457
 6604SOL    HW231791   6.921   4.459   4.358  0.2780 -1.2174 -1.5366
 6605SOL     OW31792   4.353   7.097   4.443  0.5584  0.4323 -0.5273
 6605SOL    HW131793   4.358   7.009   4.407  1.1307  0.5975 -0.8679
 6605SOL    HW231794   4.302   7.088   4.523 -0.5101  0.0015 -1.2259
 6606SOL     OW31795   7.742   4.115   6.925  0.5565 -0.3415 -0.4345
 6606SOL    HW131796   7.666   4.172   6.913  0.4686 -0.6223 -1.2518
 6606SOL    HW231797   7.809   4.172   6.963 -0.1060 -0.1286  0.4320
 6607SOL     OW31798   2.920   2.121   1.628 -0.6351  0.3545  0.4446
 6607SOL    HW131799   2.848   2.064   1.600 -1.5102  1.3601  0.5943
 6607SOL    HW231800   2.918   2.194   1.567  1.3234 -0.3510 -0.5795
 6608SOL     OW31801   1.236   3.281   0.148  0.2126 -0.2663 -0.1842
 6608SOL    HW131802   1.272   3.363   0.183 -1.3442  0.2166  0.3689
 6608SOL    HW231803   1.228   3.223   0.224 -3.8048  1.0128  0.6472
 6609SOL     OW31804   1.855   7.291   7.178  0.1005 -0.2352  0.3468
 6609SOL    HW131805   1.767   7.261   7.203  0.3975 -1.1505  0.3301
 6609SOL    HW231806   1.914   7.229   7.220  0.6803 -0.5649 -0.9004
 6610SOL     OW31807   5.206   8.686  10.017  0.3026 -0.3177  0.5002
 6610SOL    HW131808   5.151   8.696   9.939  0.7242 -0.4837  0.1803
 6610SOL    HW231809   5.223   8.776  10.046 -1.2144 -0.2821  1.3709
 6611SOL     OW31810   1.873   3.373   3.170 -0.6827 -0.2542 -0.1286
 6611SOL    HW131811   1.847   3.285   3.198 -1.5689  0.1538  0.3745
 6611SOL    HW231812   1.839   3.381   3.081  1.1789 -1.1478 -0.9730
 6612SOL     OW31813   3.809   0.362   6.788  0.2854 -0.0651 -0.8555
 6612SOL    HW131814   3.800   0.321   6.874 -3.4011 -1.0442 -1.5076
 6612SOL    HW231815   3.876   0.310   6.743  1.9653  0.1999  1.1953
 6613SOL     OW31816   5.077  10.149   1.556  0.1737  0.2480 -0.0180
 6613SOL    HW131817   5.051  10.241   1.545 -0.7438  0.0041  0.0167
 6613SOL    HW231818   4.997  10.105   1.585  0.6472 -0.5350  0.1228
 6614SOL     OW31819   9.851   5.562   8.043  0.4718 -0.1074  0.0657
 6614SOL    HW131820   9.813   5.649   8.044 -0.8258 -0.6376  1.8569
 6614SOL    HW231821   9.846   5.534   7.951 -2.1100  0.4650 -0.0461
 6615SOL     OW31822   1.217   2.259   4.884 -0.3525  0.3710 -0.3425
 6615SOL    HW131823   1.285   2.209   4.928 -0.0812  0.2960 -0.8435
 6615SOL    HW231824   1.146   2.197   4.869 -2.0603  1.1772  3.2989
 6616SOL     OW31825   6.208   1.610   6.485 -0.5257 -0.3419 -0.0564
 6616SOL    HW131826   6.275   1.546   6.509 -0.2243  0.7811  2.3821
 6616SOL    HW231827   6.125   1.565   6.502 -0.3774 -0.8688 -0.6715
 6617SOL     OW31828   6.446   6.030   6.743  0.4390 -0.0682 -0.4291
 6617SOL    HW131829   6.377   6.083   6.784 -0.3903 -0.4540 -1.2819
 6617SOL    HW231830   6.407   5.943   6.736  1.8050 -0.8504  1.0094
 6618SOL     OW31831   7.124   8.657   2.555  0.6677 -0.3209 -0.4026
 6618SOL    HW131832   7.141   8.645   2.461  0.1647  0.9624 -0.6806
 6618SOL    HW231833   7.210   8.652   2.596  1.0226  0.1623 -1.0694
 6619SOL     OW31834   6.249   0.413   9.409 -0.1019  0.2183 -0.0812
 6619SOL    HW131835   6.220   0.467   9.482 -3.6904 -0.4573 -0.8048
 6619SOL    HW231836   6.308   0.469   9.359  0.9849  1.3161  2.2869
 6620SOL     OW31837   5.841   8.006   9.833  0.1298 -0.5327  0.2179
 6620SOL    HW131838   5.784   8.020   9.909 -0.5466  1.4500 -0.5745
 6620SOL    HW231839   5.929   8.028   9.864 -0.1160  0.0932  0.4865
 6621SOL     OW31840   1.475   6.179   8.300 -0.1144  0.1427 -0.6035
 6621SOL    HW131841   1.531   6.195   8.224 -1.0047  0.9912 -1.1056
 6621SOL    HW231842   1.386   6.186   8.265 -0.5290 -0.4720  0.3216
 6622SOL     OW31843   3.202   0.710   5.804 -0.0514 -0.6156 -0.4182
 6622SOL    HW131844   3.220   0.655   5.880  1.2154  2.0913  1.3809
 6622SOL    HW231845   3.177   0.795   5.840 -1.8789  0.1119 -3.0627
 6623SOL     OW31846   0.797   4.042   2.393  0.5922 -0.3300 -0.2331
 6623SOL    HW131847   0.840   4.059   2.476 -0.3914  1.5636 -0.0489
 6623SOL    HW231848   0.833   4.108   2.333  0.5750 -1.0349 -1.0336
 6624SOL     OW31849   3.250   0.809   7.460 -0.3458 -0.2586  0.5921
 6624SOL    HW131850   3.223   0.899   7.444  0.1407 -0.2877 -0.5050
 6624SOL    HW231851   3.169   0.759   7.458 -0.4251 -0.0971 -0.7471
 6625SOL     OW31852   5.204   1.535   6.767  0.1773 -0.0593 -0.1123
 6625SOL    HW131853   5.125   1.485   6.750  1.2303 -1.6887 -0.4094
 6625SOL    HW231854   5.264   1.512   6.696  0.8311  1.3444 -0.0498
 6626SOL     OW31855   8.995   4.886   4.533  0.3743 -0.3521  0.4035
 6626SOL    HW131856   9.084   4.921   4.541 -0.3694  2.0473 -0.8617
 6626SOL    HW231857   9.004   4.811   4.474  1.3705  0.9370 -1.1754
 6627SOL     OW31858   5.371   0.968   6.550 -0.2763  0.8067  0.2567
 6627SOL    HW131859   5.460   0.933   6.560 -0.3309  0.4326 -0.5052
 6627SOL    HW231860   5.364   0.991   6.457 -0.3455  2.5984  0.6610
 6628SOL     OW31861   8.758   6.598   3.580 -0.4761  0.2602 -0.3105
 6628SOL    HW131862   8.777   6.652   3.504 -1.0428 -0.8400 -1.2723
 6628SOL    HW231863   8.844   6.576   3.616 -0.2054  0.8580 -0.5838
 6629SOL     OW31864   0.252   5.958  10.169 -0.2867  0.0445  0.1661
 6629SOL    HW131865   0.270   6.052  10.162 -0.5456  0.0696 -0.2167
 6629SOL    HW231866   0.254   5.940  10.262 -0.1001  0.4051  0.2350
 6630SOL     OW31867   9.727   5.194   3.569  0.2414  0.5078  0.0554
 6630SOL    HW131868   9.750   5.185   3.662  1.4263  1.4252 -0.1223
 6630SOL    HW231869   9.715   5.288   3.556 -2.5759  0.1933 -0.1656
 6631SOL     OW31870   8.833  10.285   5.072 -0.4045  0.0020  0.1798
 6631SOL    HW131871   8.816  10.377   5.090  0.0423 -0.2279  1.9692
 6631SOL    HW231872   8.822  10.276   4.977  1.2731  2.2565 -0.2978
 6632SOL     OW31873   8.244   1.709   6.079 -0.2902 -0.5845  0.6259
 6632SOL    HW131874   8.208   1.790   6.045  1.8820  0.6331  1.0109
 6632SOL    HW231875   8.284   1.667   6.002 -0.6953 -0.9020  0.5827
 6633SOL     OW31876   5.395   7.617   9.069 -0.0713  0.6059  0.0258
 6633SOL    HW131877   5.346   7.641   8.991  1.9807 -0.1797 -1.6057
 6633SOL    HW231878   5.400   7.521   9.066  0.3671  0.5891  0.9158
 6634SOL     OW31879  10.356   8.532   7.146  0.1287 -0.7182  0.5507
 6634SOL    HW131880  10.306   8.560   7.069  0.3130 -0.3331  0.5681
 6634SOL    HW231881  10.303   8.463   7.186 -0.2730 -0.4787  0.4330
 6635SOL     OW31882   4.372   1.763   3.186 -0.1811  0.5839  0.3437
 6635SOL    HW131883   4.316   1.695   3.147  0.9383 -0.2701  0.1561
 6635SOL    HW231884   4.379   1.738   3.278 -0.7561  1.1497  0.5436
 6636SOL     OW31885   0.392   4.778   2.235  0.1959  0.6620 -0.0014
 6636SOL    HW131886   0.436   4.728   2.303 -1.2502 -1.1230 -0.3137
 6636SOL    HW231887   0.422   4.739   2.153 -0.9126  0.3088 -0.2533
 6637SOL     OW31888   0.250   2.602   2.391 -0.1156 -0.5301  0.0201
 6637SOL    HW131889   0.277   2.514   2.364  0.7002 -0.0782 -0.7078
 6637SOL    HW231890   0.321   2.632   2.448  0.3602  0.2000 -0.9171
 6638SOL     OW31891   0.449   1.236   7.659 -0.0961  0.3874 -0.2452
 6638SOL    HW131892   0.497   1.162   7.621 -1.5718 -0.6862 -0.1149
 6638SOL    HW231893   0.364   1.199   7.684 -0.8223  2.1055 -0.0297
 6639SOL     OW31894   0.417   3.657   6.892  0.5002 -0.0042 -0.3400
 6639SOL    HW131895   0.392   3.666   6.800 -1.1734  1.8788  0.2218
 6639SOL    HW231896   0.506   3.693   6.896  0.3038  0.5864 -1.0914
 6640SOL     OW31897   2.131   0.258   1.966  0.1551 -0.1206 -0.1841
 6640SOL    HW131898   2.166   0.214   2.043  0.4676  0.0647 -0.2174
 6640SOL    HW231899   2.060   0.202   1.936  0.4495 -0.5202 -0.1368
 6641SOL     OW31900   0.724   5.913   9.068 -0.4753 -0.4519  0.0484
 6641SOL    HW131901   0.641   5.879   9.036 -1.4298  1.9016 -0.1834
 6641SOL    HW231902   0.725   5.893   9.161 -1.1467 -0.8194 -0.0209
 6642SOL     OW31903   4.027   4.862   7.672  0.7196  0.2477 -0.4108
 6642SOL    HW131904   3.955   4.848   7.611 -0.7608 -1.0932  1.5071
 6642SOL    HW231905   4.013   4.951   7.705  0.3415  0.2369 -0.5417
 6643SOL     OW31906  10.045   1.300   3.535  0.0274 -0.0856  0.0986
 6643SOL    HW131907   9.978   1.319   3.469  0.2660  0.3027 -0.0327
 6643SOL    HW231908  10.015   1.219   3.577 -0.0281 -0.4353 -0.6103
 6644SOL     OW31909   4.559   0.137   9.952  0.5746  0.6719  0.6933
 6644SOL    HW131910   4.490   0.192   9.914  0.1088  0.0109  0.5719
 6644SOL    HW231911   4.579   0.073   9.884  1.7158  1.1988  0.5080
 6645SOL     OW31912   3.471   6.663   7.752 -0.6279 -0.4922 -0.3685
 6645SOL    HW131913   3.550   6.712   7.776 -0.1620 -1.3806 -0.0468
 6645SOL    HW231914   3.412   6.729   7.715 -0.4909  0.5213  1.1331
 6646SOL     OW31915   5.112   6.649   8.486  0.7849  0.1456 -0.2042
 6646SOL    HW131916   5.017   6.667   8.484  0.2928 -2.1772  0.1683
 6646SOL    HW231917   5.137   6.667   8.577  0.5819  0.2181 -0.1596
 6647SOL     OW31918   9.859   0.432   2.876 -0.1501 -0.2162 -0.1351
 6647SOL    HW131919   9.888   0.388   2.956 -1.5713  1.4049  1.3513
 6647SOL    HW231920   9.883   0.523   2.889  0.2264 -0.0383 -1.9093
 6648SOL     OW31921   3.720   9.253   0.443  0.1165  0.2186  0.2112
 6648SOL    HW131922   3.683   9.333   0.482  0.7104  0.7125 -0.2313
 6648SOL    HW231923   3.764   9.282   0.364 -0.1354 -0.6330 -0.2606
 6649SOL     OW31924   1.020   6.072   5.098 -0.1822 -0.0149 -0.6244
 6649SOL    HW131925   0.993   5.995   5.048  0.3176 -1.6999  1.5338
 6649SOL    HW231926   0.946   6.090   5.157  0.8400 -0.7707  0.9620
 6650SOL     OW31927   1.337   4.092   8.796  0.0119  0.0882  0.4693
 6650SOL    HW131928   1.385   4.171   8.772 -0.0100  0.1360  0.5805
 6650SOL    HW231929   1.245   4.119   8.793 -0.0784 -0.3316 -0.9564
 6651SOL     OW31930   3.853  10.075   9.571 -0.3273  0.5027  0.2463
 6651SOL    HW131931   3.840  10.099   9.663 -0.2041  2.0727 -0.1256
 6651SOL    HW231932   3.843  10.157   9.523  1.5569  0.0772 -0.9736
 6652SOL     OW31933   4.696   5.971   3.271 -0.5854 -0.0843 -0.0309
 6652SOL    HW131934   4.618   5.930   3.234 -1.1002  0.5395  0.3405
 6652SOL    HW231935   4.751   5.991   3.196 -0.6358 -0.8222 -0.2694
 6653SOL     OW31936   0.111   9.921   7.230 -0.2665 -0.2288  0.6366
 6653SOL    HW131937   0.114  10.016   7.238 -1.7336 -0.1942  1.0544
 6653SOL    HW231938   0.066   9.905   7.146  1.1914 -0.5743 -0.1097
 6654SOL     OW31939   8.176   6.654   5.591  0.2956  0.3814  1.0343
 6654SOL    HW131940   8.228   6.588   5.637  0.3048 -0.1649  0.2654
 6654SOL    HW231941   8.201   6.737   5.631  2.6488  0.2955 -0.0924
 6655SOL     OW31942   0.740   3.600   9.065  0.4229  0.1249  0.4569
 6655SOL    HW131943   0.767   3.618   8.975  0.3608 -3.0412 -0.3160
 6655SOL    HW231944   0.695   3.516   9.060  2.6205 -1.4760  3.8071
 6656SOL     OW31945   9.732   5.197   6.810  0.1940 -0.1817  0.2588
 6656SOL    HW131946   9.662   5.132   6.806  0.1453 -0.2957  2.2006
 6656SOL    HW231947   9.785   5.180   6.732 -1.0782 -1.0547 -0.4576
 6657SOL     OW31948   0.202   9.631   1.002  0.2331 -0.2170  0.3045
 6657SOL    HW131949   0.288   9.606   1.034  0.7946  0.7450 -0.4308
 6657SOL    HW231950   0.158   9.547   0.986  0.7081 -0.7130  1.4920
 6658SOL     OW31951   7.710   9.957   5.397  0.1476  0.0840 -0.0653
 6658SOL    HW131952   7.783   9.916   5.443  0.0223 -0.7715 -0.6047
 6658SOL    HW231953   7.719  10.051   5.416  1.4411  0.0062 -0.2029
 6659SOL     OW31954   7.187   0.898   4.066  0.1339 -0.3972  0.3672
 6659SOL    HW131955   7.195   0.827   4.002  1.9976 -0.5024  0.6567
 6659SOL    HW231956   7.194   0.978   4.014  1.3558 -0.4793  0.3874
 6660SOL     OW31957   7.187   8.705   5.020 -0.1658  0.1502 -0.4999
 6660SOL    HW131958   7.177   8.699   5.115 -1.0294  2.5194 -0.3767
 6660SOL    HW231959   7.173   8.797   5.000  2.0897  0.1313 -2.7126
 6661SOL     OW31960   4.692   7.357   4.472  0.2464 -0.0014 -0.3439
 6661SOL    HW131961   4.697   7.318   4.385 -1.9971 -0.7449 -0.2156
 6661SOL    HW231962   4.720   7.287   4.531  2.8488  0.8403 -0.4371
 6662SOL     OW31963   3.454   4.085   8.412  0.0261  0.0516 -0.2171
 6662SOL    HW131964   3.411   4.073   8.497  0.9731 -1.1661  0.1183
 6662SOL    HW231965   3.523   4.149   8.428 -0.7569  0.9901 -0.4513
 6663SOL     OW31966   7.234   3.935   6.710 -0.1678  0.2340 -0.2539
 6663SOL    HW131967   7.291   3.977   6.645  0.7927 -0.5982  0.0226
 6663SOL    HW231968   7.209   3.852   6.669  0.0983 -0.1052  0.2656
 6664SOL     OW31969   0.921   0.201   9.206 -0.0630  0.0536  0.3239
 6664SOL    HW131970   0.991   0.240   9.154 -0.5437 -0.6866 -0.9276
 6664SOL    HW231971   0.905   0.116   9.166  0.7439 -1.3596  2.7780
 6665SOL     OW31972   3.981   5.616   4.466 -0.1221  1.5100 -0.1313
 6665SOL    HW131973   4.047   5.587   4.530 -0.2570  2.0589  0.2693
 6665SOL    HW231974   3.904   5.563   4.487 -0.0444  1.4043 -0.1056
 6666SOL     OW31975   5.252   5.626   7.727 -0.5492 -0.5648  0.5201
 6666SOL    HW131976   5.165   5.667   7.729 -0.6074 -0.6356 -0.2667
 6666SOL    HW231977   5.276   5.618   7.820  0.0902  2.5862  0.7544
 6667SOL     OW31978   0.536   0.746   1.674 -0.3319  0.4709  0.3645
 6667SOL    HW131979   0.487   0.751   1.757 -0.2769  0.3806  0.4026
 6667SOL    HW231980   0.503   0.819   1.622 -2.2433 -0.9314 -0.5359
 6668SOL     OW31981   1.413   6.431   6.826  0.3747  0.3743  0.2975
 6668SOL    HW131982   1.368   6.460   6.905 -1.0217 -0.0189 -0.3156
 6668SOL    HW231983   1.405   6.505   6.766 -0.1505  0.0145 -0.0807
 6669SOL     OW31984   0.733   0.966   6.157 -0.8024  0.4067  0.7506
 6669SOL    HW131985   0.753   0.958   6.251 -0.2741 -1.4137  0.5191
 6669SOL    HW231986   0.815   0.999   6.119  0.5041 -2.8522  0.4178
 6670SOL     OW31987   0.225   3.533   8.266 -0.2085  0.3937 -0.4675
 6670SOL    HW131988   0.218   3.626   8.286  0.5589  0.0911  1.4187
 6670SOL    HW231989   0.179   3.489   8.338  0.9749 -0.7244 -0.3581
 6671SOL     OW31990   9.529   1.776   6.647 -0.1244 -0.2373 -0.0425
 6671SOL    HW131991   9.467   1.713   6.611  1.1917 -1.8193  0.3307
 6671SOL    HW231992   9.596   1.785   6.580 -0.7111  1.4565 -0.4440
 6672SOL     OW31993   2.109   8.785   4.215  0.3002 -0.5882  0.1464
 6672SOL    HW131994   2.074   8.848   4.277 -0.6085 -0.9795  0.0460
 6672SOL    HW231995   2.047   8.786   4.142  0.4406 -1.3625  0.0072
 6673SOL     OW31996   5.418   7.581   7.260  0.1486 -0.5730  0.0834
 6673SOL    HW131997   5.432   7.672   7.233 -2.1492 -1.1049 -3.5633
 6673SOL    HW231998   5.450   7.529   7.187  0.7802 -2.7268  1.7996
 6674SOL     OW31999   5.642   1.293   7.017  0.2225 -0.6861 -0.2288
 6674SOL    HW132000   5.561   1.343   7.028 -0.4779 -2.1423  1.9015
 6674SOL    HW232001   5.618   1.221   6.959 -0.0391 -1.1250  0.4130
 6675SOL     OW32002   2.417   2.920   5.880 -0.0221 -0.5592 -0.7557
 6675SOL    HW132003   2.441   3.010   5.904 -1.6707 -0.4072  0.4946
 6675SOL    HW232004   2.429   2.917   5.786  1.6431  0.4531 -0.6314
 6676SOL     OW32005   1.283   8.140   6.777 -1.0706 -0.3244 -0.2120
 6676SOL    HW132006   1.282   8.147   6.682 -0.4554  0.6468 -0.1666
 6676SOL    HW232007   1.235   8.217   6.808 -0.4458 -0.1101  0.2625
 6677SOL     OW32008   0.224   4.572   8.463  0.2542 -0.5554  0.1233
 6677SOL    HW132009   0.130   4.560   8.474 -0.0587 -0.5867 -2.1446
 6677SOL    HW232010   0.248   4.511   8.394  1.3971  1.3441 -1.2698
 6678SOL     OW32011   8.329   9.992   9.298 -0.2484 -0.0883  0.8599
 6678SOL    HW132012   8.295   9.910   9.263  1.3523  0.1306 -1.4278
 6678SOL    HW232013   8.251  10.042   9.324 -1.4386 -1.1207 -0.5494
 6679SOL     OW32014   7.304   6.193  10.031 -0.0323  0.1749 -0.9714
 6679SOL    HW132015   7.288   6.239   9.949 -2.9975  0.1242 -0.5540
 6679SOL    HW232016   7.257   6.110  10.022 -1.9118  0.8609  1.2682
 6680SOL     OW32017   1.769   1.359   2.094 -0.1857 -0.3082  0.0454
 6680SOL    HW132018   1.797   1.351   2.003 -0.5059 -0.3581 -0.0495
 6680SOL    HW232019   1.841   1.322   2.144  0.2731  0.3172 -0.1507
 6681SOL     OW32020   6.712   7.967   6.907  0.0762  0.3660  0.4494
 6681SOL    HW132021   6.786   7.971   6.969  1.0012  0.8868 -0.6411
 6681SOL    HW232022   6.681   8.057   6.901 -0.2980  0.2411  0.4802
 6682SOL     OW32023   1.588   6.517   1.110  0.3807 -0.2098  0.3170
 6682SOL    HW132024   1.522   6.479   1.053  1.0909 -1.8826  0.5702
 6682SOL    HW232025   1.636   6.443   1.145  1.7347  0.9141  0.9538
 6683SOL     OW32026   7.964   0.705   8.529 -0.2332 -0.0738  0.3052
 6683SOL    HW132027   7.995   0.791   8.557  1.7178 -0.8541  0.7022
 6683SOL    HW232028   8.010   0.688   8.447  1.7863 -1.9394  1.6985
 6684SOL     OW32029   5.418   8.711   0.521 -0.4384  0.1163  0.4662
 6684SOL    HW132030   5.324   8.726   0.529 -0.5440 -1.3903  4.5827
 6684SOL    HW232031   5.458   8.797   0.532 -1.2349  1.0187 -2.8977
 6685SOL     OW32032   9.722   4.158   3.534  0.0125 -0.5105  0.5189
 6685SOL    HW132033   9.679   4.089   3.484  1.8113 -0.6660 -0.9466
 6685SOL    HW232034   9.771   4.112   3.602  4.9108 -1.4739 -3.0963
 6686SOL     OW32035   6.406   9.012   3.135 -0.0634  0.1743  0.5158
 6686SOL    HW132036   6.472   8.992   3.069  1.4431  2.6636  1.1035
 6686SOL    HW232037   6.334   8.953   3.116  2.0611 -2.3067 -0.5299
 6687SOL     OW32038   5.857   0.625   4.053 -0.3191 -0.0004  0.0452
 6687SOL    HW132039   5.878   0.543   4.010 -0.3608  0.6161 -1.1864
 6687SOL    HW232040   5.942   0.658   4.084 -0.0635  0.3166 -0.9750
 6688SOL     OW32041   3.093   3.624   2.160 -0.5113  0.0869  0.1915
 6688SOL    HW132042   3.174   3.575   2.145 -0.1566  0.6410  0.2649
 6688SOL    HW232043   3.100   3.700   2.101 -1.3293 -0.2644 -0.3619
 6689SOL     OW32044   0.467  10.086   6.195 -0.0849  0.0151 -0.1318
 6689SOL    HW132045   0.506  10.005   6.230 -2.8265 -1.0801  0.6897
 6689SOL    HW232046   0.462  10.145   6.270 -0.9073 -0.2386  0.0189
 6690SOL     OW32047   3.237   7.675   2.385  0.2319  0.2247 -0.1112
 6690SOL    HW132048   3.142   7.686   2.383  0.1471 -0.1589  0.9680
 6690SOL    HW232049   3.261   7.689   2.477  0.8586 -2.2140  0.1864
 6691SOL     OW32050   0.890   5.065   4.391  0.0015  0.0646 -0.3810
 6691SOL    HW132051   0.854   4.988   4.434  0.2379  0.3637  0.3825
 6691SOL    HW232052   0.848   5.139   4.435  1.0368  0.4009  0.0731
 6692SOL     OW32053   7.662   6.560   4.124 -0.4012  0.5172 -0.5979
 6692SOL    HW132054   7.571   6.541   4.146 -0.3309  0.4213 -0.3865
 6692SOL    HW232055   7.704   6.579   4.208 -0.9224  3.7551 -0.9702
 6693SOL     OW32056   4.168   7.149   1.603  0.3287  0.2940  0.3673
 6693SOL    HW132057   4.144   7.220   1.543 -3.5770  0.4895  1.8904
 6693SOL    HW232058   4.236   7.187   1.659 -0.9359  2.5161  0.4800
 6694SOL     OW32059   0.689   4.384   5.816 -0.4400  0.4983  0.2050
 6694SOL    HW132060   0.654   4.353   5.733  0.2964  1.3197 -0.4446
 6694SOL    HW232061   0.634   4.459   5.839 -2.3378 -1.2761  1.8660
 6695SOL     OW32062   8.273   1.658   9.661  0.4829 -0.1445 -0.2312
 6695SOL    HW132063   8.231   1.711   9.730  1.8003 -0.1415  0.6051
 6695SOL    HW232064   8.362   1.691   9.656  0.2671  0.2204 -2.3704
 6696SOL     OW32065   5.483   8.815   9.457 -0.1798  0.4016  0.1208
 6696SOL    HW132066   5.501   8.736   9.508  1.9780  0.9509  0.2859
 6696SOL    HW232067   5.414   8.859   9.506 -1.3197 -1.2683  0.1131
 6697SOL     OW32068   4.426   9.948   0.811  0.7957  0.2755 -0.7113
 6697SOL    HW132069   4.488   9.891   0.767  0.6880 -0.0445 -0.4504
 6697SOL    HW232070   4.363   9.889   0.852  1.7664  0.4809  1.2080
 6698SOL     OW32071   8.572   2.011   0.196  0.2582 -0.1970 -0.3838
 6698SOL    HW132072   8.514   1.939   0.170  0.2849 -0.0571 -0.8379
 6698SOL    HW232073   8.660   1.981   0.171  0.1879  0.2929 -1.2352
 6699SOL     OW32074   1.666   6.867   4.522 -0.1755  0.2345 -0.4649
 6699SOL    HW132075   1.750   6.838   4.558  0.7795  0.8842 -2.0621
 6699SOL    HW232076   1.673   6.851   4.428 -1.9989 -0.0195 -0.6065
 6700SOL     OW32077   4.013   9.008   6.537 -0.2407 -0.0503  0.4209
 6700SOL    HW132078   3.926   9.040   6.513 -0.2919  0.7279  1.5535
 6700SOL    HW232079   4.073   9.075   6.502 -0.1112 -0.4470 -0.1254
 6701SOL     OW32080  10.371   6.671   4.785 -0.9714  0.4783 -0.1847
 6701SOL    HW132081  10.366   6.576   4.770  0.4990  0.6951 -2.5196
 6701SOL    HW232082  10.292   6.691   4.835 -1.5829 -1.8937 -0.0656
 6702SOL     OW32083   8.148   5.836   6.194 -0.0080  0.6577  0.1036
 6702SOL    HW132084   8.131   5.909   6.253 -1.2549  0.7153 -0.3013
 6702SOL    HW232085   8.067   5.784   6.195  0.8232 -0.7032  0.3412
 6703SOL     OW32086   8.058   2.521   4.978 -0.3180 -0.4073  0.0898
 6703SOL    HW132087   7.964   2.508   4.992 -0.2876 -1.3925 -0.5274
 6703SOL    HW232088   8.068   2.519   4.882  0.4130 -0.9213  0.1769
 6704SOL     OW32089   7.565   5.020   8.211 -0.1859 -0.0871  0.1353
 6704SOL    HW132090   7.508   5.024   8.288 -0.0960 -0.8967  0.2549
 6704SOL    HW232091   7.648   5.058   8.240 -0.0790 -0.6006  0.5114
 6705SOL     OW32092   7.591   3.851   4.480  0.2383 -0.4448  0.3907
 6705SOL    HW132093   7.615   3.940   4.456  1.1026 -0.3118  1.6669
 6705SOL    HW232094   7.571   3.808   4.397  0.0791  0.8528 -0.2616
 6706SOL     OW32095   0.599   9.012   1.018 -0.3061  0.4740 -0.1538
 6706SOL    HW132096   0.541   9.008   1.094 -1.7032  1.2514 -1.1151
 6706SOL    HW232097   0.682   8.975   1.048 -1.1509 -0.2242  1.4199
 6707SOL     OW32098   5.743   4.830   6.223  0.3658  0.6079  0.2532
 6707SOL    HW132099   5.804   4.863   6.289 -0.5302  1.2900  0.7638
 6707SOL    HW232100   5.675   4.897   6.218 -0.1569  0.0263 -0.5581
 6708SOL     OW32101   3.731   7.063   8.735  0.1152 -0.0891  0.3426
 6708SOL    HW132102   3.783   7.135   8.770  1.4119 -1.6022  1.7134
 6708SOL    HW232103   3.641   7.087   8.755  0.4690  1.4655  0.1386
 6709SOL     OW32104   8.653   0.679   7.424  0.3645  0.1762  0.5995
 6709SOL    HW132105   8.677   0.652   7.335 -0.7300 -1.5808  0.7968
 6709SOL    HW232106   8.683   0.608   7.480 -2.2764 -0.6008  1.1867
 6710SOL     OW32107   0.275   7.282   7.348 -0.1287  0.4127  0.5460
 6710SOL    HW132108   0.194   7.308   7.305 -0.1284  0.5101  0.6047
 6710SOL    HW232109   0.330   7.247   7.278 -1.3416 -2.4501  0.8725
 6711SOL     OW32110   1.824   8.740   2.698 -0.0970 -0.8258  0.8870
 6711SOL    HW132111   1.854   8.777   2.615 -2.2139  0.0575  0.4494
 6711SOL    HW232112   1.859   8.651   2.698  0.2251 -0.7463 -0.8059
 6712SOL     OW32113   2.706   1.572   6.600 -0.0271  0.0892 -0.0869
 6712SOL    HW132114   2.637   1.639   6.604 -1.0429 -0.8903 -0.6082
 6712SOL    HW232115   2.768   1.597   6.668  0.1564  2.1304 -0.9146
 6713SOL     OW32116   3.065   0.361   4.857  0.7161 -0.1189  0.3716
 6713SOL    HW132117   3.079   0.353   4.952 -1.3999  0.6437  0.8007
 6713SOL    HW232118   3.006   0.289   4.835 -0.2774  0.7756  0.0093
 6714SOL     OW32119   9.140   5.961   5.466  0.5577  0.1944 -0.1845
 6714SOL    HW132120   9.216   5.920   5.424  0.8642  0.3702  0.1950
 6714SOL    HW232121   9.066   5.935   5.411  0.8621 -0.1553 -0.4373
 6715SOL     OW32122   9.899   4.558   4.156 -0.4380  0.0896 -0.2130
 6715SOL    HW132123   9.990   4.568   4.130 -0.4485  0.5111 -0.1046
 6715SOL    HW232124   9.882   4.633   4.214 -0.6890 -0.3040  0.2334
 6716SOL     OW32125   5.044   5.657   7.972  0.3462 -0.0196 -0.3636
 6716SOL    HW132126   5.133   5.625   7.989  0.4289 -0.2549 -1.2191
 6716SOL    HW232127   5.021   5.622   7.886  0.2913  1.9075 -1.1913
 6717SOL     OW32128   5.602   5.108   8.476  0.1163 -0.1987 -0.3146
 6717SOL    HW132129   5.589   5.069   8.390  0.7654  0.4444 -0.7148
 6717SOL    HW232130   5.597   5.202   8.461  2.0410 -0.0044  0.0180
 6718SOL     OW32131   4.529   8.028  10.175 -0.2241  0.5008 -0.3857
 6718SOL    HW132132   4.587   8.055  10.247  0.6639 -1.5579 -0.2433
 6718SOL    HW232133   4.581   7.964  10.126 -1.0429  1.3871 -2.5169
 6719SOL     OW32134  10.165   4.852   7.083 -0.5795 -0.6386  0.2498
 6719SOL    HW132135  10.101   4.923   7.075 -0.4216 -0.5226  0.0204
 6719SOL    HW232136  10.247   4.889   7.053 -0.1665 -0.4833  1.5297
 6720SOL     OW32137   8.400   5.850   1.844 -0.5192 -0.6188 -0.1162
 6720SOL    HW132138   8.428   5.868   1.754  0.2518 -0.7289  0.0969
 6720SOL    HW232139   8.342   5.923   1.866  1.8681  1.2451  0.4306
 6721SOL     OW32140   9.333   1.316   3.498 -0.6057 -0.5939  0.7492
 6721SOL    HW132141   9.425   1.324   3.474 -0.4333 -0.7436  1.3363
 6721SOL    HW232142   9.329   1.346   3.589 -1.3207  0.4145  0.3997
 6722SOL     OW32143   7.535   0.463   0.403  0.1189 -0.4268  0.1628
 6722SOL    HW132144   7.507   0.554   0.411 -0.6021 -0.3869 -2.1125
 6722SOL    HW232145   7.538   0.430   0.493  1.1540  2.0276  1.1008
 6723SOL     OW32146   2.516   5.433   5.790  0.1394 -0.0150 -0.6432
 6723SOL    HW132147   2.497   5.340   5.802 -2.4825  0.5622  0.4162
 6723SOL    HW232148   2.433   5.477   5.810  1.4820  2.6067 -0.4150
 6724SOL     OW32149   0.897   2.264   2.826 -0.0112  0.7630 -0.2866
 6724SOL    HW132150   0.825   2.219   2.870 -0.0437  2.1334  1.1451
 6724SOL    HW232151   0.856   2.310   2.753 -0.7193  2.0088  0.8603
 6725SOL     OW32152   5.469   5.067   7.346 -0.1721 -0.2313  0.1164
 6725SOL    HW132153   5.430   4.987   7.308 -1.6791  1.4125 -2.0591
 6725SOL    HW232154   5.461   5.055   7.440 -2.0011 -1.9078 -0.1834
 6726SOL     OW32155   1.605   6.037   4.065  0.9343  0.1039 -0.3442
 6726SOL    HW132156   1.569   6.123   4.044  1.5899  0.4454 -0.0918
 6726SOL    HW232157   1.695   6.054   4.093  1.0549 -0.6564 -0.2350
 6727SOL     OW32158   8.065   5.882   5.795  0.2853  0.1951  0.3399
 6727SOL    HW132159   8.078   5.934   5.875 -0.7505  0.7559  0.1629
 6727SOL    HW232160   8.153   5.859   5.767  0.6472 -0.4315  1.9139
 6728SOL     OW32161   9.854   1.788   5.237  0.1383 -0.2470 -0.1463
 6728SOL    HW132162   9.871   1.750   5.323  0.9734 -0.6855 -0.4963
 6728SOL    HW232163   9.781   1.737   5.202 -0.2012 -0.0717  0.2933
 6729SOL     OW32164   6.007   7.540   4.731  0.4696 -0.1301 -0.4134
 6729SOL    HW132165   6.012   7.462   4.787  0.0953  0.1504  0.0158
 6729SOL    HW232166   5.926   7.529   4.681 -1.1298  1.2995  1.6763
 6730SOL     OW32167   1.505   2.854   5.773 -0.0998  0.6972  0.3857
 6730SOL    HW132168   1.476   2.910   5.701 -0.3445  0.0889  0.0009
 6730SOL    HW232169   1.518   2.914   5.846  0.9443  1.4571 -0.3758
 6731SOL     OW32170   7.528   7.662   5.895  0.4083  0.2581  0.5315
 6731SOL    HW132171   7.602   7.712   5.860  1.5634 -1.8568 -0.2238
 6731SOL    HW232172   7.548   7.571   5.873 -1.3084 -0.6368  2.3524
 6732SOL     OW32173   6.642   1.627   3.881  0.6417  0.2106  0.3104
 6732SOL    HW132174   6.731   1.630   3.846  0.7790 -0.3389  0.6058
 6732SOL    HW232175   6.619   1.534   3.879  0.6866  0.1470  1.7661
 6733SOL     OW32176   2.126   1.326   7.942 -0.1098 -0.0950  0.4829
 6733SOL    HW132177   2.159   1.336   7.852 -1.2007  1.5553  0.2242
 6733SOL    HW232178   2.205   1.317   7.995  0.6901  1.3707 -0.3768
 6734SOL     OW32179   5.063   0.191   7.548  0.3821 -0.9532 -0.0695
 6734SOL    HW132180   5.048   0.278   7.511 -0.7823 -1.1728 -0.1724
 6734SOL    HW232181   5.079   0.135   7.472 -0.4295 -1.1089 -0.1352
 6735SOL     OW32182   4.400   2.076   5.857  0.1300 -0.2262 -0.0037
 6735SOL    HW132183   4.327   2.013   5.855  0.9726 -1.2205 -0.3147
 6735SOL    HW232184   4.360   2.157   5.889 -1.0826 -0.7841 -0.0191
 6736SOL     OW32185   7.722   8.468   9.145  0.0661  0.1085  0.1245
 6736SOL    HW132186   7.692   8.554   9.118  0.5222 -0.0806 -1.0407
 6736SOL    HW232187   7.769   8.434   9.069 -0.8045 -1.5087  0.2627
 6737SOL     OW32188   5.934   2.882   7.979  0.8765  0.0142 -0.4794
 6737SOL    HW132189   5.921   2.800   8.026  0.3223  0.5319  0.2744
 6737SOL    HW232190   5.951   2.947   8.047 -1.6025  1.1144 -0.8245
 6738SOL     OW32191   4.116   1.276   0.482  0.0725  0.2769  0.1713
 6738SOL    HW132192   4.074   1.359   0.459 -0.9866 -0.3917 -0.3718
 6738SOL    HW232193   4.105   1.221   0.404  3.4506  0.5967 -0.6889
 6739SOL     OW32194   7.902   8.499  10.034  0.0404  0.2055 -0.3414
 6739SOL    HW132195   7.969   8.435  10.007  3.8040  3.1308  1.1462
 6739SOL    HW232196   7.882   8.547   9.954 -0.2243 -0.6158 -0.7827
 6740SOL     OW32197   4.106   6.228   6.483 -0.9300  0.4747  0.1960
 6740SOL    HW132198   4.099   6.135   6.502  1.6226  0.2155  0.1493
 6740SOL    HW232199   4.197   6.251   6.502 -0.1348  1.8944 -4.1684
 6741SOL     OW32200   0.691   5.394   8.206  0.4661  0.3771 -0.4737
 6741SOL    HW132201   0.669   5.456   8.136 -0.3157 -0.4879 -1.0172
 6741SOL    HW232202   0.609   5.382   8.254  1.3927  2.3688  1.8053
 6742SOL     OW32203   3.693   3.460   2.668  0.4479  0.3866  0.4126
 6742SOL    HW132204   3.658   3.443   2.581  1.1790  1.6128 -0.1484
 6742SOL    HW232205   3.621   3.500   2.716  0.1014 -0.1138  0.3115
 6743SOL     OW32206   2.013   6.478   6.468  0.5340  0.4707  0.0044
 6743SOL    HW132207   2.051   6.390   6.460  2.0213  1.1736 -1.2842
 6743SOL    HW232208   2.079   6.536   6.431 -1.0673  1.9855 -0.6319
 6744SOL     OW32209   0.287   4.142   3.954  0.2523  0.0964 -0.1653
 6744SOL    HW132210   0.354   4.148   3.885  1.0192 -0.9621  0.4497
 6744SOL    HW232211   0.276   4.048   3.969 -2.1051  0.2047 -0.9086
 6745SOL     OW32212   8.726   5.560   6.295 -0.0413 -0.1067  0.5654
 6745SOL    HW132213   8.786   5.626   6.330  0.9768 -0.4593 -0.4270
 6745SOL    HW232214   8.672   5.535   6.369  2.5924 -1.4728  2.1916
 6746SOL     OW32215   8.719   8.035   1.301 -0.8242  0.1411 -0.5871
 6746SOL    HW132216   8.705   8.071   1.389 -2.0232  2.4782 -1.6370
 6746SOL    HW232217   8.774   8.099   1.257 -1.5226 -0.1945 -2.0148
 6747SOL     OW32218   2.294   2.930   5.400 -0.6892 -0.0556  0.4594
 6747SOL    HW132219   2.377   2.895   5.367 -0.3443 -2.1730  3.2171
 6747SOL    HW232220   2.272   3.000   5.339  2.7102  0.0753 -0.8390
 6748SOL     OW32221   1.872   3.537   7.176  0.2470  0.5309 -0.1119
 6748SOL    HW132222   1.841   3.519   7.087  2.4536  1.1140 -1.0424
 6748SOL    HW232223   1.884   3.451   7.215 -1.8047  0.2760  0.0634
 6749SOL     OW32224   3.741   7.819   7.481  0.1486 -0.0459  0.3235
 6749SOL    HW132225   3.714   7.749   7.539 -1.5582  0.1456 -0.1787
 6749SOL    HW232226   3.718   7.788   7.393 -2.2639  1.7469  0.2167
 6750SOL     OW32227   2.705   9.561   8.726 -0.3757  0.3800  0.2174
 6750SOL    HW132228   2.680   9.469   8.726  2.2528 -0.4213  1.2960
 6750SOL    HW232229   2.648   9.602   8.790 -0.3791 -0.8892  1.0529
 6751SOL     OW32230   0.187   3.204   0.104 -0.1039  0.3284  0.2163
 6751SOL    HW132231   0.199   3.147   0.179  3.1737  1.3269  0.6073
 6751SOL    HW232232   0.239   3.164   0.034  2.3482  2.6880  0.5171
 6752SOL     OW32233   7.860   8.301   4.793 -0.0265 -0.3822  0.1279
 6752SOL    HW132234   7.917   8.340   4.726  1.0538 -2.1880 -0.0659
 6752SOL    HW232235   7.892   8.211   4.803 -1.0614 -0.5948  2.0737
 6753SOL     OW32236   8.647   0.418   0.960  0.2279 -0.3133 -0.2206
 6753SOL    HW132237   8.690   0.501   0.940 -1.7393  0.6451 -0.7333
 6753SOL    HW232238   8.563   0.423   0.914  0.1454 -2.6892 -0.4168
 6754SOL     OW32239   4.137   5.501   4.989  0.3951 -0.4411  0.6124
 6754SOL    HW132240   4.168   5.517   4.899 -1.3718  0.2540  0.0761
 6754SOL    HW232241   4.156   5.582   5.035 -0.1779 -0.1791  0.4018
 6755SOL     OW32242   2.781   1.676   1.036  0.0277  0.1682  0.3396
 6755SOL    HW132243   2.859   1.725   1.010  1.0484 -1.7584 -0.4441
 6755SOL    HW232244   2.709   1.737   1.023  1.3225  1.7641  0.3521
 6756SOL     OW32245   7.665   1.979  10.207  0.6570 -0.0479 -0.5981
 6756SOL    HW132246   7.618   1.900  10.235  2.7054 -1.1986 -0.2239
 6756SOL    HW232247   7.697   2.018  10.287  1.8795 -0.3025 -0.9520
 6757SOL     OW32248   0.964   4.491   8.091 -0.1837  0.5382 -0.2006
 6757SOL    HW132249   0.969   4.398   8.114  0.1976  0.8578  1.1283
 6757SOL    HW232250   0.870   4.510   8.090 -0.3560 -0.2082 -2.1216
 6758SOL     OW32251   3.583   8.065   3.970 -0.4995  0.1269 -0.2185
 6758SOL    HW132252   3.546   8.043   4.056 -0.7069  0.1211 -0.3108
 6758SOL    HW232253   3.528   8.019   3.907  1.2244 -2.0910 -0.2389
 6759SOL     OW32254   2.446   6.377   8.999  0.2480 -0.3002  0.0431
 6759SOL    HW132255   2.352   6.358   8.994  0.5119 -1.7761  0.2249
 6759SOL    HW232256   2.473   6.390   8.909 -0.2645  0.9399  0.0444
 6760SOL     OW32257   6.035   9.964   1.510 -0.1895 -0.0263 -0.7363
 6760SOL    HW132258   5.967   9.920   1.459  1.2558 -1.8374 -1.1981
 6760SOL    HW232259   6.028   9.925   1.597 -0.5249  0.6922 -0.4324
 6761SOL     OW32260   1.315   7.871   0.465 -0.1071 -0.3446  0.0481
 6761SOL    HW132261   1.247   7.858   0.531  0.4746  0.8265  0.9158
 6761SOL    HW232262   1.280   7.940   0.408 -0.6332 -1.3897 -0.9403
 6762SOL     OW32263   3.302   5.074   1.487 -0.4071 -0.0778 -0.1091
 6762SOL    HW132264   3.378   5.129   1.468 -0.7298  0.2101 -0.6074
 6762SOL    HW232265   3.247   5.082   1.409 -1.0326 -0.1407  0.3175
 6763SOL     OW32266   5.586   2.828   7.284 -0.2599 -0.4605  0.4228
 6763SOL    HW132267   5.602   2.795   7.373 -0.0281 -1.0218  0.1799
 6763SOL    HW232268   5.567   2.749   7.233 -0.4309 -0.1361 -0.0186
 6764SOL     OW32269   2.921   0.299   9.326 -0.1115 -0.0717 -0.1581
 6764SOL    HW132270   2.981   0.350   9.380  0.7857 -1.1468 -0.0955
 6764SOL    HW232271   2.864   0.253   9.389  2.0352 -2.6790  0.0781
 6765SOL     OW32272   2.543   5.340   1.892  0.6148 -0.4991 -0.0367
 6765SOL    HW132273   2.500   5.290   1.960  0.3493  0.2252  0.3361
 6765SOL    HW232274   2.549   5.280   1.818 -0.8677 -0.6777 -0.0367
 6766SOL     OW32275   0.518   8.875   0.354 -0.4673 -0.2108  0.0529
 6766SOL    HW132276   0.547   8.894   0.265  0.8237 -1.1487  0.2420
 6766SOL    HW232277   0.498   8.782   0.354 -0.1251 -0.2974  0.8126
 6767SOL     OW32278   7.058   6.776   6.652  0.5609 -0.0334 -0.1680
 6767SOL    HW132279   7.084   6.860   6.689  0.2264 -0.4909  1.1622
 6767SOL    HW232280   6.967   6.788   6.627  0.2928 -0.2153  0.7079
 6768SOL     OW32281   7.818   4.110   9.192  0.1781 -0.2634 -0.2374
 6768SOL    HW132282   7.831   4.057   9.114  0.0131  0.3376 -0.6826
 6768SOL    HW232283   7.789   4.195   9.159 -4.1568 -1.1847  0.5386
 6769SOL     OW32284  10.085   8.936   3.966  0.5352 -0.1518  0.4385
 6769SOL    HW132285  10.124   9.000   3.906 -4.0584  1.4555 -1.3563
 6769SOL    HW232286  10.071   8.858   3.912 -1.0696  0.3208  0.0873
 6770SOL     OW32287   1.849   7.064   7.473  0.1904  0.0937  0.6968
 6770SOL    HW132288   1.935   7.031   7.497  0.2276  0.6406  1.3319
 6770SOL    HW232289   1.836   7.142   7.528 -1.0209 -0.4082  1.1592
 6771SOL     OW32290   0.360   7.180   6.126  0.6111  0.3815 -0.0941
 6771SOL    HW132291   0.274   7.167   6.165  1.4599 -0.1902  1.7110
 6771SOL    HW232292   0.354   7.264   6.081 -1.4646 -0.5789 -1.7867
 6772SOL     OW32293   2.930   2.015   4.459  0.6675 -0.3849 -0.0477
 6772SOL    HW132294   2.864   2.001   4.527  0.0452  1.3134 -0.2593
 6772SOL    HW232295   2.994   1.945   4.473 -0.0743 -0.7904  1.5083
 6773SOL     OW32296   5.386   3.873   1.127  0.0028 -0.7465  0.4220
 6773SOL    HW132297   5.379   3.968   1.120  0.1035 -0.8610 -2.2833
 6773SOL    HW232298   5.470   3.859   1.171  1.2015  0.4391 -1.3748
 6774SOL     OW32299   0.817   6.138   0.042 -0.2654 -0.3277 -0.4845
 6774SOL    HW132300   0.722   6.129   0.035 -0.5160 -1.4153  2.7081
 6774SOL    HW232301   0.848   6.048   0.056  0.8990  0.3080  1.2182
 6775SOL     OW32302   6.385   0.882   0.449 -0.6502  0.6914  0.2900
 6775SOL    HW132303   6.408   0.966   0.409  2.9033 -0.7612 -0.9968
 6775SOL    HW232304   6.403   0.895   0.543  0.5887  1.1845  0.0027
 6776SOL     OW32305   6.619   8.675   3.106 -0.2063 -0.4484 -0.5466
 6776SOL    HW132306   6.614   8.770   3.093 -0.8705 -0.3586  0.2840
 6776SOL    HW232307   6.529   8.649   3.125  0.4140 -0.6859  2.7205
 6777SOL     OW32308   4.192   5.274   1.012 -0.1054 -0.3572  0.3792
 6777SOL    HW132309   4.151   5.203   1.060 -1.3422 -1.4521 -2.1289
 6777SOL    HW232310   4.239   5.232   0.941  2.1874  1.1581  0.8621
 6778SOL     OW32311   1.481   8.012   6.176 -0.4738 -0.3426  0.0756
 6778SOL    HW132312   1.476   7.985   6.268 -0.6651 -0.5718 -0.0022
 6778SOL    HW232313   1.403   7.975   6.135 -0.0539 -0.7917 -0.3229
 6779SOL     OW32314   3.365   5.128   2.393  0.0534 -0.0801 -0.1781
 6779SOL    HW132315   3.399   5.106   2.480 -1.3355 -0.1341  0.3817
 6779SOL    HW232316   3.391   5.055   2.337 -0.5321 -0.9048  0.6083
 6780SOL     OW32317   3.421   0.832   9.272 -0.3095  0.1026 -0.2824
 6780SOL    HW132318   3.515   0.839   9.257  0.0435 -0.1681  1.5609
 6780SOL    HW232319   3.411   0.839   9.367 -1.9993 -1.4117 -0.2920
 6781SOL     OW32320   6.771   5.054   6.950 -0.4249 -0.0425  1.0242
 6781SOL    HW132321   6.822   5.016   7.021  1.4598 -1.0530 -0.7765
 6781SOL    HW232322   6.833   5.109   6.902 -1.3257 -0.3192 -0.5302
 6782SOL     OW32323   7.610   7.394   9.939 -0.2556  0.4238  0.3145
 6782SOL    HW132324   7.548   7.406  10.011  1.4825  0.9644  1.7849
 6782SOL    HW232325   7.633   7.483   9.912 -0.1221  0.2279 -0.2330
 6783SOL     OW32326   0.861   5.765   0.299 -0.6203  0.0426 -0.3754
 6783SOL    HW132327   0.795   5.715   0.250  1.5966 -2.7931 -0.7100
 6783SOL    HW232328   0.847   5.740   0.391 -0.3228 -0.2312 -0.4008
 6784SOL     OW32329   3.037   9.793   0.037  0.2816  0.8241 -0.4504
 6784SOL    HW132330   3.018   9.839  -0.045  2.6034 -0.5455 -1.8562
 6784SOL    HW232331   3.125   9.821   0.061 -0.1540  0.7806  1.3183
 6785SOL     OW32332   3.825   7.660   0.839  0.3886 -0.2514 -0.1185
 6785SOL    HW132333   3.732   7.656   0.819  0.5154 -1.5565 -0.5248
 6785SOL    HW232334   3.850   7.750   0.817 -0.7264  0.0682 -0.1521
 6786SOL     OW32335   1.055   7.205   7.445  0.1152 -0.2096  0.3879
 6786SOL    HW132336   1.030   7.277   7.388  1.3806  0.3398  0.4820
 6786SOL    HW232337   1.039   7.126   7.393  2.4960  0.3282 -1.3063
 6787SOL     OW32338   9.055   2.027   2.485  0.2234 -0.4444  0.9806
 6787SOL    HW132339   9.127   2.082   2.515 -0.7031 -0.4824  3.5311
 6787SOL    HW232340   9.097   1.960   2.429  1.3684  2.7378 -2.3637
 6788SOL     OW32341   5.797   3.965   2.923 -0.0326 -0.2167  0.0275
 6788SOL    HW132342   5.843   4.049   2.933 -0.0557 -0.1627 -0.3104
 6788SOL    HW232343   5.856   3.912   2.870  0.1132 -0.5179  0.4886
 6789SOL     OW32344   4.938   8.111   1.848  0.4742  0.0160 -0.1878
 6789SOL    HW132345   4.973   8.052   1.915  0.1052 -1.2067 -1.0514
 6789SOL    HW232346   5.014   8.160   1.818  0.8384 -0.2213  0.3218
 6790SOL     OW32347   5.699   4.336   5.319 -0.1273 -0.1619  0.2829
 6790SOL    HW132348   5.657   4.251   5.331 -0.5322 -0.0569 -0.3668
 6790SOL    HW232349   5.686   4.381   5.403  0.5017 -0.9067  0.7985
 6791SOL     OW32350  10.324   3.663   7.746  0.6803 -0.1383 -0.3385
 6791SOL    HW132351  10.410   3.652   7.787  0.1875 -0.4619  0.6336
 6791SOL    HW232352  10.262   3.635   7.813 -0.1371 -1.2295 -1.4953
 6792SOL     OW32353   5.543   2.465   3.169 -0.1946  0.1257  0.1405
 6792SOL    HW132354   5.501   2.462   3.255 -0.2151 -0.8226  0.1021
 6792SOL    HW232355   5.471   2.452   3.107  0.1244 -1.4913  0.0736
 6793SOL     OW32356   0.396   8.877   1.177  0.2914 -0.6755 -0.5979
 6793SOL    HW132357   0.308   8.886   1.141 -0.0906 -0.2486  0.3957
 6793SOL    HW232358   0.434   8.804   1.128 -0.2308 -0.1951 -1.7598
 6794SOL     OW32359   7.202   9.760   2.235  0.2904  0.8722  0.0756
 6794SOL    HW132360   7.243   9.829   2.287  0.1165  0.3484  0.9316
 6794SOL    HW232361   7.271   9.730   2.176  1.4933 -0.6185  2.1008
 6795SOL     OW32362   5.063   1.502   1.278 -0.8146 -0.0698 -0.0102
 6795SOL    HW132363   5.081   1.569   1.212 -0.8605  1.1454  1.1616
 6795SOL    HW232364   5.145   1.455   1.287 -1.1132 -0.9739 -1.6924
 6796SOL     OW32365   8.548   8.552   4.671  0.1534  0.2710  0.1431
 6796SOL    HW132366   8.454   8.537   4.664  0.0578  1.5179 -1.9959
 6796SOL    HW232367   8.561   8.642   4.643  2.1532 -0.4036 -1.4052
 6797SOL     OW32368   3.852   4.559   9.888 -0.0582 -0.0671  0.2978
 6797SOL    HW132369   3.808   4.642   9.906 -1.3514 -0.2066 -1.9497
 6797SOL    HW232370   3.784   4.502   9.853  1.2412 -1.4002 -0.1519
 6798SOL     OW32371   1.614   8.137   1.239  0.6956 -0.2111  0.3264
 6798SOL    HW132372   1.590   8.155   1.148  0.5502 -2.4458 -0.1420
 6798SOL    HW232373   1.662   8.054   1.234  1.1417 -0.1020  2.2468
 6799SOL     OW32374   5.785   1.022   5.177  0.6632  0.0039  0.2497
 6799SOL    HW132375   5.818   0.935   5.155  2.4558  0.9761 -1.1909
 6799SOL    HW232376   5.694   1.021   5.148  1.0853 -0.9359 -1.1125
 6800SOL     OW32377   7.661   4.655   7.832 -0.0566  0.0995  0.3398
 6800SOL    HW132378   7.753   4.643   7.810  0.3692  1.0601  1.5222
 6800SOL    HW232379   7.636   4.573   7.876  0.4357  0.1063  0.6380
 6801SOL     OW32380   3.525   3.741   3.491 -0.6404 -0.1329  0.0405
 6801SOL    HW132381   3.488   3.803   3.553 -0.9736 -0.5390  0.2514
 6801SOL    HW232382   3.597   3.700   3.537  0.2826  0.8723 -0.4728
 6802SOL     OW32383   3.893   0.336   8.469  0.1714 -0.1906 -0.6306
 6802SOL    HW132384   3.878   0.426   8.440  0.4929 -0.3114 -1.1823
 6802SOL    HW232385   3.989   0.327   8.469  0.1814 -0.2064  0.4415
 6803SOL     OW32386   0.001  10.299   9.157 -0.5446 -0.1185  0.3084
 6803SOL    HW132387   0.018  10.393   9.152 -1.5324  0.1119  1.0595
 6803SOL    HW232388  -0.077  10.285   9.104 -0.5723 -0.4752  0.4382
 6804SOL     OW32389   0.921   6.835   4.542  0.6702 -0.5112 -0.6342
 6804SOL    HW132390   0.984   6.806   4.476  1.3934  0.0065 -0.1827
 6804SOL    HW232391   0.924   6.767   4.610  0.9424 -0.3466 -0.4828
 6805SOL     OW32392   4.962   0.690   8.404 -0.1464  0.4204 -0.3601
 6805SOL    HW132393   4.982   0.598   8.384 -0.5629  0.3226 -0.3193
 6805SOL    HW232394   5.029   0.715   8.468 -0.8163 -0.2471  0.6421
 6806SOL     OW32395   9.237   4.131   0.765 -0.0850 -0.1334 -0.1628
 6806SOL    HW132396   9.188   4.203   0.804 -0.5759 -0.6136  0.1165
 6806SOL    HW232397   9.322   4.170   0.742 -0.2591  0.4733  0.1925
 6807SOL     OW32398   2.647   3.328   7.495  0.2550  0.1399 -0.5567
 6807SOL    HW132399   2.620   3.393   7.561 -0.3669  2.0091 -2.5137
 6807SOL    HW232400   2.742   3.340   7.488  0.2531  0.2944 -0.3523
 6808SOL     OW32401   6.892   3.284   8.117 -0.7516  0.0664  0.6296
 6808SOL    HW132402   6.983   3.308   8.102 -0.5406 -1.4435 -0.7361
 6808SOL    HW232403   6.844   3.367   8.109  0.4474  0.8625  1.2592
 6809SOL     OW32404   8.973   1.058   3.216 -0.3834 -0.6032  0.3919
 6809SOL    HW132405   9.012   1.008   3.288  1.3796  1.1123  0.7190
 6809SOL    HW232406   8.905   1.111   3.258  0.2936  0.0156  0.7269
 6810SOL     OW32407   1.433   7.683   6.228 -0.0804  0.4966  0.0309
 6810SOL    HW132408   1.379   7.752   6.188  0.4013 -0.1583 -1.8562
 6810SOL    HW232409   1.517   7.689   6.183  1.0674  0.6997  2.0722
 6811SOL     OW32410   4.732   5.380   2.738  0.1012 -0.3851 -0.0078
 6811SOL    HW132411   4.730   5.287   2.762  0.3774 -0.5258 -0.5210
 6811SOL    HW232412   4.657   5.392   2.680 -2.7933  0.7308  3.5538
 6812SOL     OW32413   1.980   3.497   2.880 -0.0927  0.5830  0.5790
 6812SOL    HW132414   1.888   3.520   2.864  0.1031  0.5359 -0.7609
 6812SOL    HW232415   1.977   3.403   2.898 -0.0607 -0.0875 -2.4303
 6813SOL     OW32416   9.687   3.771   8.209 -0.0733 -0.2715  0.2353
 6813SOL    HW132417   9.752   3.743   8.274  0.1553  0.2323  0.2390
 6813SOL    HW232418   9.660   3.858   8.239  0.3428  0.1434 -0.5623
 6814SOL     OW32419   1.681   0.971   3.604  0.4845  0.3624 -0.8406
 6814SOL    HW132420   1.666   1.066   3.604  2.0074  0.6902  1.2731
 6814SOL    HW232421   1.600   0.934   3.568 -1.3582  2.3590  0.9168
 6815SOL     OW32422   7.987   8.188   0.695 -0.0191  0.0024  0.2657
 6815SOL    HW132423   8.074   8.157   0.672 -0.1995 -0.3738  0.0843
 6815SOL    HW232424   7.937   8.181   0.614 -0.3799 -0.3564  0.5167
 6816SOL     OW32425   7.004   0.089   9.461 -0.0343  0.0276  0.1639
 6816SOL    HW132426   6.934   0.134   9.415  0.6645  0.9631 -0.0046
 6816SOL    HW232427   6.960   0.018   9.509 -0.8518 -0.5551 -1.3972
 6817SOL     OW32428   5.144   8.438   4.248  0.2424 -0.8650 -0.2048
 6817SOL    HW132429   5.083   8.366   4.229 -1.1687 -0.1123  1.2784
 6817SOL    HW232430   5.155   8.482   4.163 -1.5900 -0.8024 -0.4502
 6818SOL     OW32431   8.220   0.912   4.477 -0.2552  0.5063  0.5026
 6818SOL    HW132432   8.139   0.862   4.487  0.0106 -0.3559 -1.2258
 6818SOL    HW232433   8.203   0.971   4.404  0.8031  0.0135 -0.1621
 6819SOL     OW32434   2.684   5.651   9.450  0.5454  0.1602 -1.0844
 6819SOL    HW132435   2.724   5.595   9.516  0.6078 -0.4771 -1.6549
 6819SOL    HW232436   2.654   5.728   9.498 -2.0250 -1.5346  0.2334
 6820SOL     OW32437   7.729   9.522   9.422 -0.0269 -0.3397  0.4152
 6820SOL    HW132438   7.806   9.480   9.461  0.5525 -1.2424 -1.5401
 6820SOL    HW232439   7.764   9.566   9.344 -1.3931 -0.3164 -0.2043
 6821SOL     OW32440   7.296   8.682   3.880 -0.6042  0.4854 -0.1147
 6821SOL    HW132441   7.346   8.743   3.825 -1.9553  0.9264 -0.9123
 6821SOL    HW232442   7.346   8.601   3.876 -0.1064  0.8199 -1.1406
 6822SOL     OW32443   8.701  10.012   4.604  0.5160  0.3587 -0.3903
 6822SOL    HW132444   8.697  10.107   4.590 -1.2076  0.1439 -1.6672
 6822SOL    HW232445   8.702   9.975   4.516  3.1836 -0.8338  0.0276
 6823SOL     OW32446   1.438   3.567   0.589  0.0306  0.0103  0.4439
 6823SOL    HW132447   1.404   3.537   0.673 -1.1877 -0.2785 -0.1324
 6823SOL    HW232448   1.457   3.660   0.603  0.2973 -0.1495  1.1740
 6824SOL     OW32449   4.531   8.178   1.499  0.1649 -0.3133  0.0439
 6824SOL    HW132450   4.550   8.138   1.583 -1.6281 -0.2643  0.5129
 6824SOL    HW232451   4.444   8.218   1.510  1.7507  3.8003 -0.3436
 6825SOL     OW32452   9.684   4.645   7.235  0.7284 -0.3154  0.1441
 6825SOL    HW132453   9.691   4.609   7.147  1.5715  1.8368 -0.7272
 6825SOL    HW232454   9.751   4.713   7.239  1.1378 -0.7709  2.6771
 6826SOL     OW32455   8.709   5.936   7.463  0.0626  0.3669 -0.0377
 6826SOL    HW132456   8.744   6.017   7.502  1.3691 -0.6309  0.9658
 6826SOL    HW232457   8.783   5.899   7.416  0.5438 -1.8898  2.2683
 6827SOL     OW32458   4.889   0.286   5.345 -0.0845 -0.0944 -0.1734
 6827SOL    HW132459   4.915   0.226   5.274  0.4574 -0.7652  0.5756
 6827SOL    HW232460   4.856   0.228   5.414 -0.4546  0.5415  0.1942
 6828SOL     OW32461   8.065   9.588   6.066  0.3740  0.0726 -0.0219
 6828SOL    HW132462   8.082   9.534   6.143  1.5939  0.3410 -0.0851
 6828SOL    HW232463   8.090   9.533   5.992  0.9031  0.4468 -0.1255
 6829SOL     OW32464   5.461   2.803   2.816 -0.1629  0.2711  0.1659
 6829SOL    HW132465   5.446   2.762   2.901 -0.6448 -1.9849 -0.9283
 6829SOL    HW232466   5.554   2.791   2.800 -0.5483 -2.0496 -0.8442
 6830SOL     OW32467   0.036  10.324   0.029  0.1761 -0.1491  0.5282
 6830SOL    HW132468   0.063  10.402  -0.020  1.2062 -0.1565  1.0486
 6830SOL    HW232469   0.034  10.255  -0.037 -0.1994  0.1942  0.1681
 6831SOL     OW32470   5.723   9.664   3.620 -0.0649  0.0146 -0.5118
 6831SOL    HW132471   5.672   9.667   3.538  1.2581 -0.5699 -1.3891
 6831SOL    HW232472   5.673   9.718   3.681 -0.8247  0.8922 -1.8557
 6832SOL     OW32473   4.658   0.650   5.608 -0.1565 -0.5350 -0.4495
 6832SOL    HW132474   4.728   0.587   5.621  2.5710  2.4309  0.3416
 6832SOL    HW232475   4.615   0.622   5.527  2.0852 -2.3199 -1.1197
 6833SOL     OW32476   2.441   3.658   0.730  0.2918 -0.1285  0.1997
 6833SOL    HW132477   2.515   3.707   0.693  1.3318 -1.1170  0.9013
 6833SOL    HW232478   2.457   3.658   0.824 -0.4066 -0.6703  0.3257
 6834SOL     OW32479   9.835   2.655   1.540 -0.5344 -0.5192 -0.1361
 6834SOL    HW132480   9.892   2.585   1.571 -1.4017 -0.4856  1.6353
 6834SOL    HW232481   9.813   2.630   1.450  1.7666 -0.8199 -0.6832
 6835SOL     OW32482   3.222   8.862   4.661  0.8698 -0.1729  0.3491
 6835SOL    HW132483   3.174   8.930   4.707 -1.3163 -1.8408  0.7303
 6835SOL    HW232484   3.305   8.902   4.637  0.6388  1.8560  2.5963
 6836SOL     OW32485   3.229   2.967   9.645 -0.2128  0.2507 -0.3089
 6836SOL    HW132486   3.208   3.026   9.573  0.7964 -0.8333 -1.5328
 6836SOL    HW232487   3.314   2.930   9.623  0.0171 -0.3102  1.3271
 6837SOL     OW32488   8.774   4.815   2.566 -0.3907 -0.7477  0.2933
 6837SOL    HW132489   8.812   4.864   2.493 -1.4427 -2.2393 -1.3351
 6837SOL    HW232490   8.723   4.880   2.614 -0.3798  0.1070 -0.8086
 6838SOL     OW32491  10.104   7.709   5.471 -0.1898  0.5062  0.4054
 6838SOL    HW132492  10.063   7.659   5.401  0.1139  0.3459  0.3396
 6838SOL    HW232493  10.198   7.700   5.455 -0.1350  1.0974  0.3968
 6839SOL     OW32494   5.451   9.346   4.383 -0.0359 -0.2293 -0.5793
 6839SOL    HW132495   5.387   9.351   4.312 -0.6937  0.0170  0.0128
 6839SOL    HW232496   5.439   9.258   4.420  0.0572 -0.2302 -0.5517
 6840SOL     OW32497   9.217   0.522   2.253  0.2869 -0.0592  0.6897
 6840SOL    HW132498   9.216   0.585   2.325 -1.0095  0.5420  0.1717
 6840SOL    HW232499   9.232   0.575   2.175  0.2842 -0.5269  0.3652
 6841SOL     OW32500   3.578   9.350   5.735  0.4781 -0.7367  0.0201
 6841SOL    HW132501   3.491   9.386   5.752  1.3658  0.8783  1.4487
 6841SOL    HW232502   3.570   9.257   5.758 -1.1016 -0.8387 -0.8305
 6842SOL     OW32503   1.114   5.873   9.819  0.1781 -0.2561  0.2283
 6842SOL    HW132504   1.135   5.791   9.864  1.7574  0.6916  1.3024
 6842SOL    HW232505   1.146   5.942   9.877  0.8035  1.0687 -1.5832
 6843SOL     OW32506   9.360   8.533   5.800 -0.5101 -0.4669 -0.0356
 6843SOL    HW132507   9.426   8.543   5.731  0.6968  1.6624  1.3041
 6843SOL    HW232508   9.324   8.446   5.786  0.4896 -0.5572 -2.6406
 6844SOL     OW32509   5.498   1.164   0.831 -0.3435 -0.2461 -0.1050
 6844SOL    HW132510   5.404   1.182   0.832 -0.6347 -1.3137 -2.4880
 6844SOL    HW232511   5.509   1.093   0.895 -0.9780  0.4571  0.8250
 6845SOL     OW32512   3.336   6.123   4.223 -0.4934 -0.1359 -0.1649
 6845SOL    HW132513   3.430   6.104   4.228 -0.3193  0.7606  0.1888
 6845SOL    HW232514   3.294   6.041   4.248  0.1445 -1.0867 -1.9546
 6846SOL     OW32515   1.064   1.230   3.251 -0.3034 -0.8458  0.2074
 6846SOL    HW132516   0.991   1.208   3.310 -0.6211  0.6203  0.4189
 6846SOL    HW232517   1.061   1.326   3.245  0.3946 -0.8973 -1.3554
 6847SOL     OW32518   3.433   3.161  10.134 -0.0071  0.4307 -0.0595
 6847SOL    HW132519   3.484   3.104  10.192 -0.4122  0.3401  0.2144
 6847SOL    HW232520   3.428   3.112  10.051  0.2300  0.3812 -0.0469
 6848SOL     OW32521   3.294   1.439   9.517 -0.1657 -0.2858  0.2485
 6848SOL    HW132522   3.317   1.417   9.427  0.3979  0.1777  0.2665
 6848SOL    HW232523   3.315   1.532   9.524 -1.4573  0.0045  0.4791
 6849SOL     OW32524   1.260   8.654   8.827 -0.2642 -0.6291  0.0952
 6849SOL    HW132525   1.286   8.636   8.737  0.8083 -2.4794  0.7081
 6849SOL    HW232526   1.298   8.582   8.877 -0.7327  0.4162  2.0463
 6850SOL     OW32527   8.159   6.925   9.299  0.1530  0.4347 -0.0182
 6850SOL    HW132528   8.146   6.840   9.340 -1.1057 -0.2187 -1.6837
 6850SOL    HW232529   8.096   6.983   9.341 -0.1655  0.1194 -0.0654
 6851SOL     OW32530   0.212   8.162   8.675 -0.7751  0.3889  0.7870
 6851SOL    HW132531   0.290   8.204   8.710  0.0422 -0.3496 -0.1323
 6851SOL    HW232532   0.212   8.074   8.715 -0.9695  0.2769  0.5426
 6852SOL     OW32533   0.397   8.998   2.625  0.2437 -0.1163 -0.5628
 6852SOL    HW132534   0.344   9.019   2.702  1.7371  0.5426  0.3250
 6852SOL    HW232535   0.412   8.903   2.631  1.2166  0.0875  0.5621
 6853SOL     OW32536   2.433   0.782   2.856 -0.4192  0.0997 -0.0186
 6853SOL    HW132537   2.492   0.707   2.869 -0.4450  0.3212  1.4292
 6853SOL    HW232538   2.372   0.752   2.788  0.4853 -0.6446 -0.5264
 6854SOL     OW32539   5.962   8.227   5.895 -0.6576  0.1914  0.6795
 6854SOL    HW132540   5.893   8.220   5.961 -1.6450  0.1158 -0.3547
 6854SOL    HW232541   5.951   8.150   5.840 -0.3485  0.6779 -0.0688
 6855SOL     OW32542   5.261   5.559   5.916  0.4826 -0.7141 -0.0119
 6855SOL    HW132543   5.192   5.622   5.936  2.0930  0.5823  1.8943
 6855SOL    HW232544   5.277   5.514   5.999  0.5181 -2.5183 -0.9387
 6856SOL     OW32545   0.389   2.069   5.300 -0.1086 -0.0811  0.4225
 6856SOL    HW132546   0.427   1.982   5.312  0.4162  0.0427 -0.3014
 6856SOL    HW232547   0.337   2.062   5.220 -0.1202  0.2494  0.4002
 6857SOL     OW32548   8.671   0.513   5.823 -0.0260  0.0262 -0.4230
 6857SOL    HW132549   8.707   0.472   5.902 -0.4029 -0.4035 -0.4709
 6857SOL    HW232550   8.696   0.454   5.752 -1.2560 -0.5667 -0.3978
 6858SOL     OW32551   2.732   3.226   6.232 -0.0348  0.2770 -0.0944
 6858SOL    HW132552   2.805   3.275   6.194  0.0389  0.8274  0.7404
 6858SOL    HW232553   2.770   3.183   6.309 -0.6155  0.6798  0.4272
 6859SOL     OW32554   4.726   4.652   9.913  0.3308 -0.1459 -0.2452
 6859SOL    HW132555   4.747   4.745   9.916 -0.9885  0.1580 -0.1303
 6859SOL    HW232556   4.805   4.609   9.948  0.6714  0.9619  0.4114
 6860SOL     OW32557   3.615   4.641   9.601  0.3719  0.0278 -0.7059
 6860SOL    HW132558   3.623   4.564   9.657 -0.0473 -0.8959 -1.8539
 6860SOL    HW232559   3.641   4.610   9.514 -0.0525  1.1106 -1.2404
 6861SOL     OW32560   3.684   3.670   1.657 -0.0622 -0.2231  0.2318
 6861SOL    HW132561   3.650   3.740   1.713  1.9086  0.5547  0.5311
 6861SOL    HW232562   3.625   3.596   1.672 -1.9906  1.2200  0.1924
 6862SOL     OW32563   6.146   7.685   0.499 -0.2510 -0.3121  0.1027
 6862SOL    HW132564   6.160   7.776   0.525  0.7369  0.0078 -1.4311
 6862SOL    HW232565   6.212   7.636   0.547 -0.8104 -0.2542  0.9641
 6863SOL     OW32566   4.844   9.118   6.815 -0.6797  0.0959  0.0116
 6863SOL    HW132567   4.763   9.125   6.764 -0.1637  0.7277 -0.7523
 6863SOL    HW232568   4.831   9.179   6.889 -1.3358 -0.6469  0.5191
 6864SOL     OW32569   0.903   7.466   8.062  0.0626 -0.2488 -0.3524
 6864SOL    HW132570   0.958   7.457   7.984 -0.0284 -0.9179 -0.3402
 6864SOL    HW232571   0.821   7.424   8.039 -0.3882  0.5766 -0.2976
 6865SOL     OW32572   1.328   7.894   5.229 -0.1304  0.4511  0.1194
 6865SOL    HW132573   1.325   7.800   5.211  1.0887  0.0422  1.8844
 6865SOL    HW232574   1.303   7.902   5.321 -0.7813  1.9323 -0.1515
 6866SOL     OW32575  10.133   1.925   2.632 -0.2697  0.7881 -0.2730
 6866SOL    HW132576  10.096   1.862   2.570 -1.0802  2.2035 -1.3077
 6866SOL    HW232577  10.222   1.941   2.599  0.0885 -0.1047  0.2376
 6867SOL     OW32578   5.171   8.672   2.120  0.3975  0.0725  0.0013
 6867SOL    HW132579   5.163   8.580   2.146 -0.1059 -0.3268 -1.4536
 6867SOL    HW232580   5.122   8.678   2.038  2.1957  1.1383 -1.0757
 6868SOL     OW32581   5.072   8.447   2.230  0.1268 -0.0803 -0.4984
 6868SOL    HW132582   5.003   8.412   2.174  0.9802 -0.0694 -1.5888
 6868SOL    HW232583   5.089   8.377   2.293 -0.7494 -0.1449 -0.3144
 6869SOL     OW32584   4.694   9.886   4.507  0.0486 -0.0855 -0.2314
 6869SOL    HW132585   4.689   9.796   4.540 -0.3297  0.1026  0.2424
 6869SOL    HW232586   4.722   9.877   4.416  2.4916 -0.5844  0.4717
 6870SOL     OW32587   3.123   4.341   9.957  0.3081  0.3315 -0.1951
 6870SOL    HW132588   3.078   4.257   9.965  1.1828 -0.0962  0.2877
 6870SOL    HW232589   3.109   4.366   9.865  1.2814 -1.0660 -0.7599
 6871SOL     OW32590   9.737   2.000   6.610  0.0501 -0.5662 -0.0439
 6871SOL    HW132591   9.732   1.998   6.514 -2.1673 -0.5417  0.0160
 6871SOL    HW232592   9.758   1.910   6.635 -0.2984 -0.7925 -0.5396
 6872SOL     OW32593   9.563   8.179   2.101  0.3999  0.2655 -0.1289
 6872SOL    HW132594   9.642   8.130   2.080  0.9105  1.1394 -0.2941
 6872SOL    HW232595   9.590   8.237   2.172 -0.5530 -0.6288  1.0147
 6873SOL     OW32596   7.745   2.313  10.301  0.5586 -1.0985  0.5194
 6873SOL    HW132597   7.768   2.230  10.343 -0.5880 -1.0616  1.2651
 6873SOL    HW232598   7.803   2.378  10.342  0.9831 -1.4081  0.4225
 6874SOL     OW32599   9.565   2.402   3.756 -0.0226 -0.4691 -0.4197
 6874SOL    HW132600   9.535   2.318   3.791 -0.6491 -0.8682 -1.8382
 6874SOL    HW232601   9.659   2.390   3.743  0.1218 -0.5017  0.5563
 6875SOL     OW32602   6.528   1.548  10.382  0.4858 -0.0034 -0.8606
 6875SOL    HW132603   6.473   1.590  10.448  1.0297 -0.5851 -0.0157
 6875SOL    HW232604   6.466   1.517  10.316  0.0638  2.1751 -1.5797
 6876SOL     OW32605   0.475   0.754   3.082  0.6950 -0.0249 -0.3760
 6876SOL    HW132606   0.518   0.708   3.009 -0.2010  0.0395 -0.9539
 6876SOL    HW232607   0.548   0.788   3.134  1.3531  0.4819 -1.5832
 6877SOL     OW32608   0.130   4.732   9.754  0.4381 -0.1958 -0.0988
 6877SOL    HW132609   0.085   4.790   9.814  0.6697  0.3671 -0.4630
 6877SOL    HW232610   0.143   4.651   9.803  1.7956  0.6894  1.0647
 6878SOL     OW32611   7.345   1.795   1.318 -0.1407  0.1620 -0.2258
 6878SOL    HW132612   7.289   1.736   1.369 -0.7619 -0.1341 -1.2190
 6878SOL    HW232613   7.425   1.745   1.304  1.9804  1.7526  4.0833
 6879SOL     OW32614   0.061   3.346   0.561  0.0084  0.4584 -0.5064
 6879SOL    HW132615   0.024   3.356   0.474  0.2461  0.6980 -0.5839
 6879SOL    HW232616   0.032   3.260   0.591 -1.6945  1.1733 -0.0290
 6880SOL     OW32617   5.847   7.667   5.148 -0.3861 -0.4284 -0.2516
 6880SOL    HW132618   5.810   7.590   5.105 -0.6278 -0.2375 -0.3879
 6880SOL    HW232619   5.780   7.735   5.140 -0.3575 -0.3305  0.2535
 6881SOL     OW32620   7.028   8.413   1.468 -0.4839 -0.6953  0.0145
 6881SOL    HW132621   7.046   8.441   1.378 -0.1892  1.9237  0.8171
 6881SOL    HW232622   6.938   8.441   1.484  0.0064  0.3957  1.0361
 6882SOL     OW32623   1.107   7.927   4.263 -0.2183  0.7660  0.0869
 6882SOL    HW132624   1.175   7.872   4.224 -0.0390  0.9895  0.0819
 6882SOL    HW232625   1.061   7.965   4.188  1.2874  2.6494  0.0327
 6883SOL     OW32626   6.201   6.163  10.026  0.8092  0.2133 -0.5368
 6883SOL    HW132627   6.179   6.256  10.030  1.3072  0.3023  0.3322
 6883SOL    HW232628   6.225   6.147   9.934 -0.4592  0.6586 -0.9559
 6884SOL     OW32629   5.018   7.189   6.075  0.4467  0.3058 -0.1944
 6884SOL    HW132630   5.004   7.273   6.031 -0.2048 -0.0878 -0.7616
 6884SOL    HW232631   4.959   7.190   6.149  0.0670  0.1439 -0.4925
 6885SOL     OW32632   8.755   4.238   4.274 -0.2645  0.3941 -0.1431
 6885SOL    HW132633   8.803   4.269   4.350  0.8482  1.1435 -1.1312
 6885SOL    HW232634   8.698   4.311   4.250 -2.9999 -0.9265  1.8068
 6886SOL     OW32635   5.560   1.769   6.568 -0.1455  0.1222 -0.2767
 6886SOL    HW132636   5.642   1.780   6.615  0.4052 -0.3549 -1.1078
 6886SOL    HW232637   5.579   1.800   6.479 -0.6809 -0.5932 -0.6475
 6887SOL     OW32638   1.590   6.423   4.256 -0.0570 -0.5494  0.5792
 6887SOL    HW132639   1.653   6.440   4.186 -0.1485 -2.3384  0.0083
 6887SOL    HW232640   1.543   6.345   4.227 -3.4188  1.3694  0.3964
 6888SOL     OW32641   9.759   9.567   7.217  0.3598 -0.1734  0.0082
 6888SOL    HW132642   9.854   9.567   7.228  0.4499 -0.8143 -0.7433
 6888SOL    HW232643   9.732   9.480   7.243 -0.0112 -0.0346  0.0883
 6889SOL     OW32644   3.369   8.888   5.071 -0.2561 -0.2732  0.3391
 6889SOL    HW132645   3.359   8.981   5.048  0.0576 -0.4504 -0.5750
 6889SOL    HW232646   3.462   8.870   5.055 -0.6377 -1.1380 -1.0862
 6890SOL     OW32647   9.542   7.721   1.146 -0.6880  0.0256  0.3354
 6890SOL    HW132648   9.609   7.785   1.124 -0.7747  0.1026  0.2942
 6890SOL    HW232649   9.558   7.648   1.086 -0.5107 -0.0446  0.4679
 6891SOL     OW32650   3.977   0.486   4.056  0.2642 -0.2112  0.3262
 6891SOL    HW132651   4.072   0.477   4.057  0.0210 -4.9350  0.3613
 6891SOL    HW232652   3.950   0.453   3.970 -1.4000 -0.5524  0.9391
 6892SOL     OW32653   0.526   4.943   9.691 -0.0550 -0.1717 -0.4272
 6892SOL    HW132654   0.487   4.904   9.613  0.1695 -0.8071 -0.2349
 6892SOL    HW232655   0.584   5.012   9.658 -0.0431 -0.3666 -0.8167
 6893SOL     OW32656   9.550   0.290   3.642  0.4681 -0.0213  0.1542
 6893SOL    HW132657   9.478   0.279   3.704 -0.2677 -2.0636 -0.9937
 6893SOL    HW232658   9.558   0.206   3.598  1.1880  1.2227 -2.2883
 6894SOL     OW32659   5.799   6.544   4.930  0.8079  0.2015 -0.6354
 6894SOL    HW132660   5.806   6.537   5.026 -0.2083 -0.7194 -0.6067
 6894SOL    HW232661   5.848   6.469   4.897 -1.6323 -1.4657 -0.6894
 6895SOL     OW32662   4.745   0.370   3.861 -0.4562 -0.1736 -0.0195
 6895SOL    HW132663   4.681   0.299   3.858 -0.6120 -0.0291 -0.2115
 6895SOL    HW232664   4.830   0.327   3.856 -0.5774 -0.2481 -2.2987
 6896SOL     OW32665   2.086   0.323   7.178  0.3192 -0.2719  0.1188
 6896SOL    HW132666   2.155   0.381   7.147  1.5473 -1.3226  0.8205
 6896SOL    HW232667   2.008   0.378   7.180  1.4510  1.3801  0.8001
 6897SOL     OW32668   9.263   4.234   9.189 -0.1470 -0.3746 -0.2226
 6897SOL    HW132669   9.218   4.172   9.131  0.9134 -0.5291 -0.8963
 6897SOL    HW232670   9.212   4.232   9.270 -1.3572 -0.5372 -0.9683
 6898SOL     OW32671   7.222   3.354   6.078 -0.8285  0.8197 -0.1655
 6898SOL    HW132672   7.141   3.325   6.035 -1.1721 -0.6730  1.3974
 6898SOL    HW232673   7.197   3.369   6.169  0.4915  1.0759  0.1753
 6899SOL     OW32674   2.827   7.582   8.928  0.2441  0.3362  0.2087
 6899SOL    HW132675   2.888   7.655   8.917 -0.3067  1.1305  2.0433
 6899SOL    HW232676   2.831   7.562   9.022  0.2584 -1.9046 -0.2338
 6900SOL     OW32677   8.924   2.021   5.200 -0.0600  0.1033 -0.2300
 6900SOL    HW132678   8.989   2.017   5.270  1.0934 -1.8824 -1.3299
 6900SOL    HW232679   8.849   1.972   5.233 -0.7679  1.7418  0.7358
 6901SOL     OW32680   5.246   1.226   6.132 -0.5023  0.2889 -0.5635
 6901SOL    HW132681   5.177   1.292   6.140  0.8568  1.6568  0.3876
 6901SOL    HW232682   5.326   1.276   6.120  0.6847 -1.1372  0.8955
 6902SOL     OW32683   0.780   3.400   1.656 -0.6222 -0.2145 -0.0258
 6902SOL    HW132684   0.761   3.324   1.711 -4.0649  0.8710  0.5678
 6902SOL    HW232685   0.697   3.448   1.652  0.5717  1.9464 -2.8542
 6903SOL     OW32686   8.671  10.141   0.407  0.2844 -0.1631 -0.2944
 6903SOL    HW132687   8.721  10.167   0.484  0.5907  0.1412 -0.5884
 6903SOL    HW232688   8.733  10.093   0.353  0.7458  1.5438 -1.3867
 6904SOL     OW32689   5.390   9.477   7.281 -0.8178  0.1788  0.4271
 6904SOL    HW132690   5.407   9.534   7.207  1.5182 -2.2342 -1.0683
 6904SOL    HW232691   5.463   9.493   7.341 -1.6224  0.6849  1.2937
 6905SOL     OW32692   3.508   7.508   7.204  0.1097  0.2931  0.4191
 6905SOL    HW132693   3.440   7.500   7.137  0.5848  1.4018 -0.2236
 6905SOL    HW232694   3.581   7.456   7.170  0.4428  1.0613 -0.0657
 6906SOL     OW32695   8.614   2.541   3.301  0.4493 -0.6815 -0.0035
 6906SOL    HW132696   8.524   2.527   3.275  1.1929 -2.5524 -1.8235
 6906SOL    HW232697   8.658   2.574   3.222  1.5024 -0.4632  0.6460
 6907SOL     OW32698   1.753   0.134   3.113  0.4863  0.0141  0.2288
 6907SOL    HW132699   1.836   0.093   3.086  1.1727  0.8105  1.0855
 6907SOL    HW232700   1.686   0.069   3.089  1.1840 -0.0029 -1.8925
 6908SOL     OW32701   7.441   5.501   9.750 -0.1400  0.3604  0.5669
 6908SOL    HW132702   7.471   5.412   9.768  0.8215  0.8437  1.4422
 6908SOL    HW232703   7.397   5.529   9.830 -0.3047  0.7264  0.3527
 6909SOL     OW32704   5.343   5.930   6.054 -0.1885 -0.2098 -0.0051
 6909SOL    HW132705   5.408   5.888   6.111 -0.4900  0.8195  1.1450
 6909SOL    HW232706   5.338   5.873   5.977 -0.1296 -1.9506  1.2091
 6910SOL     OW32707   5.312   3.790   7.864  0.7786 -0.3653 -0.2767
 6910SOL    HW132708   5.337   3.735   7.938 -0.9392 -0.5909  0.1874
 6910SOL    HW232709   5.312   3.730   7.789  1.2419 -0.4341 -0.2259
 6911SOL     OW32710   4.426   1.621   6.890  0.9830 -0.4662 -0.3486
 6911SOL    HW132711   4.391   1.561   6.956  0.8144 -0.9700 -0.8811
 6911SOL    HW232712   4.507   1.654   6.927  0.5196 -0.1644  0.4263
 6912SOL     OW32713   2.996   7.746   4.528 -0.0411 -0.3102 -0.4732
 6912SOL    HW132714   3.002   7.840   4.546 -0.1084  0.1326 -2.6006
 6912SOL    HW232715   3.083   7.722   4.497 -0.0083 -0.9874  0.1148
 6913SOL     OW32716   0.589   7.933  10.091 -0.8656  0.1376  0.2399
 6913SOL    HW132717   0.619   7.994  10.024  0.7480  0.2119  0.9595
 6913SOL    HW232718   0.655   7.863  10.091 -2.9595 -1.9678 -0.9570
 6914SOL     OW32719   0.514   0.801   9.982  0.4823 -0.0660 -0.2518
 6914SOL    HW132720   0.478   0.714   9.968  1.4072 -0.3965 -0.6909
 6914SOL    HW232721   0.534   0.805  10.076  0.5072 -0.3614 -0.2444
 6915SOL     OW32722   7.952   3.369   9.745 -1.0014 -0.1886  0.2802
 6915SOL    HW132723   7.989   3.440   9.692  0.5304 -0.9714  0.2500
 6915SOL    HW232724   8.028   3.326   9.784 -1.8987 -1.8109  0.3193
 6916SOL     OW32725   6.346   0.084  10.387 -0.0255 -0.1101 -0.7168
 6916SOL    HW132726   6.256   0.070  10.419  0.4998 -0.0245  0.8594
 6916SOL    HW232727   6.400   0.081  10.465  1.3209  0.2555 -1.6043
 6917SOL     OW32728   6.970   0.122   3.305 -0.4256 -0.3501  0.9636
 6917SOL    HW132729   6.926   0.163   3.380 -2.4105  0.2808 -0.4512
 6917SOL    HW232730   7.025   0.191   3.269 -0.7382 -0.1345  0.8925
 6918SOL     OW32731   4.630   9.436   0.252  0.0453 -0.2989 -0.4687
 6918SOL    HW132732   4.666   9.477   0.331  0.8468 -1.6433 -0.0925
 6918SOL    HW232733   4.692   9.458   0.183  1.4278 -2.1706  0.0729
 6919SOL     OW32734   4.961   7.572   9.955 -0.3589  0.2917 -0.2341
 6919SOL    HW132735   4.903   7.624  10.011  0.0337  0.6040 -0.1080
 6919SOL    HW232736   4.903   7.519   9.902 -0.7213 -0.7898  1.2035
 6920SOL     OW32737   7.741   6.250   2.353  0.4328  0.1560  0.7001
 6920SOL    HW132738   7.688   6.256   2.273  1.0062  0.9303  0.3676
 6920SOL    HW232739   7.704   6.175   2.400  0.8323 -1.0744 -0.8417
 6921SOL     OW32740   6.272   7.363   9.332  0.0468 -0.1954 -0.3214
 6921SOL    HW132741   6.351   7.343   9.281  1.2742 -1.4496  1.9460
 6921SOL    HW232742   6.270   7.459   9.335  0.3297 -0.1063 -2.0740
 6922SOL     OW32743   4.481   3.528   4.808 -0.1379 -0.3773  0.2922
 6922SOL    HW132744   4.501   3.508   4.716  0.3404 -0.0802  0.3295
 6922SOL    HW232745   4.561   3.505   4.856  0.4121  1.4811  0.3513
 6923SOL     OW32746   5.644  10.149   3.816  0.1515  0.0265 -0.2283
 6923SOL    HW132747   5.658  10.243   3.820 -0.2238  0.0628  0.2535
 6923SOL    HW232748   5.673  10.124   3.728 -0.1121  0.6484 -0.4961
 6924SOL     OW32749   3.854   8.820   2.735 -0.1399  0.3908  0.1232
 6924SOL    HW132750   3.898   8.737   2.751 -0.6956  0.0755  0.0670
 6924SOL    HW232751   3.798   8.832   2.812 -1.7794 -0.4333 -0.8779
 6925SOL     OW32752   5.699   5.274   6.842 -0.5602 -0.3582 -0.3058
 6925SOL    HW132753   5.710   5.273   6.937  0.1039  0.4062 -0.3642
 6925SOL    HW232754   5.608   5.247   6.829 -0.8945  0.2585  0.5963
 6926SOL     OW32755   2.355   4.753   5.659  0.5019  0.4756 -0.3386
 6926SOL    HW132756   2.403   4.739   5.741 -0.5326  1.1547  0.4150
 6926SOL    HW232757   2.307   4.835   5.673 -1.4392 -0.5313 -0.7569
 6927SOL     OW32758   7.767   8.274   3.850  0.1980 -0.4698 -0.3374
 6927SOL    HW132759   7.683   8.315   3.871  0.9845  0.2344  1.7702
 6927SOL    HW232760   7.790   8.226   3.930  1.7286 -0.7383 -0.9060
 6928SOL     OW32761   0.543   2.082   8.748 -0.5947 -0.8555 -0.0470
 6928SOL    HW132762   0.562   2.170   8.780 -2.1149 -0.2671 -0.6663
 6928SOL    HW232763   0.470   2.052   8.802 -0.0035 -1.7988  0.2444
 6929SOL     OW32764   0.479   3.555   4.598  0.4673 -1.0109 -0.4626
 6929SOL    HW132765   0.392   3.593   4.605  0.1068 -2.0703  4.4374
 6929SOL    HW232766   0.464   3.467   4.563 -0.7734 -1.7433  1.7219
 6930SOL     OW32767   1.255   1.750   5.200 -0.9636 -0.1112 -0.0982
 6930SOL    HW132768   1.174   1.798   5.220 -0.2149  0.8870  0.6354
 6930SOL    HW232769   1.320   1.818   5.184 -0.2070 -0.9013 -0.4644
 6931SOL     OW32770   5.749   8.979   5.253  0.1761 -0.2476  0.7723
 6931SOL    HW132771   5.800   8.898   5.254 -1.8802 -1.6146  1.4579
 6931SOL    HW232772   5.680   8.963   5.189  0.8986  1.8128 -0.6232
 6932SOL     OW32773   2.108   8.784   3.776 -0.1621  0.2855  0.1886
 6932SOL    HW132774   2.050   8.832   3.834 -1.9302 -2.1031  0.5602
 6932SOL    HW232775   2.063   8.785   3.691 -0.4009 -0.9012  0.2782
 6933SOL     OW32776   2.031   7.199   4.288 -0.6276 -0.1588 -0.3350
 6933SOL    HW132777   2.100   7.187   4.352  0.7355 -1.1692 -1.9166
 6933SOL    HW232778   1.995   7.286   4.307 -0.2157 -0.3873  1.6813
 6934SOL     OW32779   6.167   0.247   5.810  0.1333  0.3222 -0.4130
 6934SOL    HW132780   6.202   0.311   5.872  1.2529  0.0689 -0.7552
 6934SOL    HW232781   6.221   0.169   5.823 -2.1460 -1.1224  1.0443
 6935SOL     OW32782   8.346   2.686   4.680 -0.4825  0.0384  0.6653
 6935SOL    HW132783   8.407   2.634   4.628  0.4906  0.4297  1.3831
 6935SOL    HW232784   8.369   2.665   4.771 -1.0571  0.6084  0.9442
 6936SOL     OW32785   6.760   7.537   3.842 -0.1482 -0.0219 -1.2537
 6936SOL    HW132786   6.698   7.523   3.913 -0.7477 -1.1096 -1.9736
 6936SOL    HW232787   6.750   7.461   3.785 -0.4670  1.3001 -3.0829
 6937SOL     OW32788   8.765   1.078   9.833 -0.0912  0.7420 -0.4268
 6937SOL    HW132789   8.833   1.096   9.897  0.7068  0.6879 -1.2476
 6937SOL    HW232790   8.812   1.062   9.751 -0.7968 -2.8169 -0.3030
 6938SOL     OW32791   1.572   6.310   6.616  0.0626  0.4710  0.7927
 6938SOL    HW132792   1.530   6.329   6.700 -1.5651  0.5278  0.0076
 6938SOL    HW232793   1.630   6.384   6.601  0.4830  0.3934  1.9207
 6939SOL     OW32794   0.441  10.091   2.811 -0.0840  0.5783  0.0492
 6939SOL    HW132795   0.474  10.156   2.873 -0.9467  0.7975  0.2959
 6939SOL    HW232796   0.490  10.011   2.831 -0.5526  0.5640  1.2215
 6940SOL     OW32797   1.525   6.826   3.843 -0.1490 -0.1243 -0.1598
 6940SOL    HW132798   1.445   6.834   3.791  0.1413 -0.6151 -0.6787
 6940SOL    HW232799   1.509   6.884   3.918 -1.6770 -1.4334  0.6060
 6941SOL     OW32800   8.419   1.974   7.348  0.1896 -0.3567  0.2602
 6941SOL    HW132801   8.404   2.065   7.376  1.1976 -0.3293  0.7727
 6941SOL    HW232802   8.398   1.974   7.255 -0.1807  0.3118  0.3355
 6942SOL     OW32803   9.230   1.301   6.760 -0.1779 -0.3995  0.6781
 6942SOL    HW132804   9.201   1.300   6.851 -1.2396  0.7244  0.3908
 6942SOL    HW232805   9.325   1.305   6.765 -0.2688  1.4381  1.7952
 6943SOL     OW32806   1.534   0.602   2.327 -0.5911  0.5091  0.3007
 6943SOL    HW132807   1.584   0.545   2.269  1.5630  1.9571  0.5840
 6943SOL    HW232808   1.509   0.547   2.401  0.6482 -0.3069  0.1406
 6944SOL     OW32809   5.708   8.941   4.280  0.1010  0.3919 -0.1137
 6944SOL    HW132810   5.645   8.875   4.252 -0.5600  0.3428  1.3833
 6944SOL    HW232811   5.685   9.019   4.230 -0.3350  0.0163 -0.5031
 6945SOL     OW32812   6.092   5.545   4.039 -0.0956 -0.2295  0.4926
 6945SOL    HW132813   6.149   5.480   4.081  0.8113 -0.0305 -0.3873
 6945SOL    HW232814   6.075   5.509   3.952  1.5704  1.3009 -0.5430
 6946SOL     OW32815   0.056   5.049   0.133 -0.1045  0.8216  0.3159
 6946SOL    HW132816   0.008   4.990   0.074 -0.1722 -0.0751  1.2426
 6946SOL    HW232817  -0.013   5.101   0.175 -0.1737  0.3530  0.7800
 6947SOL     OW32818   6.434   0.119   3.741  0.3268  0.1509  0.1813
 6947SOL    HW132819   6.512   0.128   3.686  0.1471  1.7805  0.1402
 6947SOL    HW232820   6.416   0.025   3.743  1.8703 -0.1775 -0.3907
 6948SOL     OW32821   5.775   1.200   7.244  0.2973 -0.0425 -0.4847
 6948SOL    HW132822   5.741   1.208   7.155  0.9091 -1.0642 -0.8224
 6948SOL    HW232823   5.871   1.199   7.233  0.4084  0.8088  0.2761
 6949SOL     OW32824   3.062   2.981   1.272 -0.1393  0.3126 -0.4452
 6949SOL    HW132825   3.000   2.910   1.286 -1.0394  0.9805 -0.9570
 6949SOL    HW232826   3.139   2.938   1.234 -0.3353 -0.5007  0.0594
 6950SOL     OW32827   3.512   8.588   8.838  0.0877  0.3763  0.3003
 6950SOL    HW132828   3.572   8.644   8.887  2.4303 -2.3679  0.8315
 6950SOL    HW232829   3.469   8.535   8.904 -0.9332  0.4553 -0.2783
 6951SOL     OW32830   3.072   8.681   8.178 -0.6848 -0.0398  0.0424
 6951SOL    HW132831   3.168   8.683   8.184 -0.7233 -0.4967  1.0414
 6951SOL    HW232832   3.054   8.629   8.100 -0.1191  5.2339 -4.2385
 6952SOL     OW32833   8.829   7.506   6.585 -0.1915  0.0144  0.3580
 6952SOL    HW132834   8.901   7.499   6.648 -0.6572  1.3868  1.1127
 6952SOL    HW232835   8.869   7.543   6.507 -0.2543  2.1734  1.2617
 6953SOL     OW32836   5.966   8.383   8.278  0.0271 -0.6949  0.4464
 6953SOL    HW132837   5.985   8.474   8.259 -1.0700 -0.3720  0.8066
 6953SOL    HW232838   5.886   8.385   8.332  0.4961 -1.8151  1.2351
 6954SOL     OW32839   4.020   6.789   5.620 -0.3812  0.2230  0.0848
 6954SOL    HW132840   4.062   6.727   5.560  0.7395  1.1801 -0.1569
 6954SOL    HW232841   4.047   6.761   5.707  0.3687  0.5349 -0.0421
 6955SOL     OW32842   6.198   8.087   1.272 -0.5747 -0.0601 -0.2956
 6955SOL    HW132843   6.287   8.069   1.241  1.0346  2.3027  2.4958
 6955SOL    HW232844   6.166   8.156   1.213 -0.0852 -0.0421 -0.5488
 6956SOL     OW32845   5.317   7.144   3.299 -0.2993  0.3558  0.1127
 6956SOL    HW132846   5.317   7.204   3.374  1.1665 -0.5898  0.9066
 6956SOL    HW232847   5.301   7.058   3.337 -0.0439 -0.0652 -0.7165
 6957SOL     OW32848  10.033   7.584   4.795  0.2567  0.5036 -0.3165
 6957SOL    HW132849  10.119   7.626   4.794  0.4403  0.1146 -0.7563
 6957SOL    HW232850  10.041   7.515   4.862  0.2700  0.5013 -0.3202
 6958SOL     OW32851   3.113   5.798   5.895 -0.4345 -0.1716 -0.0430
 6958SOL    HW132852   3.026   5.759   5.901 -0.6692  0.1696 -1.0282
 6958SOL    HW232853   3.100   5.889   5.923 -0.3534 -0.1793  0.0173
 6959SOL     OW32854   5.101   0.372   7.910 -0.1571 -0.2738  0.1822
 6959SOL    HW132855   5.025   0.368   7.852 -1.9364  1.2745  2.2699
 6959SOL    HW232856   5.089   0.299   7.971 -1.5093  1.4621  2.1474
 6960SOL     OW32857   0.124   3.976   8.581 -0.1527  0.0348 -0.2233
 6960SOL    HW132858   0.034   4.001   8.598 -0.4335 -1.6796  1.1329
 6960SOL    HW232859   0.167   3.979   8.667  0.1471 -2.4253 -0.2020
 6961SOL     OW32860   9.176   6.965   4.069  0.5694  0.4908 -0.3739
 6961SOL    HW132861   9.088   6.941   4.099  0.1933  1.2877 -0.8189
 6961SOL    HW232862   9.210   7.022   4.138  0.7958  0.0955 -0.1480
 6962SOL     OW32863   9.747   5.224  10.331  0.5822  0.2050 -0.2128
 6962SOL    HW132864   9.678   5.214  10.396 -1.2074 -0.3146 -2.0946
 6962SOL    HW232865   9.772   5.316  10.336  0.1512  0.2725  0.8645
 6963SOL     OW32866   3.605   5.074   7.611 -0.2513  0.3984  0.2049
 6963SOL    HW132867   3.660   5.147   7.583  0.1942 -0.4166 -1.1968
 6963SOL    HW232868   3.521   5.088   7.567 -0.2105  0.1563  0.0439
 6964SOL     OW32869   0.961   6.955   4.252 -0.1158  0.7165 -0.3457
 6964SOL    HW132870   0.983   6.927   4.341  0.1719  4.2025  0.8146
 6964SOL    HW232871   0.866   6.959   4.250 -0.1228  0.6180 -0.2332
 6965SOL     OW32872   8.480   6.461   7.522  0.4949  0.0281 -0.0689
 6965SOL    HW132873   8.454   6.539   7.474  1.9690  1.1621  0.8869
 6965SOL    HW232874   8.504   6.398   7.454 -2.5923 -0.3599 -0.9069
 6966SOL     OW32875   8.623   5.399   3.498 -0.2383 -0.3374 -0.1726
 6966SOL    HW132876   8.712   5.433   3.489  0.1914 -1.6813 -1.2946
 6966SOL    HW232877   8.614   5.380   3.591  0.5344  0.1135  0.0062
 6967SOL     OW32878   2.752   2.020   1.177  0.4098  0.3884  0.2099
 6967SOL    HW132879   2.729   1.977   1.095 -0.1254 -1.1325  1.1230
 6967SOL    HW232880   2.738   2.113   1.160 -0.0282  0.0677 -1.3010
 6968SOL     OW32881   3.402   8.673   5.695 -0.5770  0.6193  0.2016
 6968SOL    HW132882   3.446   8.722   5.625  2.8830 -1.7898  0.4239
 6968SOL    HW232883   3.320   8.643   5.655  0.1127  1.3874 -1.9599
 6969SOL     OW32884   8.857   7.788   6.170  0.0049  0.2628 -0.0381
 6969SOL    HW132885   8.945   7.815   6.142  0.6249 -2.0226 -0.5510
 6969SOL    HW232886   8.872   7.705   6.216 -1.8450  0.0821  0.2959
 6970SOL     OW32887   3.374   1.947   5.252 -0.1262  0.1980  0.3661
 6970SOL    HW132888   3.303   1.889   5.280 -0.7270  1.0833  0.7366
 6970SOL    HW232889   3.412   1.980   5.333  0.0367  0.5129  0.1666
 6971SOL     OW32890   2.408   7.511   1.014 -0.2873 -0.0947  0.2556
 6971SOL    HW132891   2.501   7.496   0.999 -0.1098  1.6614 -0.8221
 6971SOL    HW232892   2.363   7.455   0.950  0.0638 -0.4860  0.3564
 6972SOL     OW32893  10.072   6.438   4.988  0.3954 -0.0218 -0.2286
 6972SOL    HW132894  10.025   6.500   4.932  0.4885 -0.3575 -0.6891
 6972SOL    HW232895  10.150   6.414   4.937  0.8089  0.1493  0.3149
 6973SOL     OW32896   5.305   1.818   1.257 -0.2106 -0.0337  0.6016
 6973SOL    HW132897   5.246   1.771   1.199 -0.2454 -0.3824  0.9121
 6973SOL    HW232898   5.328   1.898   1.210  0.8567 -0.9437 -0.5080
 6974SOL     OW32899   0.301   0.925   3.282 -0.1789  0.0623  0.7194
 6974SOL    HW132900   0.395   0.934   3.263  0.2606  2.5462  3.3380
 6974SOL    HW232901   0.276   0.842   3.242  2.9459 -0.2935 -0.7668
 6975SOL     OW32902   3.011   7.849   8.835 -0.0679  0.0251  0.1469
 6975SOL    HW132903   3.022   7.789   8.761 -0.9537  0.3635 -0.2710
 6975SOL    HW232904   3.089   7.905   8.832  0.6818 -0.9735  0.4372
 6976SOL     OW32905   8.979   8.840   7.492 -0.4013  0.4347  0.0358
 6976SOL    HW132906   9.010   8.755   7.522  0.3287  0.3760 -0.8124
 6976SOL    HW232907   8.930   8.821   7.412  0.8156  0.8897 -0.8611
 6977SOL     OW32908   3.902   3.554   8.807 -0.3407 -0.3355  0.0755
 6977SOL    HW132909   3.855   3.630   8.839  0.9140  0.6587 -0.3455
 6977SOL    HW232910   3.869   3.481   8.859 -0.8379  0.6623  1.1906
 6978SOL     OW32911   3.496   3.744   0.471  0.0837 -0.0328 -0.1257
 6978SOL    HW132912   3.546   3.826   0.474  0.9955 -0.5468  3.9117
 6978SOL    HW232913   3.411   3.766   0.509 -0.1151 -0.7058 -0.1737
 6979SOL     OW32914   3.471   2.283   2.543  0.3370 -0.2029 -0.0430
 6979SOL    HW132915   3.496   2.232   2.620 -0.2204 -0.5090 -0.0561
 6979SOL    HW232916   3.430   2.362   2.578  1.9365  0.6530 -0.0111
 6980SOL     OW32917   2.385   4.067   5.311 -0.2973  0.2162 -0.3339
 6980SOL    HW132918   2.469   4.090   5.272 -0.5581  3.1163  0.6016
 6980SOL    HW232919   2.323   4.128   5.271 -1.0869  1.3002  2.3415
 6981SOL     OW32920   2.896   7.592  10.046 -0.2505 -0.0660  0.2734
 6981SOL    HW132921   2.814   7.576  10.092  1.0748 -1.7978  2.1874
 6981SOL    HW232922   2.944   7.653  10.102  0.9526 -1.3920  0.7535
 6982SOL     OW32923   7.304   0.839   2.056 -0.1490 -0.0465  0.5580
 6982SOL    HW132924   7.345   0.785   2.124 -0.3127 -1.9063 -0.7410
 6982SOL    HW232925   7.211   0.834   2.075 -0.0571  1.2954  1.4705
 6983SOL     OW32926   2.689  10.343   1.655  0.0183  0.2256  0.1397
 6983SOL    HW132927   2.610  10.376   1.612  0.7911  1.9631 -0.0291
 6983SOL    HW232928   2.660  10.265   1.703 -1.5817  0.2733 -0.6885
 6984SOL     OW32929   2.786   6.924   1.695 -0.1515 -0.2137 -0.1304
 6984SOL    HW132930   2.733   6.945   1.773 -0.8773 -0.8050 -0.4546
 6984SOL    HW232931   2.777   7.001   1.639  1.1722  0.6434  0.7642
 6985SOL     OW32932   9.497   6.816   0.931 -0.2009  0.1599 -0.4859
 6985SOL    HW132933   9.589   6.830   0.907 -0.2924 -0.0054 -0.9429
 6985SOL    HW232934   9.501   6.782   1.020  0.1571  0.5939 -0.3314
 6986SOL     OW32935   3.158   0.048   9.322 -0.4695  0.1079 -0.4612
 6986SOL    HW132936   3.099   0.028   9.394  0.0982  0.7382  0.1879
 6986SOL    HW232937   3.221  -0.024   9.322 -1.4130 -0.7597 -1.3827
 6987SOL     OW32938   9.977   4.173   2.033 -0.2843  0.0818 -0.0426
 6987SOL    HW132939   9.895   4.123   2.042  0.6132 -1.4175  0.2238
 6987SOL    HW232940   9.958   4.238   1.966 -1.6894 -0.2808 -0.0214
 6988SOL     OW32941   8.532   9.754   9.693  0.3857  0.4716  0.5441
 6988SOL    HW132942   8.529   9.790   9.604 -0.1405  2.9211  1.4690
 6988SOL    HW232943   8.489   9.820   9.747  2.6932  0.1486  2.9832
 6989SOL     OW32944   6.394   2.069   6.719  0.4862  0.4984  0.0555
 6989SOL    HW132945   6.337   1.996   6.744  1.8261 -0.2629  1.0137
 6989SOL    HW232946   6.391   2.069   6.623 -1.8583  1.1263  0.0624
 6990SOL     OW32947   5.359   3.230   2.476  0.2862 -0.3963  0.4591
 6990SOL    HW132948   5.301   3.181   2.534 -0.9693 -0.1526 -0.5692
 6990SOL    HW232949   5.437   3.246   2.529 -0.2224 -1.4668  1.5829
 6991SOL     OW32950   0.761   2.653   3.760  0.7246 -0.3758  0.0327
 6991SOL    HW132951   0.742   2.658   3.666  0.1813  1.3751  0.2018
 6991SOL    HW232952   0.774   2.744   3.787  1.3121 -0.8836  1.5823
 6992SOL     OW32953  10.054   2.703   0.353 -0.0268 -0.2354  0.4900
 6992SOL    HW132954  10.132   2.703   0.409  1.7820  1.6080 -1.8229
 6992SOL    HW232955  10.024   2.612   0.354  1.4374 -0.7663  2.3741
 6993SOL     OW32956   6.803   9.912   3.410  0.0753  0.1057  0.1128
 6993SOL    HW132957   6.830   9.836   3.357 -0.6044  0.6594 -1.0510
 6993SOL    HW232958   6.774   9.977   3.346 -2.3365  0.2019  1.2078
 6994SOL     OW32959   1.327   9.471   0.674  0.1562 -0.5635 -0.1084
 6994SOL    HW132960   1.331   9.460   0.769  0.3879  0.0138 -0.0443
 6994SOL    HW232961   1.326   9.566   0.662 -0.8318 -0.6337 -0.6477
 6995SOL     OW32962   6.146   4.403   0.900  0.0573 -0.2534  0.0356
 6995SOL    HW132963   6.134   4.316   0.938  0.4823 -0.6695 -0.7441
 6995SOL    HW232964   6.154   4.462   0.976 -0.2440 -0.8900  0.5694
 6996SOL     OW32965   3.885   2.870   4.811  0.2633  0.3659 -0.4000
 6996SOL    HW132966   3.809   2.817   4.788  1.4219 -1.9750  0.8168
 6996SOL    HW232967   3.885   2.873   4.907  1.6894  0.2557 -0.3629
 6997SOL     OW32968   4.040   4.410   5.555 -0.5316 -0.4258  0.2569
 6997SOL    HW132969   4.001   4.399   5.641 -1.4889 -0.1698 -0.1356
 6997SOL    HW232970   3.992   4.350   5.498 -0.2398 -0.2334 -0.2011
 6998SOL     OW32971   1.631   0.159   6.461  0.3553 -0.0506 -0.5852
 6998SOL    HW132972   1.651   0.068   6.441 -1.3031 -0.6641  0.3116
 6998SOL    HW232973   1.536   0.161   6.468  0.3151  1.8968 -1.1793
 6999SOL     OW32974   8.738   4.642   8.387  0.3469  0.0019 -0.1929
 6999SOL    HW132975   8.648   4.658   8.415  0.3750  0.8567 -0.5492
 6999SOL    HW232976   8.786   4.721   8.414  0.8511 -0.1597 -0.5951
 7000SOL     OW32977   6.270   6.238   1.749 -0.4185 -0.4130 -0.0714
 7000SOL    HW132978   6.189   6.188   1.757 -1.2840  0.9733  0.1915
 7000SOL    HW232979   6.245   6.316   1.699  0.4193  0.6992  1.1735
 7001SOL     OW32980   7.891   7.664   9.460  0.0369  0.6516  0.5832
 7001SOL    HW132981   7.857   7.746   9.497  2.1730  2.0329 -0.3464
 7001SOL    HW232982   7.849   7.657   9.375 -0.9766  0.1613  1.0999
 7002SOL     OW32983   0.141   1.034  10.372  0.0033  0.7160 -0.6951
 7002SOL    HW132984   0.052   1.012  10.400  0.2999 -2.4450 -1.7817
 7002SOL    HW232985   0.130   1.089  10.295 -1.0308  0.2600 -0.8843
 7003SOL     OW32986  10.108   5.617   4.050  0.1575 -0.0982 -0.3129
 7003SOL    HW132987  10.065   5.566   3.981  0.0629  1.0762 -1.1469
 7003SOL    HW232988  10.164   5.679   4.003  2.3741 -1.1844  0.7134
 7004SOL     OW32989   3.629   5.702   7.649  0.1091 -0.5036  0.5822
 7004SOL    HW132990   3.712   5.675   7.688  0.8741 -2.9897 -2.4106
 7004SOL    HW232991   3.650   5.782   7.601  0.7451 -0.9698  0.0645
 7005SOL     OW32992   8.129   3.337   5.270 -0.2211 -0.3724  0.4597
 7005SOL    HW132993   8.095   3.423   5.293 -0.7864 -0.1141 -1.2139
 7005SOL    HW232994   8.222   3.341   5.293 -0.4606  0.3169  1.3459
 7006SOL     OW32995   6.108   1.724   1.033  0.5094 -0.1824  0.0818
 7006SOL    HW132996   6.167   1.787   0.993  0.9664 -1.7188 -1.8347
 7006SOL    HW232997   6.090   1.660   0.964 -2.8045 -0.2233  0.7964
 7007SOL     OW32998   0.491   1.936   5.813  0.0490  0.3252 -0.0986
 7007SOL    HW132999   0.557   1.901   5.753  0.6872 -2.1974  1.9368
 7007SOL    HW233000   0.482   1.871   5.882 -2.5702  1.8763  1.2293
 7008SOL     OW33001   0.439   7.674   4.401 -0.3870  0.4828 -0.4126
 7008SOL    HW133002   0.519   7.623   4.388  0.3612  1.1453  1.2778
 7008SOL    HW233003   0.405   7.688   4.312  1.1207 -0.2066 -1.1396
 7009SOL     OW33004   7.016   1.505   7.721 -0.0592  0.4132  0.4014
 7009SOL    HW133005   7.012   1.500   7.625  0.8361 -1.1194  0.4029
 7009SOL    HW233006   7.106   1.530   7.740  0.0832 -0.4194  0.8500
 7010SOL     OW33007   6.127   9.163   1.843 -0.3635 -0.2008 -0.4246
 7010SOL    HW133008   6.115   9.111   1.923 -0.0795  0.5465  0.1244
 7010SOL    HW233009   6.211   9.132   1.808  1.3973  1.8966  1.5561
 7011SOL     OW33010   0.373   5.876   0.982  0.3227 -0.5596  0.3604
 7011SOL    HW133011   0.392   5.791   1.022  2.4118 -0.1320  0.3876
 7011SOL    HW233012   0.305   5.857   0.917 -0.3370 -1.9586  1.4119
 7012SOL     OW33013   9.652   7.933   0.446  0.3588  0.2227 -0.0434
 7012SOL    HW133014   9.594   7.939   0.522 -0.6997 -1.0862 -0.7290
 7012SOL    HW233015   9.738   7.911   0.484  0.6350  2.7429  1.0226
 7013SOL     OW33016   6.344   6.037   7.812  0.2605 -0.4020 -0.1911
 7013SOL    HW133017   6.366   5.983   7.888 -0.6385 -0.5554 -0.0351
 7013SOL    HW233018   6.354   5.979   7.737 -0.0769 -0.6107 -0.0786
 7014SOL     OW33019   1.516   4.604   4.285  0.1698  0.3168 -0.2358
 7014SOL    HW133020   1.468   4.671   4.237  1.7880  1.6657 -0.0863
 7014SOL    HW233021   1.608   4.619   4.260  1.0301  0.7510  2.8192
 7015SOL     OW33022   9.636   9.380   5.501 -0.1918 -1.0334 -0.6589
 7015SOL    HW133023   9.609   9.407   5.413  1.5977 -0.8647 -1.1929
 7015SOL    HW233024   9.712   9.435   5.521 -1.0551 -0.4597  1.3664
 7016SOL     OW33025   7.257   9.501   6.005  0.0267 -0.1438  0.2486
 7016SOL    HW133026   7.302   9.526   5.924 -0.6012  1.4425  0.3503
 7016SOL    HW233027   7.167   9.532   5.993  0.2626  1.4755  2.0878
 7017SOL     OW33028   2.321   1.922   1.363 -0.1598 -0.1053 -0.2806
 7017SOL    HW133029   2.390   1.858   1.348 -1.2620 -1.3811 -0.0686
 7017SOL    HW233030   2.292   1.947   1.275 -0.0387 -0.2493 -0.3613
 7018SOL     OW33031   7.004   4.439   3.103  0.2394  0.0726 -0.0027
 7018SOL    HW133032   7.065   4.424   3.030 -0.6322  1.1507 -0.9890
 7018SOL    HW233033   6.922   4.399   3.073 -0.2921  1.0540  0.1195
 7019SOL     OW33034   7.512   0.191  10.268  0.0128 -0.0300 -0.1793
 7019SOL    HW133035   7.559   0.257  10.217 -2.0229  0.2930 -1.7601
 7019SOL    HW233036   7.553   0.108  10.242  0.8980  0.3698 -0.1127
 7020SOL     OW33037   5.591   3.497   4.434 -0.6456  0.0247  0.1295
 7020SOL    HW133038   5.570   3.413   4.393  0.3446 -1.0121  1.6461
 7020SOL    HW233039   5.662   3.533   4.381  0.5921 -1.2794  0.8292
 7021SOL     OW33040   8.839   9.385   6.917  0.4671 -0.4374  0.1417
 7021SOL    HW133041   8.817   9.438   6.993 -2.6112 -0.1481 -0.8337
 7021SOL    HW233042   8.861   9.299   6.953 -2.8158 -0.8927  1.4323
 7022SOL     OW33043   4.794   1.909   9.517  0.6077  0.0881  0.2637
 7022SOL    HW133044   4.803   2.003   9.536  0.4375 -0.0515  1.0510
 7022SOL    HW233045   4.878   1.871   9.543  0.4559 -0.0728  0.5124
 7023SOL     OW33046   0.085   6.757   3.108 -0.7573 -0.2758  0.0545
 7023SOL    HW133047   0.119   6.823   3.167  0.3356 -0.5133 -0.2901
 7023SOL    HW233048   0.016   6.713   3.158 -0.5925  0.2420  0.7471
 7024SOL     OW33049   2.089   7.059   2.480 -0.1858  0.0307  0.2638
 7024SOL    HW133050   1.994   7.054   2.468  0.0733 -0.9730 -1.9363
 7024SOL    HW233051   2.101   7.095   2.568 -2.5943 -0.8765  1.0294
 7025SOL     OW33052   2.133   0.271   3.124 -0.2042  0.4161 -0.4400
 7025SOL    HW133053   2.184   0.307   3.196 -1.0522  0.7932 -0.0116
 7025SOL    HW233054   2.045   0.308   3.136 -1.3760 -2.3790  0.4832
 7026SOL     OW33055   6.742  10.218   0.317 -0.0955 -0.3679  0.1807
 7026SOL    HW133056   6.730  10.198   0.224 -0.7064 -4.5356  0.9701
 7026SOL    HW233057   6.830  10.256   0.322 -0.2583  0.4794 -2.1122
 7027SOL     OW33058   2.778   1.012  10.354 -0.4011  0.2467 -0.4139
 7027SOL    HW133059   2.818   0.949  10.295  0.2815  0.5111 -0.2370
 7027SOL    HW233060   2.844   1.028  10.421 -0.8235  0.6412 -0.0812
 7028SOL     OW33061   0.471   0.492   2.437  0.1814 -0.4053 -0.1515
 7028SOL    HW133062   0.412   0.561   2.467 -0.8974 -2.0298  1.6754
 7028SOL    HW233063   0.421   0.445   2.371  1.0785  0.7265 -1.7213
 7029SOL     OW33064   7.728   8.434   7.233  0.7071  0.1329  0.0652
 7029SOL    HW133065   7.751   8.353   7.277  0.1335  0.2329  0.5626
 7029SOL    HW233066   7.702   8.494   7.303  0.7516  0.6249 -0.3234
 7030SOL     OW33067   5.281   9.129   7.647 -0.3210  0.5389  0.2215
 7030SOL    HW133068   5.244   9.134   7.559  0.5482 -0.1689 -0.2016
 7030SOL    HW233069   5.332   9.210   7.656 -0.3560  0.5809  0.0510
 7031SOL     OW33070   7.100   8.292   1.745  0.3729 -0.3007 -0.0786
 7031SOL    HW133071   7.043   8.365   1.771  1.5842  0.2327  1.2475
 7031SOL    HW233072   7.143   8.322   1.665 -0.4658 -0.3072 -0.5364
 7032SOL     OW33073   0.317   2.108   2.493 -0.1537  0.0381  0.0415
 7032SOL    HW133074   0.299   2.049   2.566 -0.7731 -0.4106 -0.4639
 7032SOL    HW233075   0.314   2.053   2.415 -1.3442  0.8204 -0.4980
 7033SOL     OW33076   3.771   6.489   1.135 -0.1653  0.5582  0.5018
 7033SOL    HW133077   3.681   6.509   1.110 -0.3203 -1.1515 -0.4545
 7033SOL    HW233078   3.763   6.430   1.210  0.0886 -0.6487 -0.3908
 7034SOL     OW33079   7.235   8.718   5.295  0.6451  0.5668 -0.5033
 7034SOL    HW133080   7.195   8.721   5.382  0.1293 -0.4682 -0.6905
 7034SOL    HW233081   7.246   8.810   5.270 -0.1016  0.8658  0.2389
 7035SOL     OW33082   7.937   0.027   6.455  0.2489  0.5979 -0.2763
 7035SOL    HW133083   7.886  -0.030   6.398 -2.0069 -0.0913  2.2301
 7035SOL    HW233084   7.875   0.095   6.484  1.4990  1.3628  0.7437
 7036SOL     OW33085   8.883   0.463   3.544  0.0416  0.0650  0.4164
 7036SOL    HW133086   8.882   0.434   3.453 -1.1547  1.6135 -0.0984
 7036SOL    HW233087   8.947   0.405   3.587  0.6238 -0.6877 -1.3839
 7037SOL     OW33088   3.145   0.560   7.129 -0.3746 -0.3978  0.4207
 7037SOL    HW133089   3.070   0.517   7.088  0.5055 -1.4752 -0.1127
 7037SOL    HW233090   3.208   0.571   7.058 -0.7088  2.2297  0.4284
 7038SOL     OW33091   6.715   1.767   7.282  1.0589 -0.1153 -0.2035
 7038SOL    HW133092   6.675   1.798   7.201  1.4408 -0.3476 -0.4886
 7038SOL    HW233093   6.667   1.811   7.351 -0.3096 -1.0811 -0.4795
 7039SOL     OW33094   6.578   8.680   0.801 -0.0599 -0.2540 -1.0142
 7039SOL    HW133095   6.561   8.741   0.728  1.3136  1.3632 -0.0631
 7039SOL    HW233096   6.554   8.594   0.766 -0.7910  0.6424 -2.8875
 7040SOL     OW33097   5.129   0.960   0.812 -0.3119 -0.5639  0.3680
 7040SOL    HW133098   5.154   1.040   0.858 -0.6376  0.5010 -1.2224
 7040SOL    HW233099   5.065   0.989   0.747  0.7487 -1.8391 -1.3229
 7041SOL     OW33100  10.138   3.035   5.226 -0.2841 -0.6561  0.1113
 7041SOL    HW133101  10.172   2.945   5.222  0.0808 -0.5493  0.7319
 7041SOL    HW233102  10.201   3.086   5.174  0.8555 -0.3623  1.7217
 7042SOL     OW33103   0.623   0.971   4.342  0.4651  0.5930  0.4160
 7042SOL    HW133104   0.693   1.037   4.340  0.8392  0.1938 -1.2153
 7042SOL    HW233105   0.660   0.895   4.296 -0.7236  0.0398  0.3330
 7043SOL     OW33106   9.048   8.535   5.398 -0.3103 -0.6014 -0.2962
 7043SOL    HW133107   8.988   8.555   5.470  0.9718  0.9012  0.4417
 7043SOL    HW233108   8.999   8.554   5.319 -1.0546 -0.1742  0.2564
 7044SOL     OW33109   4.020   9.061   2.804 -0.3331  0.3595  0.3997
 7044SOL    HW133110   3.969   9.013   2.869  2.0564 -1.7047  0.8997
 7044SOL    HW233111   4.041   9.144   2.847 -1.6321  0.4510  0.8927
 7045SOL     OW33112   6.256   6.283   6.782  0.1562  0.2505 -0.0527
 7045SOL    HW133113   6.272   6.241   6.867 -1.2142 -0.1163  0.0594
 7045SOL    HW233114   6.331   6.341   6.769 -0.6164  2.0043  2.4431
 7046SOL     OW33115   1.349   9.456   4.968 -0.5381 -0.1393  0.7653
 7046SOL    HW133116   1.370   9.427   5.057 -0.1185  0.2120  0.7785
 7046SOL    HW233117   1.317   9.545   4.979  0.3327  0.2138  0.4687
 7047SOL     OW33118   7.351   9.311   3.758 -0.1299  0.6304 -0.3520
 7047SOL    HW133119   7.383   9.296   3.670 -1.5925 -0.1982 -0.7867
 7047SOL    HW233120   7.258   9.333   3.747 -1.6903 -3.9115  1.0654
 7048SOL     OW33121   9.539   2.624   3.178  0.0352 -0.1970 -0.5763
 7048SOL    HW133122   9.554   2.530   3.166 -1.0890 -0.2064 -2.2289
 7048SOL    HW233123   9.461   2.629   3.232  1.2260 -0.1635  1.2290
 7049SOL     OW33124   7.589   9.211   6.377  0.6006 -0.1494  0.5709
 7049SOL    HW133125   7.503   9.254   6.383  0.6977 -0.0153  1.0762
 7049SOL    HW233126   7.568   9.120   6.358  0.3273 -0.1725  0.9490
 7050SOL     OW33127   0.142   7.059   1.713  1.0276  0.8462  0.1727
 7050SOL    HW133128   0.114   6.998   1.644  1.4568  2.9783 -2.0410
 7050SOL    HW233129   0.230   7.031   1.736  2.0114  1.6759 -2.2586
 7051SOL     OW33130   2.130   7.527   0.397 -0.2935  0.6579  0.6697
 7051SOL    HW133131   2.132   7.477   0.316 -0.0485  0.6191  0.7014
 7051SOL    HW233132   2.099   7.465   0.463  1.8219  0.0032  1.1003
 7052SOL     OW33133   9.674   0.775   8.657  0.3883  0.0741  0.3782
 7052SOL    HW133134   9.580   0.783   8.641  0.4495  0.4598  0.2107
 7052SOL    HW233135   9.705   0.716   8.588  0.0044 -1.3997  1.3940
 7053SOL     OW33136   7.161   9.987   5.201  0.2997  0.8184  0.1404
 7053SOL    HW133137   7.255  10.003   5.190  0.3406 -0.2494 -1.3225
 7053SOL    HW233138   7.156   9.904   5.247  0.1145 -0.1955 -1.6181
 7054SOL     OW33139   5.575   6.247   9.094 -0.1375 -0.3820  0.2044
 7054SOL    HW133140   5.628   6.182   9.140  0.7269 -0.7125 -1.2319
 7054SOL    HW233141   5.636   6.317   9.072 -0.0311 -1.1757 -2.2815
 7055SOL     OW33142   6.060   7.955   8.090 -0.4957 -0.2413 -0.3839
 7055SOL    HW133143   6.088   7.932   8.001 -0.2151  2.7252 -1.1799
 7055SOL    HW233144   6.142   7.975   8.136 -0.7875  0.8854 -0.3264
 7056SOL     OW33145   2.938   2.703   8.042 -0.4107 -0.2932  0.6101
 7056SOL    HW133146   2.990   2.623   8.050  1.5972  1.0051  1.3503
 7056SOL    HW233147   2.931   2.736   8.132  1.7049  2.0110  0.0614
 7057SOL     OW33148   2.115   4.047   0.470 -0.2924  0.2401 -0.1494
 7057SOL    HW133149   2.114   4.000   0.386 -1.3030  0.4857 -0.2866
 7057SOL    HW233150   2.184   4.004   0.521  0.7708  0.4816 -1.3234
 7058SOL     OW33151   2.893   9.976   6.151  0.1722 -0.5200  0.3789
 7058SOL    HW133152   2.880   9.987   6.056  0.1699 -0.9124  0.3305
 7058SOL    HW233153   2.909  10.065   6.183  0.0211 -0.3641  0.0331
 7059SOL     OW33154  10.081   7.236   5.074 -0.1910 -0.5849  0.0070
 7059SOL    HW133155   9.987   7.223   5.061 -0.3422  1.7353 -2.0393
 7059SOL    HW233156  10.121   7.207   4.992  0.5257  1.1288 -0.2852
 7060SOL     OW33157  10.194   0.494   8.416  0.0787  0.0325  0.0554
 7060SOL    HW133158  10.161   0.584   8.415 -1.4400 -0.4886 -1.4780
 7060SOL    HW233159  10.287   0.503   8.435 -0.1445  1.8808  0.4746
 7061SOL     OW33160   9.075   0.359   0.702  0.0118  0.2319 -0.4393
 7061SOL    HW133161   9.129   0.299   0.754 -0.7349 -0.7613 -0.7769
 7061SOL    HW233162   9.102   0.447   0.730  1.7550 -0.2275 -0.5734
 7062SOL     OW33163   6.997   8.025   4.622 -0.1068 -0.2059 -1.1794
 7062SOL    HW133164   7.033   8.110   4.597 -0.4101 -0.2738 -1.8648
 7062SOL    HW233165   6.915   8.045   4.667  0.9879 -0.0177  0.8775
 7063SOL     OW33166   0.128   6.245   5.341  0.3432 -0.6100  0.4960
 7063SOL    HW133167   0.055   6.196   5.379 -0.3878 -1.3292 -1.6760
 7063SOL    HW233168   0.130   6.218   5.250  0.4028  2.8449 -0.6688
 7064SOL     OW33169   6.206   2.960   8.305 -0.0150 -0.1675  0.4746
 7064SOL    HW133170   6.136   2.992   8.249 -0.6054 -0.9674  0.7345
 7064SOL    HW233171   6.210   3.024   8.377  0.4393  0.6086 -0.2312
 7065SOL     OW33172   8.766   9.127   6.364 -0.0466  0.6904 -0.5102
 7065SOL    HW133173   8.840   9.119   6.424 -0.2444  0.2200 -0.3217
 7065SOL    HW233174   8.796   9.086   6.283  0.9241  3.0118 -1.4253
 7066SOL     OW33175   1.416   2.495   5.535 -0.0083  0.2124  0.5553
 7066SOL    HW133176   1.400   2.587   5.513 -1.1208  0.1175  0.9047
 7066SOL    HW233177   1.421   2.494   5.630 -0.8897 -0.2072  0.6090
 7067SOL     OW33178   5.435   6.770   2.070  0.3306 -0.2166  0.1426
 7067SOL    HW133179   5.429   6.832   1.997  2.6464 -0.2269 -0.1392
 7067SOL    HW233180   5.438   6.684   2.029  3.6390 -0.1487 -0.0304
 7068SOL     OW33181   5.858   0.025   4.431  0.0383  0.0415 -0.1156
 7068SOL    HW133182   5.905   0.108   4.434  0.5165 -0.1637 -1.2543
 7068SOL    HW233183   5.817   0.017   4.517  3.8791 -0.8196  1.8669
 7069SOL     OW33184   8.914   2.093   9.748 -0.2104 -0.1069 -0.7054
 7069SOL    HW133185   8.973   2.168   9.756 -1.9812  1.1989  1.2247
 7069SOL    HW233186   8.826   2.131   9.756 -1.1352 -2.4807  1.7812
 7070SOL     OW33187   2.535   6.190   7.450  0.3661  0.7656 -0.0819
 7070SOL    HW133188   2.621   6.232   7.443  0.4892  0.9359  1.8867
 7070SOL    HW233189   2.488   6.242   7.516 -0.8124 -0.0415 -0.2524
 7071SOL     OW33190   5.598   0.670   3.574 -0.0114  0.4799 -0.2345
 7071SOL    HW133191   5.663   0.699   3.511 -1.9969  0.4314 -2.4541
 7071SOL    HW233192   5.607   0.575   3.576 -1.3570  0.2496 -2.2363
 7072SOL     OW33193   8.600   1.377   0.921 -0.0281  0.1424 -0.2072
 7072SOL    HW133194   8.544   1.455   0.912 -0.0634 -0.0131 -1.5120
 7072SOL    HW233195   8.640   1.367   0.835  0.6334 -0.7987  0.2013
 7073SOL     OW33196   2.239   9.722   3.034  0.7995 -0.3555  0.3291
 7073SOL    HW133197   2.297   9.798   3.021  0.4723 -0.3577 -1.4596
 7073SOL    HW233198   2.293   9.647   3.011  0.2847 -0.4024 -0.7834
 7074SOL     OW33199   2.749   2.069   2.402  0.5441 -0.2756 -0.9227
 7074SOL    HW133200   2.836   2.098   2.374  1.0526 -1.2351 -0.3924
 7074SOL    HW233201   2.752   2.072   2.498 -0.1558  0.0784 -0.9012
 7075SOL     OW33202  10.130   8.543   9.175  0.3005 -0.3853 -0.5541
 7075SOL    HW133203  10.221   8.524   9.196  0.5555 -0.5984 -1.7733
 7075SOL    HW233204  10.086   8.458   9.185  0.9700 -1.2057 -3.5487
 7076SOL     OW33205   1.876   4.099   9.326 -0.3731  0.4553 -0.3684
 7076SOL    HW133206   1.871   4.194   9.315 -0.9140  0.3020 -1.5964
 7076SOL    HW233207   1.786   4.072   9.344 -0.3071  0.1199 -0.5429
 7077SOL     OW33208   4.948   5.056   4.423  0.1166  0.0641  0.5897
 7077SOL    HW133209   4.902   5.014   4.495 -1.6198 -0.4702 -0.7591
 7077SOL    HW233210   4.921   5.147   4.427  1.9959  0.6141  2.0655
 7078SOL     OW33211   9.376   8.128   3.982  0.3927 -0.6207 -0.1781
 7078SOL    HW133212   9.284   8.145   3.998  0.8367  1.0523  0.8680
 7078SOL    HW233213   9.414   8.113   4.069  1.1883 -0.9110 -0.5566
 7079SOL     OW33214   1.375   9.694   4.618 -0.5196  0.1802 -0.8580
 7079SOL    HW133215   1.404   9.777   4.581 -1.0293 -0.0847 -1.8779
 7079SOL    HW233216   1.328   9.718   4.698  1.3377  0.7008  0.1392
 7080SOL     OW33217   3.418   4.772   7.031  0.5410 -0.1610 -0.2297
 7080SOL    HW133218   3.469   4.714   7.088 -2.2496 -1.8881  0.6808
 7080SOL    HW233219   3.405   4.851   7.084 -0.4952 -1.0357  0.8777
 7081SOL     OW33220   0.897   8.350   5.012  0.0995 -0.1433 -0.3156
 7081SOL    HW133221   0.861   8.409   5.078 -0.2358 -3.3624  2.6435
 7081SOL    HW233222   0.986   8.382   4.996  0.8991 -0.2588  3.2278
 7082SOL     OW33223   4.606   7.920   5.240 -0.2139 -0.0843 -0.6122
 7082SOL    HW133224   4.573   7.944   5.154  0.0060  2.2467 -0.1241
 7082SOL    HW233225   4.701   7.922   5.231 -0.1910 -0.2556 -0.4225
 7083SOL     OW33226   7.456   1.070   8.789  0.3361  0.4062 -0.1420
 7083SOL    HW133227   7.387   1.122   8.749 -0.0569 -0.4225 -0.5643
 7083SOL    HW233228   7.425   0.979   8.783  1.9706 -0.1296 -1.4532
 7084SOL     OW33229   5.888   7.157   2.042 -0.4660 -0.4307  0.3180
 7084SOL    HW133230   5.852   7.233   1.997  2.3273 -0.7967 -2.9485
 7084SOL    HW233231   5.897   7.090   1.974  2.3623 -1.7017  1.7594
 7085SOL     OW33232   0.830   7.528   5.186 -0.2195 -0.0439 -0.2538
 7085SOL    HW133233   0.769   7.597   5.159 -0.4843 -0.3097 -0.3412
 7085SOL    HW233234   0.913   7.574   5.201 -0.1294  0.1513 -1.2638
 7086SOL     OW33235   6.983   0.441   4.473 -0.7233  0.3989  0.0060
 7086SOL    HW133236   6.919   0.413   4.538 -0.6832 -0.2883 -0.2437
 7086SOL    HW233237   7.010   0.528   4.503 -1.6676  0.6455  0.1826
 7087SOL     OW33238   1.562   9.899   5.109 -0.1115  0.3795 -0.1980
 7087SOL    HW133239   1.507   9.935   5.179  0.3787  0.6823  0.0391
 7087SOL    HW233240   1.630   9.965   5.096 -0.2803  0.3989 -1.0684
 7088SOL     OW33241   7.331   8.836   9.384 -0.0876 -0.2426 -0.5194
 7088SOL    HW133242   7.288   8.887   9.453 -0.0525 -0.8052 -0.0762
 7088SOL    HW233243   7.261   8.783   9.346 -0.2811  0.6895 -1.5034
 7089SOL     OW33244   3.165   1.552   1.878 -0.0480  0.1764  0.2412
 7089SOL    HW133245   3.157   1.554   1.782  0.7278 -1.2314  0.1161
 7089SOL    HW233246   3.086   1.596   1.909 -0.4894  0.3498 -1.0397
 7090SOL     OW33247   0.610   9.473   1.230 -0.0063 -0.0811  0.2072
 7090SOL    HW133248   0.614   9.421   1.310 -1.4041  0.6411  0.7751
 7090SOL    HW233249   0.639   9.560   1.257  1.2903 -0.2579 -0.5030
 7091SOL     OW33250   1.618   3.205   4.278 -0.6226  0.4609  0.0867
 7091SOL    HW133251   1.697   3.259   4.270 -1.0887  1.2201  0.5093
 7091SOL    HW233252   1.588   3.219   4.367 -0.6893 -0.6132  0.2459
 7092SOL     OW33253   1.945   5.899   8.275  0.0754 -0.0513 -0.8515
 7092SOL    HW133254   1.896   5.957   8.334 -1.5404 -1.5403 -0.6521
 7092SOL    HW233255   1.955   5.818   8.325  0.4985 -0.6440 -1.8727
 7093SOL     OW33256   1.296   9.633  10.057  0.2084  0.2425 -0.1663
 7093SOL    HW133257   1.355   9.578  10.109 -0.2763  0.8018  1.0178
 7093SOL    HW233258   1.321   9.615   9.966  0.9327 -0.9396  0.2317
 7094SOL     OW33259   0.715   0.516   9.935  0.0912  0.2288 -0.0773
 7094SOL    HW133260   0.756   0.597   9.904  0.0566 -0.3058 -1.6496
 7094SOL    HW233261   0.626   0.521   9.902  0.5436 -1.1564 -1.6478
 7095SOL     OW33262  10.194   8.627   2.920  0.0547 -0.9455  0.6319
 7095SOL    HW133263  10.119   8.618   2.979  0.2592 -0.0073  1.0612
 7095SOL    HW233264  10.266   8.585   2.966 -0.0167 -1.1306  0.5777
 7096SOL     OW33265   3.885   1.044   3.561 -0.1941 -0.0205  0.5267
 7096SOL    HW133266   3.834   1.051   3.480  2.6190 -1.3744 -1.5507
 7096SOL    HW233267   3.959   0.988   3.538  1.4434  0.5737  3.7232
 7097SOL     OW33268   8.721   5.270   4.128  0.4185 -0.4643 -0.6449
 7097SOL    HW133269   8.745   5.228   4.210 -0.3256 -1.3148 -0.8449
 7097SOL    HW233270   8.794   5.328   4.108 -0.7084  2.1231  2.1772
 7098SOL     OW33271   5.423   0.330   4.802 -0.2392 -0.5533  0.5691
 7098SOL    HW133272   5.334   0.296   4.792  0.1225 -2.0768  2.1175
 7098SOL    HW233273   5.439   0.328   4.896  0.8928  1.2029  0.4566
 7099SOL     OW33274   0.444   5.536  10.153  0.6486  0.3886 -0.2785
 7099SOL    HW133275   0.497   5.550  10.075  0.3818 -1.1187 -0.7529
 7099SOL    HW233276   0.505   5.496  10.216  0.5916  0.6032 -0.0841
 7100SOL     OW33277   5.037   0.706   0.476  0.3443  0.3201  0.2838
 7100SOL    HW133278   5.098   0.715   0.403 -0.5200  0.4239 -0.4559
 7100SOL    HW233279   5.091   0.686   0.552  1.1908 -0.6093 -0.5488
 7101SOL     OW33280   6.688   7.303   7.106  0.0732 -0.9699 -0.2743
 7101SOL    HW133281   6.693   7.217   7.147  0.5605 -0.6881  0.2726
 7101SOL    HW233282   6.670   7.285   7.014  1.0227 -1.6924 -0.3279
 7102SOL     OW33283   8.998   4.074   2.169  0.2293 -0.2762  0.3654
 7102SOL    HW133284   9.012   4.129   2.246  0.9299  0.8760 -0.5576
 7102SOL    HW233285   9.040   3.991   2.192  0.8091  0.1942  1.0657
 7103SOL     OW33286   0.740   1.554   1.344  0.1375  0.2686 -0.3628
 7103SOL    HW133287   0.736   1.530   1.436  1.8879 -0.3017 -0.3933
 7103SOL    HW233288   0.822   1.602   1.336 -0.2131  0.7034 -1.5478
 7104SOL     OW33289   2.950   7.515   0.764 -0.7236 -0.5337 -0.4840
 7104SOL    HW133290   3.009   7.552   0.699 -1.7821 -0.3096 -1.3445
 7104SOL    HW233291   2.871   7.491   0.715 -1.6620 -0.1019  0.7448
 7105SOL     OW33292   4.577   2.873   4.824 -0.0256  0.1053 -0.1905
 7105SOL    HW133293   4.576   2.928   4.902 -1.8272 -0.9364  0.5839
 7105SOL    HW233294   4.669   2.868   4.800  1.3066 -2.6570  4.1891
 7106SOL     OW33295   8.337  10.233   0.520  0.1694  0.0976 -0.1484
 7106SOL    HW133296   8.269  10.290   0.557  1.3173  0.8348  0.9294
 7106SOL    HW233297   8.289  10.158   0.486 -1.1497  0.3025  1.1240
 7107SOL     OW33298   6.541   1.079   1.494 -0.7996  0.1910  0.6658
 7107SOL    HW133299   6.563   0.990   1.519 -1.7843 -0.2016  0.1864
 7107SOL    HW233300   6.485   1.111   1.565 -0.5163  0.4076  0.7963
 7108SOL     OW33301   5.129   7.101   1.039  0.3592 -0.3232 -0.2303
 7108SOL    HW133302   5.038   7.083   1.015 -0.1096  1.4837  0.0471
 7108SOL    HW233303   5.142   7.052   1.120  0.3582 -2.3426 -1.3611
 7109SOL     OW33304   6.213   5.521   8.849 -0.3035  0.0089  0.0065
 7109SOL    HW133305   6.308   5.522   8.835 -0.3949  1.2618 -0.6127
 7109SOL    HW233306   6.186   5.434   8.819  0.5069  0.0295 -0.8375
 7110SOL     OW33307   8.570   7.657   4.105  0.0841 -0.5687 -0.0617
 7110SOL    HW133308   8.609   7.634   4.189 -0.9761  1.1706  0.9627
 7110SOL    HW233309   8.635   7.714   4.063 -0.6591  1.0968  0.9797
 7111SOL     OW33310   1.304   1.505   5.061  0.8161 -0.1313  0.4000
 7111SOL    HW133311   1.336   1.560   5.133  0.4972  0.0212  0.4238
 7111SOL    HW233312   1.370   1.436   5.054 -0.3242 -1.4895  2.3677
 7112SOL     OW33313   1.999   7.537   2.963 -0.3103  0.8274 -0.4954
 7112SOL    HW133314   1.921   7.483   2.949  1.1573 -1.4824 -0.3393
 7112SOL    HW233315   1.992   7.566   3.055  0.2633 -1.6447  0.4006
 7113SOL     OW33316   9.682   2.721   6.289  0.0302  0.1106  0.3426
 7113SOL    HW133317   9.644   2.690   6.371  1.9157 -0.9472  0.8832
 7113SOL    HW233318   9.611   2.714   6.225 -1.2694  0.2933  1.7195
 7114SOL     OW33319   5.387   2.177   0.112  0.1947  0.8074  0.6220
 7114SOL    HW133320   5.453   2.217   0.055  0.1611  2.4363  1.6668
 7114SOL    HW233321   5.403   2.083   0.104  2.2478  1.1252  0.3578
 7115SOL     OW33322   5.472   0.014   5.883 -0.1232  0.5008 -0.4069
 7115SOL    HW133323   5.446   0.100   5.915  0.3733  1.3372 -2.1769
 7115SOL    HW233324   5.421  -0.047   5.937 -0.6450  1.8844  0.7392
 7116SOL     OW33325   6.859   7.932   2.937 -0.1394 -0.1229  0.2369
 7116SOL    HW133326   6.938   7.899   2.894  0.8994  2.0476  0.3153
 7116SOL    HW233327   6.841   7.869   3.006  0.0220 -1.9856 -1.3442
 7117SOL     OW33328   5.507   3.456   7.863  0.1498 -0.1770 -0.6672
 7117SOL    HW133329   5.530   3.523   7.928 -0.7150 -0.4038 -0.0979
 7117SOL    HW233330   5.550   3.484   7.783  3.0562 -1.0116  0.4706
 7118SOL     OW33331   6.398   2.787   5.791 -0.3149 -0.4128 -0.6158
 7118SOL    HW133332   6.428   2.870   5.754  1.4380 -0.3837  0.7026
 7118SOL    HW233333   6.364   2.810   5.877 -1.6178 -0.8360 -1.0033
 7119SOL     OW33334  10.186   6.921   8.501 -0.3408  0.1356 -0.2876
 7119SOL    HW133335  10.100   6.959   8.518 -0.7751 -0.5038 -0.9901
 7119SOL    HW233336  10.191   6.915   8.405  0.4844  0.1542 -0.2561
 7120SOL     OW33337   3.179   6.026   3.836 -0.1480 -0.1318  0.0829
 7120SOL    HW133338   3.097   6.045   3.790  0.0779 -0.8997 -0.6530
 7120SOL    HW233339   3.195   6.104   3.889  0.3307  1.4624 -2.2202
 7121SOL     OW33340   5.446   3.468   2.831 -0.0304  0.2931  0.0013
 7121SOL    HW133341   5.533   3.502   2.853 -0.1719  1.1493 -0.6984
 7121SOL    HW233342   5.401   3.462   2.915  0.9439 -0.9027  0.4693
 7122SOL     OW33343   9.393   7.033   9.468 -0.7076  0.2514 -0.1069
 7122SOL    HW133344   9.459   7.055   9.534 -0.5319  0.8069 -0.4584
 7122SOL    HW233345   9.337   7.111   9.463 -0.1815  0.5764 -1.2507
 7123SOL     OW33346   7.716   6.479   8.762 -0.9988 -0.2043  0.2487
 7123SOL    HW133347   7.661   6.445   8.833 -0.1114 -0.9287  0.6154
 7123SOL    HW233348   7.725   6.405   8.702 -1.7207  0.3944 -0.6244
 7124SOL     OW33349   7.668   4.953   7.944  0.4322  0.3339  0.2028
 7124SOL    HW133350   7.648   4.865   7.912  0.0736  1.0560 -1.6541
 7124SOL    HW233351   7.627   4.956   8.031  1.8390 -1.8425  1.0371
 7125SOL     OW33352   9.604   7.416   8.010  0.2114  0.0429 -0.1787
 7125SOL    HW133353   9.694   7.429   7.981  0.1473  0.1919 -0.3176
 7125SOL    HW233354   9.599   7.463   8.093  0.6682 -1.2109  0.5744
 7126SOL     OW33355   2.566   3.656   0.279 -0.1454 -0.2211  0.0388
 7126SOL    HW133356   2.575   3.588   0.346 -0.3079 -0.5966 -0.3180
 7126SOL    HW233357   2.473   3.680   0.282  0.3800  1.8748  1.9894
 7127SOL     OW33358   7.080  10.377   2.743  0.0615  0.1595 -0.0629
 7127SOL    HW133359   7.138  10.364   2.667 -1.4511  2.4982 -1.7641
 7127SOL    HW233360   7.136  10.418   2.808  1.0466 -0.4895 -0.4677
 7128SOL     OW33361   5.681   0.890   7.703  0.2558 -0.4867 -0.4293
 7128SOL    HW133362   5.694   0.915   7.612  1.7106 -1.6341 -0.5724
 7128SOL    HW233363   5.593   0.852   7.705 -0.4786  1.0931 -0.9621
 7129SOL     OW33364   8.674   4.056   8.578  0.0834  0.2608 -0.0655
 7129SOL    HW133365   8.660   4.066   8.672 -1.7903  3.4341 -0.5382
 7129SOL    HW233366   8.769   4.063   8.567  0.5144 -1.8256  1.6301
 7130SOL     OW33367   9.096   2.233   3.986  0.2584  0.2094 -0.2660
 7130SOL    HW133368   9.017   2.278   3.956 -0.0681 -0.4272 -0.3791
 7130SOL    HW233369   9.087   2.228   4.081  0.6246  0.9809 -0.1798
 7131SOL     OW33370   6.011   5.188   8.175 -0.1609  0.4156 -0.2042
 7131SOL    HW133371   6.025   5.134   8.097  0.8828  1.2238 -0.5988
 7131SOL    HW233372   5.917   5.205   8.175 -0.0429  1.4183 -2.0110
 7132SOL     OW33373   1.213   7.965   7.470 -0.2114 -0.8020 -0.0629
 7132SOL    HW133374   1.148   8.014   7.520 -0.7209 -1.5709  0.0564
 7132SOL    HW233375   1.277   8.030   7.442 -0.4242 -0.2189  0.7968
 7133SOL     OW33376   7.256  10.184   9.435  0.1766 -0.1465 -0.1327
 7133SOL    HW133377   7.249  10.264   9.489  0.6388  2.4150 -3.5184
 7133SOL    HW233378   7.331  10.201   9.378 -1.1185 -1.9892 -2.5595
 7134SOL     OW33379   8.378   2.240   8.720 -0.4529 -0.1726 -0.1412
 7134SOL    HW133380   8.349   2.187   8.646 -2.5647 -3.3773  2.6510
 7134SOL    HW233381   8.301   2.289   8.746  0.5170  1.6253 -0.5175
 7135SOL     OW33382   8.214   6.191   4.810 -0.2521 -0.6848  0.0968
 7135SOL    HW133383   8.124   6.209   4.782  0.1475  2.9959  0.6229
 7135SOL    HW233384   8.264   6.184   4.729 -0.8040 -1.7095 -0.1760
 7136SOL     OW33385   0.045   2.833   3.922  0.7044 -0.4665 -0.2049
 7136SOL    HW133386   0.102   2.758   3.907  1.6814  0.2071  0.0755
 7136SOL    HW233387  -0.041   2.794   3.941  0.9886 -1.4803 -0.9105
 7137SOL     OW33388   2.312   5.433   9.313 -0.2496  0.5065 -0.0172
 7137SOL    HW133389   2.262   5.445   9.233  0.3531 -1.6321 -0.7660
 7137SOL    HW233390   2.403   5.445   9.287 -0.0225 -0.5507  0.2451
 7138SOL     OW33391   7.061   5.232   9.514  0.1532  0.5979 -0.2597
 7138SOL    HW133392   7.117   5.246   9.590 -0.2649 -0.0710  0.1772
 7138SOL    HW233393   7.045   5.321   9.481  2.6930  0.7429 -1.3376
 7139SOL     OW33394   9.882   6.594   5.639  0.1483 -0.0221  0.2317
 7139SOL    HW133395   9.881   6.510   5.592  1.4879 -1.2747  2.2804
 7139SOL    HW233396   9.812   6.587   5.703 -0.9979  1.2566 -0.8287
 7140SOL     OW33397   3.521   4.483   6.397  0.1425 -0.6408 -0.4492
 7140SOL    HW133398   3.607   4.465   6.358  0.3692 -0.1030 -0.2161
 7140SOL    HW233399   3.475   4.533   6.329 -0.2201 -1.4624 -0.8161
 7141SOL     OW33400   5.548   8.389   2.428 -0.5311 -0.3509 -0.4144
 7141SOL    HW133401   5.626   8.337   2.444  1.3154  2.0534 -0.9908
 7141SOL    HW233402   5.508   8.401   2.514  0.1945 -0.9348  0.0049
 7142SOL     OW33403   4.115   3.851   9.489 -0.0576  0.3047 -0.1816
 7142SOL    HW133404   4.149   3.767   9.522 -0.4399 -0.1910 -1.0049
 7142SOL    HW233405   4.036   3.866   9.540  0.6961  0.8254  0.8653
 7143SOL     OW33406   7.954   9.942   3.321  0.1274  0.0374  0.2732
 7143SOL    HW133407   7.970   9.970   3.231  0.7481  1.5231  0.8031
 7143SOL    HW233408   7.952  10.024   3.371  0.8241 -0.8130  1.7585
 7144SOL     OW33409   5.532   7.023   1.912  0.3872 -0.1910  0.4257
 7144SOL    HW133410   5.537   7.007   2.006 -1.3727  1.2504  0.8121
 7144SOL    HW233411   5.469   7.095   1.903 -1.3389 -1.8407 -1.9975
 7145SOL     OW33412   3.320   3.421   8.894 -0.6866  0.2007 -0.1629
 7145SOL    HW133413   3.299   3.515   8.892 -0.6105  0.2946  1.7169
 7145SOL    HW233414   3.413   3.418   8.915 -0.5213 -0.2946 -0.9498
 7146SOL     OW33415   9.420  10.235   9.767  0.2690  0.6659 -0.3448
 7146SOL    HW133416   9.433  10.208   9.676 -0.8946 -2.5492  0.3156
 7146SOL    HW233417   9.461  10.166   9.819 -1.2936  1.0917  1.5781
 7147SOL     OW33418   7.711   2.455   3.328 -0.5587  0.7051 -0.3577
 7147SOL    HW133419   7.682   2.425   3.415 -0.8943 -0.7662 -0.9334
 7147SOL    HW233420   7.800   2.422   3.320  0.8361  3.8453  0.7636
 7148SOL     OW33421   6.453   1.117   5.084  0.3111 -0.5841 -0.3164
 7148SOL    HW133422   6.397   1.039   5.076  0.2613 -0.6439  0.6035
 7148SOL    HW233423   6.491   1.111   5.171  1.1920 -0.1562 -0.6634
 7149SOL     OW33424   7.370   4.856   7.871  0.2088 -0.1730 -0.1506
 7149SOL    HW133425   7.403   4.800   7.800  1.5547 -0.2061  0.4699
 7149SOL    HW233426   7.385   4.946   7.840 -0.1433 -0.1788 -0.3349
 7150SOL     OW33427   3.686   1.052   8.391  0.3856  0.0561  0.2159
 7150SOL    HW133428   3.674   1.066   8.485  0.0383  0.6910  0.0855
 7150SOL    HW233429   3.603   1.015   8.362  1.0986 -1.8174  0.4535
 7151SOL     OW33430   6.095   2.036   9.352 -0.0201 -0.0397 -0.0634
 7151SOL    HW133431   6.185   2.057   9.327  0.2115 -0.1631  0.6311
 7151SOL    HW233432   6.081   2.085   9.433 -1.0082  0.9711 -0.8234
 7152SOL     OW33433   2.716   1.075   7.279 -0.2303 -0.0348 -0.0304
 7152SOL    HW133434   2.799   1.123   7.272 -0.8378  1.1776  0.6086
 7152SOL    HW233435   2.659   1.117   7.215 -1.5191  1.8340  2.1713
 7153SOL     OW33436   7.421   2.799   4.272  0.7299  0.0804  0.0600
 7153SOL    HW133437   7.515   2.817   4.274  0.7993  0.0688 -1.6704
 7153SOL    HW233438   7.390   2.842   4.192 -0.1189 -2.6597 -1.2209
 7154SOL     OW33439   9.883  10.233   9.021  0.1600  0.6909 -0.4814
 7154SOL    HW133440   9.832  10.198   9.094  0.9646 -0.7461 -0.5733
 7154SOL    HW233441   9.824  10.225   8.945 -0.3318  1.3081 -0.1761
 7155SOL     OW33442   1.698   2.141   5.274 -0.0143  0.6017 -0.0836
 7155SOL    HW133443   1.780   2.097   5.253 -0.2698  0.7876 -1.5850
 7155SOL    HW233444   1.723   2.213   5.333  0.8604  0.5127 -0.3443
 7156SOL     OW33445  10.238   2.538   1.426  0.1472  0.3028  1.0513
 7156SOL    HW133446  10.293   2.576   1.357 -0.0353  1.0105  1.2913
 7156SOL    HW233447  10.160   2.508   1.380 -0.0106  0.8468  0.9559
 7157SOL     OW33448   7.484  10.095   6.454  0.3233  0.3965  0.4761
 7157SOL    HW133449   7.571  10.093   6.415  0.8066  0.1585  1.5201
 7157SOL    HW233450   7.450  10.182   6.432  0.2074 -0.0319 -1.1872
 7158SOL     OW33451   6.845   5.021   9.209 -0.4455  0.6810 -0.3269
 7158SOL    HW133452   6.833   5.115   9.199 -1.2468  0.4491 -1.7583
 7158SOL    HW233453   6.841   4.986   9.120 -1.5638 -0.8606  0.2773
 7159SOL     OW33454   8.759   5.264   8.776 -0.0142 -0.5734 -0.1174
 7159SOL    HW133455   8.676   5.299   8.744  0.9666  1.5390 -0.5312
 7159SOL    HW233456   8.761   5.174   8.743 -0.9652  0.1583 -2.4397
 7160SOL     OW33457   4.665   9.795  10.075  0.1500  0.2608 -0.1025
 7160SOL    HW133458   4.667   9.864  10.009 -0.1711 -0.1086 -0.5075
 7160SOL    HW233459   4.689   9.838  10.157 -0.9546  1.0440 -0.1745
 7161SOL     OW33460   9.476   7.958   4.225  0.1184  0.4175  0.4928
 7161SOL    HW133461   9.403   7.897   4.235 -0.2531  0.9107  0.8815
 7161SOL    HW233462   9.476   8.009   4.306  0.2622  1.0919  0.0850
 7162SOL     OW33463   1.699   0.805   6.524  0.6106 -0.1094 -0.3388
 7162SOL    HW133464   1.679   0.891   6.560 -1.2140 -0.0317 -1.4386
 7162SOL    HW233465   1.641   0.745   6.570  0.9043 -0.5557 -0.5404
 7163SOL     OW33466   9.065   0.990   6.818  0.2514  0.0207 -0.0079
 7163SOL    HW133467   9.052   1.081   6.845 -1.4872  0.1955 -1.2988
 7163SOL    HW233468   9.018   0.938   6.884 -1.9005  0.3096 -1.2328
 7164SOL     OW33469   3.901  10.335   9.728  0.1509 -0.0292 -0.6363
 7164SOL    HW133470   3.862  10.265   9.780  4.2498 -1.1426  1.3876
 7164SOL    HW233471   3.923  10.403   9.792  3.3588 -0.4775 -1.0912
 7165SOL     OW33472   3.307   1.040   4.144  0.2686 -0.0176  0.3948
 7165SOL    HW133473   3.230   0.984   4.156 -0.5983  0.8812 -0.6750
 7165SOL    HW233474   3.338   1.020   4.055  0.0185  1.0783  0.0442
 7166SOL     OW33475   7.212   6.212   0.448 -0.1407  0.6386  0.1705
 7166SOL    HW133476   7.120   6.236   0.458 -0.3153  0.5344 -1.0211
 7166SOL    HW233477   7.213   6.149   0.377  0.6868 -0.5737  1.2172
 7167SOL     OW33478   4.417   0.714   9.450 -0.0386  0.4326  0.5470
 7167SOL    HW133479   4.346   0.774   9.428  0.5373  0.9201 -0.0480
 7167SOL    HW233480   4.413   0.646   9.383  1.2418  1.5093 -0.7022
 7168SOL     OW33481   8.442   5.471   9.400 -0.2615 -0.5651 -0.0290
 7168SOL    HW133482   8.520   5.431   9.361  0.0973  0.0558  0.0444
 7168SOL    HW233483   8.475   5.520   9.475 -0.9026 -1.4987  0.8900
 7169SOL     OW33484   7.957   5.175   4.440 -0.0707 -0.2475 -0.9455
 7169SOL    HW133485   7.955   5.178   4.535  2.1525 -0.6972 -0.8357
 7169SOL    HW233486   8.015   5.103   4.419  0.6943  0.7884 -2.6153
 7170SOL     OW33487   7.113   0.581   1.252 -0.1052  0.2936 -0.1914
 7170SOL    HW133488   7.208   0.575   1.253 -0.1378 -0.1912  0.4212
 7170SOL    HW233489   7.083   0.492   1.274 -0.7073  0.1736 -1.3930
 7171SOL     OW33490   8.202  10.119   7.092  0.5927 -0.2752  0.2055
 7171SOL    HW133491   8.119  10.095   7.050  1.6652  0.4075 -2.5485
 7171SOL    HW233492   8.182  10.200   7.139 -0.4503 -0.4792  0.1473
 7172SOL     OW33493   5.915   9.949   7.329  0.3615 -0.0822 -0.1681
 7172SOL    HW133494   5.926   9.999   7.249 -1.2791 -0.0554 -0.4024
 7172SOL    HW233495   5.864   9.872   7.303 -0.2607 -0.0329  0.8542
 7173SOL     OW33496   1.678   7.078   7.240 -0.5206 -0.2045  0.0737
 7173SOL    HW133497   1.716   7.065   7.327 -1.7308 -4.0161  0.2343
 7173SOL    HW233498   1.730   7.022   7.182  0.4164  2.4369 -1.8070
 7174SOL     OW33499  10.266   5.214  10.215  0.8050  0.1649  0.4710
 7174SOL    HW133500  10.244   5.307  10.226 -0.4508  0.1616 -1.5378
 7174SOL    HW233501  10.181   5.170  10.219  1.1338 -0.6265 -0.8842
 7175SOL     OW33502   9.841   8.989   9.895 -0.0694  0.0221 -0.2617
 7175SOL    HW133503   9.848   8.999   9.800  1.3264 -1.0996 -0.3011
 7175SOL    HW233504   9.880   9.070   9.930 -1.6417  0.9812 -0.6060
 7176SOL     OW33505   8.007   7.857   5.728  0.1306 -0.6104 -0.2754
 7176SOL    HW133506   8.034   7.862   5.637  1.4547 -1.5767  0.0344
 7176SOL    HW233507   8.004   7.948   5.757  0.7916 -0.3585 -0.9796
 7177SOL     OW33508   1.519   1.412   6.290 -0.1495  0.3499  0.0076
 7177SOL    HW133509   1.559   1.326   6.276  0.3869  0.6647 -0.4185
 7177SOL    HW233510   1.428   1.393   6.313 -0.1469 -0.3132 -0.5090
 7178SOL     OW33511  10.227   6.543   7.843 -0.1125  0.0184 -0.3083
 7178SOL    HW133512  10.141   6.510   7.868 -0.7993  1.0677 -1.1751
 7178SOL    HW233513  10.209   6.626   7.799  1.4157  0.6817  0.2424
 7179SOL     OW33514  10.166   2.968   5.876 -0.3070  0.3530 -0.2836
 7179SOL    HW133515  10.185   3.045   5.824 -1.1238  1.1901  0.6166
 7179SOL    HW233516  10.251   2.940   5.910 -0.2548  2.2983  1.3390
 7180SOL     OW33517   4.530   0.122   6.996 -0.0803  0.1601  0.3886
 7180SOL    HW133518   4.508   0.062   7.068 -1.4678  0.8524  0.5801
 7180SOL    HW233519   4.513   0.072   6.917  0.2948 -0.2095  0.5368
 7181SOL     OW33520   0.579   2.935   3.333 -0.8398 -0.5449 -0.4136
 7181SOL    HW133521   0.662   2.974   3.362 -0.7628 -1.7149  1.0639
 7181SOL    HW233522   0.586   2.931   3.237 -0.0486  1.1910 -0.4687
 7182SOL     OW33523   7.834   2.525   5.529 -0.2379 -0.0491 -0.0587
 7182SOL    HW133524   7.816   2.509   5.437 -3.5127 -1.2009  0.6625
 7182SOL    HW233525   7.799   2.612   5.547  0.1799  0.0780  0.1587
 7183SOL     OW33526   6.566   8.195   0.958 -0.0667 -0.8432  0.3488
 7183SOL    HW133527   6.615   8.270   0.994  0.2363 -0.7697 -0.2052
 7183SOL    HW233528   6.584   8.197   0.864 -2.1002 -0.0925 -0.0857
 7184SOL     OW33529   5.577   7.387   2.239  0.0413 -0.0034  0.3533
 7184SOL    HW133530   5.556   7.445   2.166  0.7847  0.0487  0.1723
 7184SOL    HW233531   5.575   7.444   2.316  0.9733  0.3187  0.1510
 7185SOL     OW33532   8.387   2.158   3.165 -0.3151  0.3673  0.1893
 7185SOL    HW133533   8.448   2.117   3.225 -0.1944 -0.5705 -0.5538
 7185SOL    HW233534   8.305   2.163   3.214 -0.0276  0.3048  0.6849
 7186SOL     OW33535   6.049   0.820   5.614  0.3690  0.3562 -0.1932
 7186SOL    HW133536   6.069   0.737   5.570  1.7853  0.1412  0.7910
 7186SOL    HW233537   5.973   0.802   5.668  1.5472 -0.7547  1.1606
 7187SOL     OW33538   9.460   1.467   5.844  0.2353  0.1072  0.1379
 7187SOL    HW133539   9.467   1.457   5.749  1.5064  0.2087  0.2156
 7187SOL    HW233540   9.394   1.402   5.870  1.3365 -1.3499 -0.5759
 7188SOL     OW33541   4.060   6.172   9.225  0.0080  0.2291  0.2817
 7188SOL    HW133542   4.058   6.083   9.189  0.4835  0.2814  0.1252
 7188SOL    HW233543   4.102   6.225   9.158  0.5382  0.4042  0.7469
 7189SOL     OW33544   0.748   9.723   5.492  0.2429 -0.0562 -0.0281
 7189SOL    HW133545   0.728   9.697   5.402  0.8157 -0.1820 -0.1264
 7189SOL    HW233546   0.834   9.685   5.508  0.5405  0.7359  0.2605
 7190SOL     OW33547   6.684   0.124   2.227  0.8809  0.1303  0.3467
 7190SOL    HW133548   6.750   0.191   2.245  3.4749 -1.6863 -1.6234
 7190SOL    HW233549   6.732   0.041   2.225 -1.4085 -1.3224 -1.3253
 7191SOL     OW33550   3.285   3.948   7.233 -0.2224  0.2555 -0.2570
 7191SOL    HW133551   3.240   3.884   7.177 -0.9814 -1.2970  1.9802
 7191SOL    HW233552   3.352   3.896   7.279 -0.9127  1.0117  1.6927
 7192SOL     OW33553   9.811   0.767  10.140  0.4023  0.0202 -0.3044
 7192SOL    HW133554   9.799   0.805  10.227 -0.0895  0.6191 -0.6168
 7192SOL    HW233555   9.885   0.707  10.149  0.2794 -0.0161  0.5499
 7193SOL     OW33556   4.141   3.515   7.731  0.0429 -0.0690 -0.6355
 7193SOL    HW133557   4.069   3.451   7.731 -0.0791  0.0564  0.0016
 7193SOL    HW233558   4.202   3.483   7.665 -0.5272 -0.2602 -1.0813
 7194SOL     OW33559   8.484   0.420   3.358  0.3260 -0.3134 -0.1695
 7194SOL    HW133560   8.500   0.511   3.382  1.1090 -0.2676 -0.8362
 7194SOL    HW233561   8.569   0.387   3.329  0.2140 -1.4652  0.7184
 7195SOL     OW33562   0.543   2.727   0.953  0.0812 -0.3121  0.1589
 7195SOL    HW133563   0.610   2.788   0.925  0.4112 -0.7115  0.0637
 7195SOL    HW233564   0.522   2.676   0.875 -1.6696  1.0235 -0.2948
 7196SOL     OW33565   0.673   6.244   2.581 -0.6901 -0.1082 -0.4323
 7196SOL    HW133566   0.606   6.228   2.647 -0.7073  0.7696 -0.2273
 7196SOL    HW233567   0.751   6.267   2.631 -0.2079 -1.1425 -0.6682
 7197SOL     OW33568   8.522   7.936   4.620  0.8441  0.2265 -0.5462
 7197SOL    HW133569   8.537   8.030   4.632  1.2611 -0.0187  1.0680
 7197SOL    HW233570   8.461   7.932   4.546  0.2809  1.8085 -0.2241
 7198SOL     OW33571   7.882   6.873   1.563 -0.3207 -0.3480 -0.7090
 7198SOL    HW133572   7.922   6.959   1.575 -0.8157 -0.2941  0.7507
 7198SOL    HW233573   7.949   6.821   1.518  1.2480 -0.1202  1.2286
 7199SOL     OW33574   0.285   2.424   9.095  0.2175  0.1581  0.3411
 7199SOL    HW133575   0.352   2.440   9.029 -0.5533  0.4855 -0.3837
 7199SOL    HW233576   0.331   2.430   9.179  1.0747  0.4168 -0.1407
 7200SOL     OW33577   9.580   5.647   7.067 -1.1007 -0.0495 -0.1688
 7200SOL    HW133578   9.625   5.611   6.991 -0.3197 -0.9242  0.6791
 7200SOL    HW233579   9.650   5.671   7.128 -1.7247 -0.6653  0.8372
 7201SOL     OW33580   2.039   8.277   5.725  0.1693 -0.0866 -0.2398
 7201SOL    HW133581   2.002   8.221   5.792 -0.4226  0.7771  0.1715
 7201SOL    HW233582   1.973   8.280   5.656  0.5341 -0.5136 -0.6184
 7202SOL     OW33583   0.502   3.470   6.599  0.1352  0.2341 -0.1457
 7202SOL    HW133584   0.470   3.557   6.575  0.3639  0.5989  0.8469
 7202SOL    HW233585   0.462   3.412   6.534  0.2795  1.1116 -1.0503
 7203SOL     OW33586   1.481   3.249   3.759  0.4557  0.1926 -0.0501
 7203SOL    HW133587   1.388   3.245   3.736  0.2243  0.2406  0.8654
 7203SOL    HW233588   1.518   3.312   3.697  0.6153 -2.3971 -2.8384
 7204SOL     OW33589   1.243   7.156   1.462 -0.4788 -0.6913 -0.4266
 7204SOL    HW133590   1.278   7.219   1.526 -0.6033 -0.2153 -0.8209
 7204SOL    HW233591   1.305   7.158   1.390 -0.3250 -1.2509 -0.3141
 7205SOL     OW33592   7.837   7.338   5.171 -0.0257 -0.2892  0.3054
 7205SOL    HW133593   7.750   7.365   5.144  0.0913 -2.0550 -2.0949
 7205SOL    HW233594   7.827   7.245   5.196  0.9673 -0.1944  1.1529
 7206SOL     OW33595   5.076   1.930   5.320  0.3139 -0.1609 -0.1370
 7206SOL    HW133596   5.127   1.855   5.351  0.6446  0.6004  1.2050
 7206SOL    HW233597   4.986   1.910   5.345  0.6933  0.8802  2.3258
 7207SOL     OW33598   5.092   7.403   3.164 -0.0058 -0.0489 -0.4825
 7207SOL    HW133599   5.088   7.499   3.168  0.4460  0.0807 -2.5036
 7207SOL    HW233600   5.001   7.375   3.177 -0.1979  0.6595 -0.2360
 7208SOL     OW33601   7.862   1.468   2.713 -0.0566 -0.5150 -0.0928
 7208SOL    HW133602   7.842   1.432   2.800  1.1202  2.2444  1.4528
 7208SOL    HW233603   7.778   1.497   2.679 -0.3894 -0.5781  0.6570
 7209SOL     OW33604   8.435   3.779   2.161  0.6481  0.1163 -0.0625
 7209SOL    HW133605   8.529   3.798   2.160  0.3611  2.1750 -3.1128
 7209SOL    HW233606   8.409   3.785   2.069 -2.6309  0.3687  0.7705
 7210SOL     OW33607   7.997   0.127   8.914  0.3977  0.3755 -0.0154
 7210SOL    HW133608   7.925   0.190   8.908 -0.5522 -0.8189 -3.0455
 7210SOL    HW233609   8.041   0.133   8.829  3.6034  0.6099  1.5018
 7211SOL     OW33610   2.669   5.105   2.292 -0.1287  0.0061  0.7391
 7211SOL    HW133611   2.691   5.173   2.356 -0.0193 -0.7251  1.4992
 7211SOL    HW233612   2.751   5.084   2.249  0.4385 -1.5468  2.4175
 7212SOL     OW33613   4.609   6.909   2.985  0.0169  0.0852 -0.0627
 7212SOL    HW133614   4.638   6.819   2.972  0.9053  0.3539 -0.0756
 7212SOL    HW233615   4.560   6.931   2.906  1.4398  0.2164 -0.9500
 7213SOL     OW33616   5.261   7.123   7.626 -0.0520  0.0546  0.3604
 7213SOL    HW133617   5.218   7.050   7.582 -0.6845  1.1239 -0.8810
 7213SOL    HW233618   5.351   7.094   7.639 -0.5965 -1.4306  1.1096
 7214SOL     OW33619   0.491   4.625   1.229  0.0960  0.4596  0.1137
 7214SOL    HW133620   0.415   4.682   1.231 -0.6440 -0.5173  0.4677
 7214SOL    HW233621   0.488   4.579   1.313 -1.4146 -2.7689 -1.5758
 7215SOL     OW33622   8.091   4.055   1.024  0.4815 -0.4117  0.3035
 7215SOL    HW133623   8.112   4.084   1.113  1.5582  0.0646 -0.0906
 7215SOL    HW233624   8.166   4.083   0.971 -0.9399  0.9524 -1.1075
 7216SOL     OW33625   2.069   2.004   3.426  0.6911  0.1360 -0.6097
 7216SOL    HW133626   2.055   1.911   3.407  0.7828 -0.7467  2.9124
 7216SOL    HW233627   2.084   2.007   3.520 -1.7735  3.9932 -0.0968
 7217SOL     OW33628   1.106   8.064   8.121 -0.1588 -0.1464  0.6701
 7217SOL    HW133629   1.112   7.989   8.181 -2.6627 -0.6424  0.4046
 7217SOL    HW233630   1.063   8.132   8.173 -1.7971 -0.3749 -0.3244
 7218SOL     OW33631   2.119   3.005   0.709  0.1793  0.0475  0.5616
 7218SOL    HW133632   2.178   2.998   0.634 -0.6505  2.0570 -0.3468
 7218SOL    HW233633   2.075   3.089   0.698 -2.0799 -0.8715  1.7850
 7219SOL     OW33634   8.338   6.932   2.356 -0.0613  0.6533  0.2630
 7219SOL    HW133635   8.335   6.905   2.448 -0.7880  1.1591  0.4011
 7219SOL    HW233636   8.430   6.948   2.338  0.0709  0.6686  0.9432
 7220SOL     OW33637   5.228   2.523   9.548 -0.5692 -0.0425 -0.0521
 7220SOL    HW133638   5.307   2.469   9.552 -0.7215 -0.1939  1.3352
 7220SOL    HW233639   5.235   2.569   9.464  0.9276 -0.1622 -0.0244
 7221SOL     OW33640   9.754   5.060   5.569  0.2102  0.0191  0.0996
 7221SOL    HW133641   9.763   4.966   5.586  1.3563  0.4441  2.1963
 7221SOL    HW233642   9.837   5.085   5.528 -0.0628  0.1471 -0.3878
 7222SOL     OW33643   4.011   0.462   0.063 -0.1598 -0.5078 -0.8869
 7222SOL    HW133644   4.034   0.386   0.010  0.7683 -0.9333  0.0862
 7222SOL    HW233645   3.921   0.482   0.040 -1.0211 -2.9589  0.0650
 7223SOL     OW33646   5.598   5.711   1.231 -0.1593  0.3824  0.8442
 7223SOL    HW133647   5.623   5.690   1.141  2.0768  0.5019  1.3652
 7223SOL    HW233648   5.509   5.745   1.224  0.6067  2.1743 -1.5961
 7224SOL     OW33649  10.353   8.469   2.296 -0.1819  0.0780  0.1850
 7224SOL    HW133650  10.416   8.431   2.357  0.8553  0.4455 -0.6210
 7224SOL    HW233651  10.392   8.552   2.270 -0.3259 -0.3045 -1.3735
 7225SOL     OW33652   9.788   7.456   3.679  0.4679 -0.2796 -0.3734
 7225SOL    HW133653   9.871   7.493   3.709  0.1655  2.3698 -2.4544
 7225SOL    HW233654   9.721   7.504   3.728  0.1051  0.7835 -1.8432
 7226SOL     OW33655   3.116   1.558   3.391 -0.0498  0.5345  0.4313
 7226SOL    HW133656   3.135   1.647   3.360  0.2510  0.4753  0.4354
 7226SOL    HW233657   3.198   1.530   3.431 -0.0002  0.0854  0.0288
 7227SOL     OW33658   4.279   1.434   2.921 -0.2591  0.2312 -0.1315
 7227SOL    HW133659   4.317   1.347   2.907  0.0124  0.1407  1.1062
 7227SOL    HW233660   4.224   1.448   2.844 -0.4382 -1.0966 -0.2753
 7228SOL     OW33661   1.806   2.225   6.763 -0.8742 -0.7045  0.2458
 7228SOL    HW133662   1.831   2.145   6.808 -0.1935  1.0432  3.2726
 7228SOL    HW233663   1.867   2.291   6.796 -1.8394  1.2382 -1.5923
 7229SOL     OW33664  10.084   2.065   1.226 -0.4395  0.5562  0.5317
 7229SOL    HW133665  10.070   1.989   1.281  0.7679  1.3666  2.0274
 7229SOL    HW233666  10.137   2.125   1.279 -0.1260  1.8341 -1.1135
 7230SOL     OW33667   6.382  10.357   7.509 -0.1634  0.3434  0.4158
 7230SOL    HW133668   6.476  10.356   7.527 -0.0097  1.2309 -0.2745
 7230SOL    HW233669   6.348  10.277   7.551  0.7799  0.3722  1.2538
 7231SOL     OW33670   4.600   2.507   2.380  0.7168  0.2136  0.0934
 7231SOL    HW133671   4.690   2.482   2.401  1.5236  0.3588 -2.7037
 7231SOL    HW233672   4.602   2.602   2.374  0.9207  0.1304 -1.8154
 7232SOL     OW33673   9.401   8.122   0.219 -0.3267  0.6965 -0.4605
 7232SOL    HW133674   9.442   8.138   0.304 -1.9676 -0.5803  0.6140
 7232SOL    HW233675   9.318   8.168   0.223 -0.3777  0.7096 -1.4314
 7233SOL     OW33676   1.969   7.613   7.915 -0.6038 -0.1548 -0.5015
 7233SOL    HW133677   1.905   7.634   7.847 -1.8301  2.4789  1.2928
 7233SOL    HW233678   1.931   7.539   7.962  0.4760 -2.3118 -2.8284
 7234SOL     OW33679   8.904  10.363   1.996  0.0941 -0.3587  0.4558
 7234SOL    HW133680   8.901  10.308   2.075 -2.3857 -2.0764 -0.6743
 7234SOL    HW233681   8.877  10.449   2.026 -1.4067 -1.1282  1.4510
 7235SOL     OW33682   4.523  10.016   2.476  0.5935  0.1053 -0.1498
 7235SOL    HW133683   4.495  10.103   2.448  0.7212  0.3654  0.5262
 7235SOL    HW233684   4.497   9.959   2.404  0.3318  0.6715 -0.5131
 7236SOL     OW33685   1.961   7.720   2.556  0.6740  0.0051 -0.1271
 7236SOL    HW133686   1.892   7.746   2.617  0.6415 -0.6430  0.1124
 7236SOL    HW233687   2.006   7.802   2.536 -2.4491  1.2268 -3.2420
 7237SOL     OW33688   1.930   1.330   3.439  0.8406 -0.0600 -0.1193
 7237SOL    HW133689   1.920   1.331   3.534  2.7101  0.3544  0.1206
 7237SOL    HW233690   1.975   1.413   3.419  1.4348 -0.6225 -1.2149
 7238SOL     OW33691   3.802   7.680   8.771 -0.3050  0.6517 -0.1846
 7238SOL    HW133692   3.709   7.702   8.777 -0.0835  1.4380  0.4152
 7238SOL    HW233693   3.805   7.609   8.706 -1.2241  1.1934 -0.8365
 7239SOL     OW33694   1.339   1.462   0.845  0.2736  0.8337 -0.0864
 7239SOL    HW133695   1.299   1.379   0.871  0.8074  0.8532  0.8596
 7239SOL    HW233696   1.316   1.523   0.916  0.0893  1.4370 -0.6516
 7240SOL     OW33697   5.906   9.534   5.049  0.3343 -0.2626 -0.8868
 7240SOL    HW133698   5.869   9.517   4.963  0.8125  0.2693 -1.2037
 7240SOL    HW233699   5.955   9.455   5.071 -1.2613 -1.1272 -0.3012
 7241SOL     OW33700   1.196   3.641   1.164  0.0046 -0.0830 -0.0323
 7241SOL    HW133701   1.117   3.591   1.142 -0.1293  0.1565 -0.1123
 7241SOL    HW233702   1.265   3.603   1.109  0.0095 -0.4863  0.2561
 7242SOL     OW33703   4.835   4.174   7.585 -0.2894  0.4778  0.3628
 7242SOL    HW133704   4.907   4.205   7.530 -0.2971  0.0159  0.0846
 7242SOL    HW233705   4.793   4.253   7.618  0.1098  0.7519  0.2172
 7243SOL     OW33706  10.180  10.280   3.937  0.2213 -0.0671 -0.0411
 7243SOL    HW133707  10.275  10.287   3.945  0.2856 -1.8368  1.2667
 7243SOL    HW233708  10.164  10.272   3.843  1.1694  2.0997 -0.4454
 7244SOL     OW33709   9.318   4.390   7.195  0.5498  0.8309  0.0001
 7244SOL    HW133710   9.243   4.431   7.238 -0.4063  0.2953 -1.0912
 7244SOL    HW233711   9.285   4.305   7.166  1.0675  1.2757 -1.9952
 7245SOL     OW33712   0.406   6.876   4.541  0.6635 -0.0362  0.1203
 7245SOL    HW133713   0.450   6.847   4.461 -0.0431 -0.0092 -0.2869
 7245SOL    HW233714   0.313   6.860   4.525  0.6444 -1.8934  1.7022
 7246SOL     OW33715   1.671   0.127   9.571  0.0877  0.6712 -0.0504
 7246SOL    HW133716   1.682   0.213   9.612 -0.3710  0.2887  0.8948
 7246SOL    HW233717   1.598   0.087   9.618 -0.7120  0.3700 -1.5172
 7247SOL     OW33718   8.284  10.122   8.218  0.4390  0.1623  0.9342
 7247SOL    HW133719   8.358  10.108   8.277 -0.1004  0.8575  1.8221
 7247SOL    HW233720   8.262  10.215   8.229  0.3807  0.3254 -0.4548
 7248SOL     OW33721   1.340   1.880   9.840 -0.1936 -0.0193 -0.2713
 7248SOL    HW133722   1.424   1.846   9.872 -0.2275 -0.4300 -0.6151
 7248SOL    HW233723   1.357   1.973   9.822  0.3773 -0.2563 -1.0010
 7249SOL     OW33724   7.805   8.135   5.820 -0.7073 -0.3740 -0.1326
 7249SOL    HW133725   7.872   8.160   5.883  0.0434 -0.6844 -0.7850
 7249SOL    HW233726   7.821   8.191   5.744  1.0824 -2.7411 -1.6633
 7250SOL     OW33727   7.589   1.668   0.595 -0.3559 -0.7108 -0.2311
 7250SOL    HW133728   7.608   1.583   0.556  0.8576 -0.4644 -0.2057
 7250SOL    HW233729   7.670   1.693   0.640 -0.6831  0.4593 -0.2490
 7251SOL     OW33730   7.843   7.313   6.687  0.2592 -0.1905  0.0993
 7251SOL    HW133731   7.884   7.390   6.727 -2.4085  0.8120  1.1909
 7251SOL    HW233732   7.892   7.298   6.607  2.3295  1.2099  1.0210
 7252SOL     OW33733   4.628   5.094   4.851 -0.0898  0.2007  0.8121
 7252SOL    HW133734   4.543   5.118   4.813 -0.3822  0.9572  1.8650
 7252SOL    HW233735   4.622   5.000   4.867  0.6630 -0.4882 -2.4187
 7253SOL     OW33736   1.431   1.476   3.084  0.1428  0.0635 -0.6194
 7253SOL    HW133737   1.348   1.513   3.113 -1.4624 -0.3390 -4.1267
 7253SOL    HW233738   1.467   1.541   3.024 -0.2713 -1.7745 -3.0435
 7254SOL     OW33739   7.780   4.551   5.744 -0.0567 -0.4661 -0.2064
 7254SOL    HW133740   7.706   4.495   5.723 -0.8858  0.6678 -0.4426
 7254SOL    HW233741   7.857   4.499   5.721 -0.5930 -2.7731  2.6379
 7255SOL     OW33742   8.529   8.210   4.711 -0.1727  0.0524  0.4246
 7255SOL    HW133743   8.605   8.248   4.668 -0.7858  1.0878  0.2170
 7255SOL    HW233744   8.527   8.251   4.797  0.1988 -0.8971  0.8962
 7256SOL     OW33745   6.607   0.835   9.519  0.9265 -0.5002 -0.0373
 7256SOL    HW133746   6.513   0.837   9.502  0.9297  2.1140 -0.0205
 7256SOL    HW233747   6.631   0.743   9.507 -1.1808 -0.8401 -2.3372
 7257SOL     OW33748   2.936   5.527   5.080  0.6479 -0.0623 -0.3296
 7257SOL    HW133749   2.855   5.489   5.114 -0.3545  1.8676 -0.4572
 7257SOL    HW233750   2.958   5.472   5.004 -0.8337 -0.2814 -0.6276
 7258SOL     OW33751  10.129   3.943   2.127  0.2541  0.3482  0.4357
 7258SOL    HW133752  10.089   4.022   2.089  0.0990 -0.1802 -0.5028
 7258SOL    HW233753  10.154   3.971   2.215 -0.5928  1.2034  0.4341
 7259SOL     OW33754   6.386   1.426   0.526 -0.5152 -0.1271  0.6473
 7259SOL    HW133755   6.450   1.382   0.471  0.5906  0.6218  1.3000
 7259SOL    HW233756   6.379   1.371   0.604  0.5232  0.5638  1.2589
 7260SOL     OW33757   4.034   8.045   7.083 -0.2955  0.2260  0.2435
 7260SOL    HW133758   4.025   8.133   7.118  0.2350  0.2412  0.3493
 7260SOL    HW233759   4.069   7.993   7.155 -0.4665 -0.0389  0.1381
 7261SOL     OW33760   4.099   0.368   1.531  0.0651  0.2320 -0.0953
 7261SOL    HW133761   4.065   0.439   1.586 -1.4658  0.2262 -0.9823
 7261SOL    HW233762   4.136   0.412   1.455  1.7781  0.2111  0.6727
 7262SOL     OW33763   8.843   7.654   7.297  0.0820  0.0649 -1.1274
 7262SOL    HW133764   8.838   7.747   7.277  1.3043 -0.2195 -3.0038
 7262SOL    HW233765   8.921   7.624   7.250  0.2786 -1.7189  0.2382
 7263SOL     OW33766   5.316   9.476   5.425 -0.0134  0.3719 -0.7422
 7263SOL    HW133767   5.361   9.421   5.490  0.1008 -0.4230 -1.4806
 7263SOL    HW233768   5.275   9.414   5.365 -1.8183  1.0664 -0.3141
 7264SOL     OW33769   2.282   0.691   0.832  0.7157  0.2673 -0.0976
 7264SOL    HW133770   2.296   0.677   0.739 -1.7057  2.7585 -0.9958
 7264SOL    HW233771   2.355   0.747   0.859  1.0041  0.1971 -0.7082
 7265SOL     OW33772   7.810   9.921   9.380 -0.0128  0.6675  0.2128
 7265SOL    HW133773   7.761   9.956   9.455  0.5680  1.1567  0.3733
 7265SOL    HW233774   7.828   9.998   9.326 -0.0179  0.3831 -0.1912
 7266SOL     OW33775   3.186   0.106   8.263 -0.2392  0.0721 -0.2709
 7266SOL    HW133776   3.245   0.030   8.262 -2.0309 -1.3735 -0.0404
 7266SOL    HW233777   3.145   0.106   8.177 -0.5088  0.5747 -0.1467
 7267SOL     OW33778   6.003   0.643   2.850  0.0859  0.5040  0.0188
 7267SOL    HW133779   5.911   0.637   2.873  0.3486  0.8772  1.2223
 7267SOL    HW233780   6.046   0.576   2.903  0.4585  0.0536 -0.8387
 7268SOL     OW33781   5.006   7.304   6.812 -0.2858 -0.3052  0.3669
 7268SOL    HW133782   4.928   7.355   6.833  0.1519  0.3816  0.3377
 7268SOL    HW233783   5.065   7.319   6.886 -0.2651 -1.0135  0.5049
 7269SOL     OW33784   9.973   2.808   7.861 -0.2873 -0.0569 -0.5661
 7269SOL    HW133785   9.939   2.896   7.878 -0.4085 -0.1403 -0.3754
 7269SOL    HW233786   9.923   2.751   7.919 -2.4080 -0.7031 -2.8490
 7270SOL     OW33787   2.572  10.041   8.661  0.0028  0.3213  0.7081
 7270SOL    HW133788   2.582  10.062   8.569 -0.2297  0.0919  0.6277
 7270SOL    HW233789   2.647   9.986   8.682 -0.9746 -1.3197  0.1335
 7271SOL     OW33790   6.383   1.164   6.018  0.1490 -0.0072 -0.5631
 7271SOL    HW133791   6.402   1.222   6.092  1.3253  0.0875 -0.9164
 7271SOL    HW233792   6.313   1.208   5.970  0.6051  0.8363 -0.4852
 7272SOL     OW33793   4.379   6.279   2.147 -0.4778  0.3414 -0.3001
 7272SOL    HW133794   4.398   6.357   2.198 -2.9117 -0.2051  1.6638
 7272SOL    HW233795   4.461   6.230   2.145 -0.2425  0.3966  3.1845
 7273SOL     OW33796   3.639   1.897   2.345  0.6184  0.1369  0.6033
 7273SOL    HW133797   3.577   1.946   2.399  1.7295  0.4504  1.6459
 7273SOL    HW233798   3.725   1.922   2.379  1.2693 -1.4579  0.2208
 7274SOL     OW33799   1.381   5.352   1.747 -0.1327 -0.4563 -0.0924
 7274SOL    HW133800   1.456   5.297   1.725 -0.7460 -1.0104 -0.8849
 7274SOL    HW233801   1.307   5.291   1.750 -0.7632  0.2596 -0.6245
 7275SOL     OW33802   1.398   7.863   0.055 -0.1726 -0.0562  0.3571
 7275SOL    HW133803   1.334   7.798   0.026 -0.3522 -0.0962  0.8338
 7275SOL    HW233804   1.345   7.940   0.077  0.0489  0.3014 -0.3168
 7276SOL     OW33805   5.759   7.987   7.479 -0.4677 -0.1334 -0.4547
 7276SOL    HW133806   5.731   7.898   7.498 -0.1074  0.1758  1.7292
 7276SOL    HW233807   5.682   8.029   7.440 -2.2133 -0.1365  2.7009
 7277SOL     OW33808   7.887   1.162   7.707  0.0404 -0.1033 -0.6996
 7277SOL    HW133809   7.918   1.111   7.782  0.1742 -1.4271 -1.6147
 7277SOL    HW233810   7.962   1.217   7.682  0.2701 -0.2638 -0.3696
 7278SOL     OW33811   7.318   5.242   5.733  0.1982 -0.1024 -0.1793
 7278SOL    HW133812   7.376   5.318   5.723  1.1374 -1.0254 -2.2241
 7278SOL    HW233813   7.231   5.280   5.748  0.8840  1.3357  0.3473
 7279SOL     OW33814   2.587   1.961   8.490 -0.6056 -0.4346  0.6455
 7279SOL    HW133815   2.511   2.007   8.524  0.1136  0.0972  1.5968
 7279SOL    HW233816   2.660   1.991   8.545  0.2085 -1.2817  0.0656
 7280SOL     OW33817   2.715   0.155   6.017 -0.7179  0.2756 -0.0156
 7280SOL    HW133818   2.624   0.128   6.032 -0.7182  0.2761 -0.0171
 7280SOL    HW233819   2.755   0.149   6.104  0.2398 -3.2585 -0.5203
 7281SOL     OW33820   8.760   1.262   8.822  0.4487 -0.4269 -0.0697
 7281SOL    HW133821   8.716   1.184   8.858 -1.7646  0.3310 -0.9470
 7281SOL    HW233822   8.733   1.333   8.881 -1.6957  0.4963 -2.0175
 7282SOL     OW33823   3.985   5.198   8.631  0.4900 -0.3689  0.6004
 7282SOL    HW133824   3.936   5.129   8.676 -0.8244 -0.2462 -0.5648
 7282SOL    HW233825   4.006   5.160   8.546  0.3534  0.4329  0.2027
 7283SOL     OW33826   2.049   3.506   9.485 -0.5296 -0.1944 -0.2520
 7283SOL    HW133827   2.111   3.449   9.439  0.9677  0.4417  0.8536
 7283SOL    HW233828   1.985   3.531   9.419  0.8147 -0.3162 -1.6655
 7284SOL     OW33829   9.223   6.616   5.005  0.1755  0.0309  0.7118
 7284SOL    HW133830   9.222   6.711   4.993  1.2060 -0.1168 -0.7991
 7284SOL    HW233831   9.160   6.583   4.941  1.3080 -0.4196 -0.1860
 7285SOL     OW33832   8.524   0.588   2.189  0.5291  0.0182 -0.1236
 7285SOL    HW133833   8.440   0.619   2.155  0.3612 -1.4120 -1.0694
 7285SOL    HW233834   8.504   0.559   2.278 -0.7407 -3.1829 -1.3214
 7286SOL     OW33835   2.278   9.371   4.917  0.0991  0.1735 -0.1038
 7286SOL    HW133836   2.218   9.401   4.848  0.3094 -2.1582 -1.4356
 7286SOL    HW233837   2.223   9.317   4.974 -0.0895  2.1557  1.7017
 7287SOL     OW33838   6.099   7.344   5.192  0.3172  0.1024 -0.0108
 7287SOL    HW133839   6.134   7.260   5.160  0.1820  0.1147 -0.1930
 7287SOL    HW233840   6.102   7.336   5.287  1.3099  0.3075 -0.0097
 7288SOL     OW33841   2.203   3.990   7.645  0.6405 -0.7872  0.1444
 7288SOL    HW133842   2.269   3.957   7.705 -0.4112 -0.3562  1.5858
 7288SOL    HW233843   2.126   3.935   7.661 -0.4486  0.9126  1.0319
 7289SOL     OW33844   1.112   0.712   3.993 -0.1034 -0.4277  0.1634
 7289SOL    HW133845   1.132   0.620   4.012 -0.0367 -0.6607 -0.9253
 7289SOL    HW233846   1.196   0.757   4.000 -0.0968 -0.4849  0.4778
 7290SOL     OW33847   3.573   6.118   6.721  0.5492 -0.5610  0.3558
 7290SOL    HW133848   3.534   6.172   6.789  0.6070  0.8236 -0.6771
 7290SOL    HW233849   3.639   6.065   6.767  1.7886  1.5489  1.1420
 7291SOL     OW33850   0.220   9.805   9.615  0.6850  0.5978  0.3960
 7291SOL    HW133851   0.137   9.799   9.567  0.6969 -1.9177  0.5430
 7291SOL    HW233852   0.195   9.799   9.707  0.9972  0.2099  0.4588
 7292SOL     OW33853   2.531   8.542   0.511 -0.1896  0.1586  0.4687
 7292SOL    HW133854   2.532   8.607   0.582 -0.0924 -0.5392  1.1142
 7292SOL    HW233855   2.624   8.532   0.487  0.3248 -2.5887  3.0495
 7293SOL     OW33856   4.283   9.101   1.596 -0.0924 -0.2306 -0.0268
 7293SOL    HW133857   4.322   9.159   1.661  0.3910 -0.6005  0.0113
 7293SOL    HW233858   4.333   9.020   1.602 -0.2543 -0.3804 -0.6299
 7294SOL     OW33859   3.724  10.247   4.687  0.1536  0.0081 -0.5822
 7294SOL    HW133860   3.692  10.170   4.641  1.1656 -1.8100  1.5397
 7294SOL    HW233861   3.811  10.262   4.651  0.2196 -0.2778 -0.5451
 7295SOL     OW33862   3.109   1.288  10.218 -0.1809 -0.7729 -0.2703
 7295SOL    HW133863   3.141   1.211  10.266 -0.6148  0.4712  2.1750
 7295SOL    HW233864   3.016   1.269  10.202 -0.1155 -1.0572 -0.3122
 7296SOL     OW33865   5.312   4.504   1.031  0.0737  0.0009 -0.3371
 7296SOL    HW133866   5.379   4.567   1.057  1.1718 -1.1401 -0.3315
 7296SOL    HW233867   5.266   4.483   1.112  0.5622 -0.1752 -0.1002
 7297SOL     OW33868   1.922   5.728   0.431 -0.6049  0.0709 -0.4032
 7297SOL    HW133869   2.011   5.730   0.395 -0.0026  1.8052  1.0560
 7297SOL    HW233870   1.869   5.769   0.362 -0.0715  0.1804 -0.7616
 7298SOL     OW33871   8.065   7.057   6.966  0.1768 -0.2109  0.2116
 7298SOL    HW133872   8.015   7.137   6.955  0.4633 -0.1077 -0.4199
 7298SOL    HW233873   8.003   6.986   6.950  0.2320 -0.0840 -0.6073
 7299SOL     OW33874   3.257   6.152   4.628 -0.3121 -0.1266  0.3110
 7299SOL    HW133875   3.331   6.111   4.673 -0.1173 -1.1134 -0.8499
 7299SOL    HW233876   3.191   6.162   4.696  0.9906  1.0953  1.4508
 7300SOL     OW33877   2.105   4.804   7.857  0.3098 -0.2001  0.1747
 7300SOL    HW133878   2.195   4.804   7.824 -0.0458 -0.8820 -0.8464
 7300SOL    HW233879   2.086   4.711   7.873 -0.7851 -0.2546 -1.2773
 7301SOL     OW33880   5.262  10.302   4.613  0.3388 -0.5715 -0.5301
 7301SOL    HW133881   5.357  10.290   4.610  0.3780 -0.2532 -0.7096
 7301SOL    HW233882   5.226  10.217   4.587  0.5493 -1.0769  0.7822
 7302SOL     OW33883   1.704   7.956   7.694  0.0276 -0.1179 -0.4771
 7302SOL    HW133884   1.612   7.962   7.719 -0.0152  1.3883 -0.8913
 7302SOL    HW233885   1.717   8.026   7.630  1.6714  0.3585  0.2894
 7303SOL     OW33886   9.659   7.566   1.970  0.3469  0.7421  0.1431
 7303SOL    HW133887   9.643   7.587   2.062 -2.8237  2.5576 -0.6553
 7303SOL    HW233888   9.573   7.540   1.937  1.2597  0.7825 -2.4829
 7304SOL     OW33889   4.053   3.272   4.882 -0.2026  0.4858 -0.8154
 7304SOL    HW133890   4.052   3.211   4.956 -0.9805 -0.6427 -1.7173
 7304SOL    HW233891   4.144   3.302   4.877  0.0017  0.0765  0.1884
 7305SOL     OW33892   7.981   1.524   6.225 -0.2073  0.6756  0.0508
 7305SOL    HW133893   7.963   1.477   6.144 -0.3816  0.9869 -0.0932
 7305SOL    HW233894   8.049   1.587   6.202 -0.2714  0.7791  0.1414
 7306SOL     OW33895   0.355   1.559   9.690 -0.0977  0.2163  0.6841
 7306SOL    HW133896   0.395   1.601   9.767  0.7132  0.2141  0.2653
 7306SOL    HW233897   0.295   1.626   9.656 -1.7218 -0.3403  2.2397
 7307SOL     OW33898   0.657   4.165   6.804  0.3433  0.6330  0.2561
 7307SOL    HW133899   0.732   4.216   6.836  0.0676  1.4522 -0.3443
 7307SOL    HW233900   0.692   4.078   6.787  1.1584  0.9994  0.0160
 7308SOL     OW33901   0.741   3.527   7.211 -0.5473 -0.4940 -0.5949
 7308SOL    HW133902   0.665   3.546   7.265 -0.6134  0.3809 -0.9812
 7308SOL    HW233903   0.799   3.601   7.224  0.3784 -1.2849 -0.0914
 7309SOL     OW33904   6.288   8.274   9.181  0.2580  0.1056 -0.4874
 7309SOL    HW133905   6.225   8.213   9.143  0.1627  0.5059 -0.9807
 7309SOL    HW233906   6.317   8.328   9.108  0.9197  0.1536 -0.2024
 7310SOL     OW33907   4.675   5.375   5.727 -0.4429 -0.2209 -0.1646
 7310SOL    HW133908   4.744   5.385   5.661  0.1458  0.9109  0.5801
 7310SOL    HW233909   4.593   5.386   5.678  0.0044  1.2697 -0.6224
 7311SOL     OW33910   2.456   0.910   5.812  0.0032  0.4238 -0.4984
 7311SOL    HW133911   2.400   0.987   5.808 -0.4301  0.0681 -2.8795
 7311SOL    HW233912   2.416   0.848   5.749 -0.0495 -2.0260  1.7636
 7312SOL     OW33913   4.238   8.508   1.544 -0.8181 -0.3593  0.1360
 7312SOL    HW133914   4.165   8.550   1.497  0.4920  1.9166  0.0096
 7312SOL    HW233915   4.309   8.504   1.480  0.4753  1.3154  1.3579
 7313SOL     OW33916  10.116   8.228   2.302 -0.2062  0.1526  0.0495
 7313SOL    HW133917  10.162   8.144   2.304 -1.9017 -0.8429 -0.8136
 7313SOL    HW233918  10.172   8.284   2.249  1.1097 -0.3045  0.8996
 7314SOL     OW33919   2.684   4.945   5.164  0.3847  0.1662  0.1045
 7314SOL    HW133920   2.722   4.860   5.184  1.3339  0.4973 -0.2147
 7314SOL    HW233921   2.653   4.938   5.074 -2.1390 -0.7145  0.9560
 7315SOL     OW33922   0.171   4.537   2.440  0.5210 -0.1602  0.2153
 7315SOL    HW133923   0.103   4.517   2.505 -0.0594  2.0063  0.3633
 7315SOL    HW233924   0.197   4.626   2.461  2.6614 -0.5628 -0.5539
 7316SOL     OW33925   7.419   3.378   3.709  0.4812  0.5895 -0.4911
 7316SOL    HW133926   7.345   3.406   3.762  0.0058 -1.4509  0.0097
 7316SOL    HW233927   7.442   3.291   3.743  2.0267  0.4601 -1.7320
 7317SOL     OW33928   0.157   0.617   1.634  0.8394 -0.0534  0.1266
 7317SOL    HW133929   0.196   0.558   1.568  0.5182  0.2806 -0.3683
 7317SOL    HW233930   0.160   0.567   1.715  2.2437 -0.0633  0.0934
 7318SOL     OW33931   7.468   6.969   0.466  0.0889  0.1087 -0.2788
 7318SOL    HW133932   7.426   6.884   0.449  0.3500 -0.0206 -0.2991
 7318SOL    HW233933   7.397   7.033   0.461 -0.1488 -0.1329 -0.0470
 7319SOL     OW33934   4.056   3.284  10.331 -0.2951 -0.2006 -0.1184
 7319SOL    HW133935   4.128   3.334  10.292 -0.1937  1.0078  1.5051
 7319SOL    HW233936   4.026   3.226  10.261  1.4718  0.1137 -1.1949
 7320SOL     OW33937   2.105   3.308   4.647 -0.0368 -0.5054 -0.1417
 7320SOL    HW133938   2.125   3.326   4.555 -0.1352  1.2564  0.1375
 7320SOL    HW233939   2.184   3.336   4.694 -0.0591 -1.2197  0.3332
 7321SOL     OW33940   2.595   4.578   0.338  0.0073 -0.5013 -0.6178
 7321SOL    HW133941   2.526   4.527   0.381  0.8611 -3.2392 -2.2460
 7321SOL    HW233942   2.650   4.610   0.410 -1.0321 -1.1801  0.5170
 7322SOL     OW33943   4.955   1.917   7.315 -0.2656 -0.4074  0.8065
 7322SOL    HW133944   4.977   1.957   7.400  0.3654 -1.0560  0.9609
 7322SOL    HW233945   4.999   1.832   7.317 -0.8459 -0.7276  0.1154
 7323SOL     OW33946   9.776   5.654   4.613  0.4595 -0.8659  0.3887
 7323SOL    HW133947   9.758   5.688   4.526  1.2427 -1.6830 -0.1154
 7323SOL    HW233948   9.695   5.669   4.662  0.9456  2.2471  0.4096
 7324SOL     OW33949   3.042   0.654   7.442  0.2814 -0.2152 -0.5917
 7324SOL    HW133950   2.971   0.668   7.505  0.6657 -0.3383 -0.1260
 7324SOL    HW233951   3.004   0.679   7.358 -0.5470 -0.9527 -0.4594
 7325SOL     OW33952   0.365   0.233   4.278  0.1823  0.0629 -0.0738
 7325SOL    HW133953   0.457   0.216   4.299  0.2016  1.4744  1.1443
 7325SOL    HW233954   0.368   0.276   4.192  0.8498  1.7929  0.7810
 7326SOL     OW33955   3.710   0.853   5.243  0.4512  0.4660  0.1537
 7326SOL    HW133956   3.671   0.922   5.189 -0.3507 -0.9906 -1.1902
 7326SOL    HW233957   3.778   0.898   5.293  1.6759  1.7795 -2.5342
 7327SOL     OW33958   6.949   5.140   8.936  0.3353  0.0187 -0.8200
 7327SOL    HW133959   7.038   5.129   8.970 -0.4397 -0.9180  1.0810
 7327SOL    HW233960   6.918   5.051   8.922 -0.9961  0.2252  0.5688
 7328SOL     OW33961   4.030   8.068   4.172  0.0264  0.2399 -0.0110
 7328SOL    HW133962   4.099   8.019   4.128 -0.9579  0.8536 -2.3544
 7328SOL    HW233963   3.971   8.097   4.102 -0.1171  3.7178  1.3124
 7329SOL     OW33964   8.553   2.676   5.203  0.4427 -0.2050  0.4622
 7329SOL    HW133965   8.538   2.664   5.297 -0.7469  1.9660  0.6105
 7329SOL    HW233966   8.497   2.750   5.179 -0.1010 -1.3710 -2.2119
 7330SOL     OW33967   6.836   6.152   2.981 -0.2919  0.1898 -0.0522
 7330SOL    HW133968   6.831   6.246   2.963  1.3468  0.7468  1.9289
 7330SOL    HW233969   6.787   6.141   3.063  0.5931 -0.4377  0.4105
 7331SOL     OW33970   1.428   7.094   6.463 -0.0968 -0.1517  0.2544
 7331SOL    HW133971   1.383   7.149   6.527 -2.1900 -0.6415 -0.7090
 7331SOL    HW233972   1.473   7.028   6.516  0.0973  0.7843  1.2894
 7332SOL     OW33973   6.270   6.690   7.837 -0.9144 -0.2538 -0.0975
 7332SOL    HW133974   6.232   6.689   7.749  0.0961 -0.9358 -0.5461
 7332SOL    HW233975   6.285   6.783   7.856 -1.3443 -0.0879 -0.5382
 7333SOL     OW33976   6.387   7.328   6.871  0.4516 -0.3824 -0.7629
 7333SOL    HW133977   6.428   7.412   6.851  2.4556 -1.4140 -1.3740
 7333SOL    HW233978   6.323   7.315   6.801 -0.3924  0.9144 -0.2652
 7334SOL     OW33979   2.977   8.416   4.251 -0.2345  0.8101  0.3013
 7334SOL    HW133980   2.935   8.472   4.185  2.0365 -0.8042 -2.7795
 7334SOL    HW233981   2.918   8.341   4.258  0.3272  0.1536 -1.3798
 7335SOL     OW33982   5.334   2.851   9.717 -0.5081  0.2791 -0.2392
 7335SOL    HW133983   5.342   2.850   9.622  0.7320 -0.3374 -0.1546
 7335SOL    HW233984   5.344   2.760   9.743  2.5201  0.7630  0.6635
 7336SOL     OW33985   3.881   1.774   2.125 -0.1701 -0.3849  0.4932
 7336SOL    HW133986   3.809   1.774   2.188 -0.2047 -0.1163  0.4531
 7336SOL    HW233987   3.919   1.862   2.131  0.5108 -0.6971  0.9195
 7337SOL     OW33988   0.641   9.334   8.185 -0.1524  0.0191 -0.0810
 7337SOL    HW133989   0.557   9.367   8.218 -0.4960 -1.2051  0.3304
 7337SOL    HW233990   0.705   9.397   8.216 -0.6656 -0.2236  1.5892
 7338SOL     OW33991   9.164   7.683   0.699  0.5964 -0.1378  0.7459
 7338SOL    HW133992   9.248   7.695   0.654  0.4492  0.0876  0.5293
 7338SOL    HW233993   9.180   7.715   0.788  0.9537 -0.7949  0.9285
 7339SOL     OW33994   7.528  10.203   0.164 -0.1458  0.4050  0.4811
 7339SOL    HW133995   7.539  10.159   0.248 -0.8245 -0.4342  0.1515
 7339SOL    HW233996   7.595  10.163   0.108 -0.1005  0.5259  0.4483
 7340SOL     OW33997   6.218   7.714   2.340  0.3439  0.1212 -0.5709
 7340SOL    HW133998   6.207   7.621   2.320 -3.2148 -0.0405  1.3075
 7340SOL    HW233999   6.150   7.757   2.289  0.8211  1.4973 -0.0788
 7341SOL     OW34000   2.813   9.430   6.806  0.5883  0.2513 -0.4815
 7341SOL    HW134001   2.846   9.341   6.791 -0.5512 -0.6378  1.7080
 7341SOL    HW234002   2.891   9.484   6.812  1.5479 -1.1751  1.1056
 7342SOL     OW34003   1.598   6.053   8.730  0.0979  0.7332  0.2195
 7342SOL    HW134004   1.557   5.968   8.743  0.2383  0.7550  0.8460
 7342SOL    HW234005   1.622   6.082   8.818  0.0832  1.4038  0.0139
 7343SOL     OW34006   7.589   5.800   3.322 -0.4009 -0.0164  0.2356
 7343SOL    HW134007   7.559   5.859   3.253 -1.9081 -0.3221  0.5944
 7343SOL    HW234008   7.509   5.769   3.364  0.2267 -3.2706 -0.6960
 7344SOL     OW34009   2.526   7.515   0.057 -0.2527 -0.2118  0.1871
 7344SOL    HW134010   2.559   7.548   0.140  1.1524 -1.3628  0.1161
 7344SOL    HW234011   2.585   7.443   0.034 -0.1812  0.4983 -2.1378
 7345SOL     OW34012   0.397   8.297   3.951  0.1580  0.1221 -0.2031
 7345SOL    HW134013   0.412   8.253   4.034 -0.0036 -0.9673 -0.7416
 7345SOL    HW234014   0.340   8.371   3.974 -1.3500 -1.1780  0.4040
 7346SOL     OW34015   8.343   1.125   8.733  0.1699  0.0914 -0.2486
 7346SOL    HW134016   8.315   1.205   8.778 -0.8273  0.4683 -1.4881
 7346SOL    HW234017   8.291   1.056   8.774  1.3374 -0.0431  1.1217
 7347SOL     OW34018   0.558   7.190   3.742 -1.0070 -0.7360  0.3290
 7347SOL    HW134019   0.564   7.251   3.668  0.2322 -0.2030  0.8519
 7347SOL    HW234020   0.625   7.219   3.803 -1.2322 -1.8812  1.1567
 7348SOL     OW34021   8.611   6.908   2.350 -0.3029  0.2809  0.1671
 7348SOL    HW134022   8.651   6.906   2.437  0.2075 -0.0889 -0.0713
 7348SOL    HW234023   8.661   6.975   2.303  1.7973 -1.9293 -0.9422
 7349SOL     OW34024   1.510   5.612   5.216 -0.4427 -0.1609 -0.2423
 7349SOL    HW134025   1.449   5.678   5.249  0.6969  0.8292 -0.0545
 7349SOL    HW234026   1.564   5.658   5.153  0.0998 -1.0284 -0.4316
 7350SOL     OW34027   0.233   9.320   2.124  0.2310  0.0686 -0.7581
 7350SOL    HW134028   0.250   9.414   2.126  1.9784 -0.2219  0.3474
 7350SOL    HW234029   0.314   9.280   2.156 -0.9032 -1.7591 -0.0048
 7351SOL     OW34030   1.112   3.560   3.078  0.0617 -0.2486 -0.2758
 7351SOL    HW134031   1.041   3.607   3.034  0.3113 -1.1066 -1.6609
 7351SOL    HW234032   1.187   3.620   3.074 -0.1061 -0.0475 -0.4026
 7352SOL     OW34033   5.158   0.562  10.162 -0.2993  0.2155 -0.0401
 7352SOL    HW134034   5.247   0.561  10.198  0.5091  0.4919 -1.9500
 7352SOL    HW234035   5.137   0.655  10.156 -1.3123  0.1472  1.6842
 7353SOL     OW34036   1.790   4.965   5.752 -0.6854  0.5688  0.5545
 7353SOL    HW134037   1.699   4.994   5.756 -0.7831  0.1738  1.3917
 7353SOL    HW234038   1.787   4.872   5.775 -0.1451  0.3947 -0.0490
 7354SOL     OW34039   2.547   7.958   7.729 -0.5123  0.4049  0.0477
 7354SOL    HW134040   2.630   8.000   7.752 -0.9126  1.9181 -1.1702
 7354SOL    HW234041   2.557   7.931   7.638 -1.0952 -0.0943  0.1205
 7355SOL     OW34042   9.210   9.763   8.886  0.0173 -0.0221 -0.0661
 7355SOL    HW134043   9.239   9.850   8.858 -0.6760  0.9885  2.0900
 7355SOL    HW234044   9.164   9.727   8.810 -0.0389  1.6825 -0.8870
 7356SOL     OW34045   2.892   9.862   4.686 -0.7188  0.0058 -0.3377
 7356SOL    HW134046   2.907   9.890   4.595 -0.1686  2.2687  0.3916
 7356SOL    HW234047   2.806   9.898   4.707 -0.3131  0.5297  0.4223
 7357SOL     OW34048   2.126   7.533   4.584 -0.0329 -1.0011 -1.0453
 7357SOL    HW134049   2.043   7.578   4.594 -0.1230 -1.5586  1.2137
 7357SOL    HW234050   2.141   7.530   4.490 -1.6171  0.7869 -1.4020
 7358SOL     OW34051   1.390   1.645  10.139 -0.2506  0.0666  0.1735
 7358SOL    HW134052   1.458   1.676  10.079 -1.0887 -0.3305 -1.0182
 7358SOL    HW234053   1.311   1.692  10.111 -0.8711 -0.8732  0.3019
 7359SOL     OW34054   1.283   0.604   5.450  0.5631 -0.9040 -0.2583
 7359SOL    HW134055   1.280   0.510   5.433  0.3185 -0.6182 -2.0264
 7359SOL    HW234056   1.191   0.629   5.464  0.6993 -1.0267  0.9611
 7360SOL     OW34057   9.127   6.681   6.690 -0.3515 -0.3276 -0.6387
 7360SOL    HW134058   9.140   6.586   6.688 -0.1411 -0.3411  0.4709
 7360SOL    HW234059   9.213   6.718   6.672  0.0018 -0.3759  0.8398
 7361SOL     OW34060  10.078   5.032   3.854 -0.3490  0.4195 -0.3043
 7361SOL    HW134061  10.114   5.039   3.942 -0.8659 -1.2092  0.0611
 7361SOL    HW234062  10.062   5.123   3.828  1.3827  1.0278  0.5936
 7362SOL     OW34063   1.343   1.176   2.974  0.4225  0.0846  0.1137
 7362SOL    HW134064   1.251   1.203   2.983 -0.1464 -0.3599 -3.2252
 7362SOL    HW234065   1.392   1.258   2.975 -0.2167  0.4751  0.0075
 7363SOL     OW34066  10.272   9.513   1.915  0.4214 -0.4266  0.5530
 7363SOL    HW134067  10.343   9.471   1.867 -0.2399 -1.1018  0.1442
 7363SOL    HW234068  10.315   9.574   1.974  1.2704  1.7993 -2.1350
 7364SOL     OW34069   1.502   3.170   3.052 -0.8055 -0.3630 -0.0472
 7364SOL    HW134070   1.579   3.135   3.008 -1.0981 -1.0364 -0.0366
 7364SOL    HW234071   1.496   3.261   3.022 -0.9294 -0.7733 -1.3196
 7365SOL     OW34072   1.917   5.458   2.565 -0.1522 -0.1132  0.1634
 7365SOL    HW134073   1.846   5.475   2.503  0.0375  0.2311  0.0408
 7365SOL    HW234074   1.949   5.544   2.589  0.6800 -0.2864 -0.3103
 7366SOL     OW34075   4.413   3.544   3.913 -0.2434  0.1330  0.0723
 7366SOL    HW134076   4.342   3.562   3.852 -0.4921 -1.6494 -0.2227
 7366SOL    HW234077   4.492   3.551   3.860 -0.3063  0.4992  0.0197
 7367SOL     OW34078  10.155   2.593   5.885  0.1729 -0.3515  0.3311
 7367SOL    HW134079  10.120   2.654   5.819  1.1173 -1.6860 -1.5038
 7367SOL    HW234080  10.169   2.647   5.962 -3.7230  0.7527  0.5163
 7368SOL     OW34081   9.191   7.652   6.458  0.1084 -0.2005 -0.0220
 7368SOL    HW134082   9.237   7.596   6.520 -0.4116 -1.4601 -0.7300
 7368SOL    HW234083   9.138   7.591   6.406 -0.2589  0.9225 -1.0057
 7369SOL     OW34084   6.896   1.618   9.441  1.0690  0.3925  0.6145
 7369SOL    HW134085   6.955   1.684   9.404  0.3221 -0.6038 -2.7125
 7369SOL    HW234086   6.951   1.540   9.449  0.4068 -0.5428 -2.5078
 7370SOL     OW34087   3.150   9.015   4.345 -0.8580  0.3063 -0.0492
 7370SOL    HW134088   3.131   8.933   4.391  0.0664  0.4593  0.6119
 7370SOL    HW234089   3.063   9.050   4.322 -1.2559 -1.5922 -1.6931
 7371SOL     OW34090   5.400   4.364   3.660  0.1829  0.1399  0.0012
 7371SOL    HW134091   5.458   4.381   3.735 -0.7021 -0.2641  0.7896
 7371SOL    HW234092   5.414   4.440   3.602  2.6929 -0.6919 -0.6206
 7372SOL     OW34093  10.134   4.331   1.304  0.1558 -0.0642  0.1997
 7372SOL    HW134094  10.229   4.318   1.297  0.2017  0.0235  0.6192
 7372SOL    HW234095  10.101   4.247   1.335  0.1683  0.0759  0.6047
 7373SOL     OW34096   1.711   6.234   1.667  0.4218 -0.1420 -0.6106
 7373SOL    HW134097   1.743   6.205   1.581  0.8411  1.7963 -1.1469
 7373SOL    HW234098   1.616   6.231   1.658  0.3799 -2.7616 -0.1081
 7374SOL     OW34099  10.114   1.577   5.757 -0.0856 -0.4118  0.3482
 7374SOL    HW134100  10.193   1.573   5.810 -1.3796 -0.4026  2.4083
 7374SOL    HW234101  10.145   1.577   5.666  2.2216 -0.8776  1.0764
 7375SOL     OW34102   1.541   3.204   8.217 -0.0331  0.0234 -0.5471
 7375SOL    HW134103   1.520   3.284   8.170  1.1113 -0.4211 -1.8978
 7375SOL    HW234104   1.594   3.153   8.156 -0.0798 -1.4315  0.5556
 7376SOL     OW34105   0.342   9.679   1.350 -0.0482  0.4641  0.5987
 7376SOL    HW134106   0.433   9.703   1.334  0.0208  1.8365  2.6104
 7376SOL    HW234107   0.344   9.633   1.434 -0.8306 -2.6522 -0.9508
 7377SOL     OW34108   8.090   8.569   5.841 -0.5851 -0.0940  0.4307
 7377SOL    HW134109   8.014   8.524   5.805 -1.1703  0.8170  0.5063
 7377SOL    HW234110   8.091   8.654   5.797  2.5533 -1.3559 -2.4476
 7378SOL     OW34111   3.840   5.676   5.686 -0.0672  0.5422  0.0482
 7378SOL    HW134112   3.914   5.734   5.668 -0.2683  0.6762 -0.3650
 7378SOL    HW234113   3.827   5.681   5.780 -0.9876  2.2658 -0.1482
 7379SOL     OW34114   8.722   0.534   6.759 -0.1371  0.6175 -0.1423
 7379SOL    HW134115   8.788   0.473   6.794 -0.1651  0.6462 -0.0387
 7379SOL    HW234116   8.709   0.598   6.829 -0.8565  0.1580  0.1491
 7380SOL     OW34117   2.938   6.704   4.723 -0.1716 -0.1782 -0.1289
 7380SOL    HW134118   2.942   6.791   4.763  0.1196  0.5920 -1.7788
 7380SOL    HW234119   3.000   6.707   4.651  1.2818 -2.3866  0.8976
 7381SOL     OW34120   0.715  10.032   9.466 -0.5831  0.6401  0.2696
 7381SOL    HW134121   0.626  10.004   9.488 -1.0127  2.1333  0.5618
 7381SOL    HW234122   0.735  10.099   9.531  1.2220 -0.4424  0.9268
 7382SOL     OW34123   4.557   3.305   7.933  0.2266 -0.0498 -0.3675
 7382SOL    HW134124   4.602   3.222   7.919  0.1794 -0.0945 -0.2588
 7382SOL    HW234125   4.581   3.359   7.858 -1.4476 -0.8916 -1.5633
 7383SOL     OW34126   0.081   6.639   5.973  0.4060 -0.0279  0.5698
 7383SOL    HW134127   0.004   6.689   6.000 -0.0649  0.0108 -0.8175
 7383SOL    HW234128   0.077   6.559   6.026 -0.5493 -0.0026  0.5515
 7384SOL     OW34129   6.809   6.933   1.045  0.1392  0.0624 -0.6705
 7384SOL    HW134130   6.888   6.907   0.998 -0.4421  1.4555 -2.5721
 7384SOL    HW234131   6.737   6.912   0.986 -0.9476 -1.0136  0.9442
 7385SOL     OW34132   4.029   5.849   4.771  0.0794  0.0326 -0.5488
 7385SOL    HW134133   4.029   5.891   4.857 -1.0610  0.2825 -0.6581
 7385SOL    HW234134   4.051   5.758   4.789  1.8289  0.4729 -0.2275
 7386SOL     OW34135  10.087   4.360   7.689 -0.2753 -0.2855 -0.2173
 7386SOL    HW134136  10.182   4.364   7.701 -0.2282 -1.5828 -0.0879
 7386SOL    HW234137  10.052   4.417   7.757  0.4193  0.5277 -0.5198
 7387SOL     OW34138   0.911   0.954   4.796 -0.2736 -0.3025  0.2431
 7387SOL    HW134139   1.004   0.936   4.805  0.1161 -0.2417 -2.8569
 7387SOL    HW234140   0.888   0.923   4.709 -2.8147  1.1267  0.2952
 7388SOL     OW34141   8.323   8.981   8.369  0.2098  0.3097 -0.1398
 7388SOL    HW134142   8.326   9.077   8.363  2.0909  0.3954  1.3395
 7388SOL    HW234143   8.247   8.963   8.425  0.7281  1.0385  0.8358
 7389SOL     OW34144   6.542   2.389   9.238  0.3725 -0.6951 -0.0004
 7389SOL    HW134145   6.635   2.369   9.253  0.4140 -0.3679  0.1939
 7389SOL    HW234146   6.510   2.420   9.323  0.5569  0.9534 -0.4940
 7390SOL     OW34147   0.775   4.968   2.552 -0.4325  0.2657 -0.0315
 7390SOL    HW134148   0.803   5.059   2.541  0.4727 -0.2364 -3.0385
 7390SOL    HW234149   0.821   4.937   2.630 -0.3101  2.2016  0.6991
 7391SOL     OW34150   3.838   3.279   6.107  0.0085  0.2015 -0.7546
 7391SOL    HW134151   3.813   3.364   6.144  0.6527 -0.8221  2.3612
 7391SOL    HW234152   3.933   3.275   6.118  0.0630 -0.6955 -1.4241
 7392SOL     OW34153   9.520   3.767   9.047 -0.3906  0.0576  0.1596
 7392SOL    HW134154   9.572   3.844   9.025 -0.8749 -0.4798 -3.4445
 7392SOL    HW234155   9.435   3.803   9.072  0.1877  0.7445  1.2203
 7393SOL     OW34156   7.328   5.170   1.293  0.0515  0.3184 -0.0686
 7393SOL    HW134157   7.313   5.096   1.234  3.0144  0.3584 -1.0127
 7393SOL    HW234158   7.324   5.132   1.380 -0.5393 -0.5256 -0.4498
 7394SOL     OW34159   8.601   2.971   8.361 -0.5064  0.6153 -0.9111
 7394SOL    HW134160   8.510   2.949   8.384 -0.0508  0.0385  0.4530
 7394SOL    HW234161   8.604   2.964   8.266 -1.4324 -1.2201 -0.8439
 7395SOL     OW34162   4.426   8.221   3.090  0.9089 -0.6144  0.1496
 7395SOL    HW134163   4.443   8.245   2.999 -0.3335  0.2509  0.1083
 7395SOL    HW234164   4.353   8.159   3.084 -0.4087  0.8232  0.6108
 7396SOL     OW34165   9.799   7.213   9.543  0.2002 -0.1601  0.0294
 7396SOL    HW134166   9.837   7.301   9.540  0.1118 -0.1385 -0.7230
 7396SOL    HW234167   9.705   7.227   9.528 -0.1591 -0.2008  2.0167
 7397SOL     OW34168   5.119   9.869   3.174 -0.3534  0.0552 -0.3080
 7397SOL    HW134169   5.097   9.799   3.235  0.0052 -1.3696 -1.7323
 7397SOL    HW234170   5.178   9.927   3.222  1.4598 -2.0523  0.1212
 7398SOL     OW34171   4.505   9.014   4.123  0.0981 -0.5139  0.3957
 7398SOL    HW134172   4.528   9.033   4.033 -2.6245 -1.4077 -0.5985
 7398SOL    HW234173   4.565   8.945   4.149  1.1658  0.0189 -0.5895
 7399SOL     OW34174   0.637   4.231   9.202  0.0279  0.1488 -0.1402
 7399SOL    HW134175   0.562   4.193   9.247 -0.6996  0.1416 -1.3392
 7399SOL    HW234176   0.636   4.193   9.115  0.8297  0.9134 -0.5073
 7400SOL     OW34177   0.550   5.492   7.742 -0.7607  0.5438  0.2714
 7400SOL    HW134178   0.624   5.432   7.752  0.1233  1.5275 -0.1942
 7400SOL    HW234179   0.474   5.435   7.731  0.1104 -0.4907 -0.5964
 7401SOL     OW34180   1.979   5.707   2.606 -0.0595 -0.5775 -0.3714
 7401SOL    HW134181   1.917   5.780   2.598 -0.1616 -0.1221  3.1105
 7401SOL    HW234182   2.052   5.732   2.549 -0.5653  1.7513 -0.1217
 7402SOL     OW34183  10.365   5.002   6.953  0.0341 -0.3625 -0.3991
 7402SOL    HW134184  10.327   5.043   6.875 -1.1525 -1.2235 -0.3035
 7402SOL    HW234185  10.413   5.072   6.997 -0.0195  0.3420 -1.4390
 7403SOL     OW34186   8.731   7.708   8.679 -0.0188 -0.7227  0.1471
 7403SOL    HW134187   8.702   7.726   8.768 -0.7793  0.2070 -0.2673
 7403SOL    HW234188   8.823   7.683   8.688  1.0234  2.7974  0.8939
 7404SOL     OW34189   1.245   4.921   9.539 -0.4200 -0.1311  0.2936
 7404SOL    HW134190   1.203   4.991   9.588  1.4145  0.0703  1.6916
 7404SOL    HW234191   1.263   4.958   9.452  0.6946  1.2325  1.0748
 7405SOL     OW34192   7.826   4.200  10.311 -0.1592 -0.5863  0.1730
 7405SOL    HW134193   7.734   4.201  10.284 -0.0604  1.6651 -0.2281
 7405SOL    HW234194   7.841   4.285  10.352  1.9132 -0.6491 -0.3199
 7406SOL     OW34195   3.259   9.663   3.956  0.1575 -0.1065 -0.1270
 7406SOL    HW134196   3.297   9.717   4.025 -0.8180 -0.7599  0.9522
 7406SOL    HW234197   3.280   9.710   3.875  1.3235  0.6716  0.5965
 7407SOL     OW34198   5.878   1.894   1.066  0.2533 -0.0223  0.4707
 7407SOL    HW134199   5.931   1.950   1.123  1.9687  0.3602 -1.3922
 7407SOL    HW234200   5.937   1.823   1.042 -0.3624 -0.0819 -0.9342
 7408SOL     OW34201  10.192   5.841   4.675 -0.2323 -0.4390  0.9317
 7408SOL    HW134202  10.191   5.797   4.590 -0.7112 -0.5303  0.9779
 7408SOL    HW234203  10.099   5.850   4.698 -0.3315  2.6221 -0.1168
 7409SOL     OW34204   3.977   1.642   2.436  0.5588 -0.2428  0.1493
 7409SOL    HW134205   3.950   1.633   2.528  0.1942 -0.7076 -0.0024
 7409SOL    HW234206   3.921   1.712   2.402 -0.8677 -1.5538 -0.3071
 7410SOL     OW34207   3.185   7.184   4.464 -0.3055 -0.1269  0.0520
 7410SOL    HW134208   3.127   7.122   4.509  0.4195 -0.4810  0.5227
 7410SOL    HW234209   3.247   7.212   4.532 -0.7375  1.2744 -0.1023
 7411SOL     OW34210   4.744   7.117   4.570  0.2236 -0.1329 -0.2201
 7411SOL    HW134211   4.820   7.118   4.628 -0.0555  3.4961  0.2824
 7411SOL    HW234212   4.670   7.096   4.628  0.1418  2.0637  0.5560
 7412SOL     OW34213   5.171   7.636   7.553  0.0803  0.2846  0.0512
 7412SOL    HW134214   5.175   7.542   7.568  0.2732  0.1841 -0.5836
 7412SOL    HW234215   5.109   7.669   7.618 -1.9597 -0.6379 -1.3253
 7413SOL     OW34216   3.883   1.433   4.848  0.1243 -0.0842  0.0596
 7413SOL    HW134217   3.866   1.433   4.753  2.2228  0.9938 -0.3779
 7413SOL    HW234218   3.804   1.395   4.886 -1.7317  1.4821 -1.9462
 7414SOL     OW34219   1.191   1.571   7.214 -0.4500  0.2416  0.1101
 7414SOL    HW134220   1.157   1.657   7.239 -0.5923 -0.0313  0.9000
 7414SOL    HW234221   1.115   1.524   7.180 -0.1708  0.7584 -1.2649
 7415SOL     OW34222   2.591   9.100   7.827 -0.1100  0.6829  0.0733
 7415SOL    HW134223   2.574   9.014   7.789  1.8117 -0.0996  0.8588
 7415SOL    HW234224   2.675   9.091   7.871  0.2775  3.0578 -0.0297
 7416SOL     OW34225   5.512   2.367   4.761  0.1801 -0.3189  0.5541
 7416SOL    HW134226   5.579   2.375   4.829  1.1789  1.6918 -0.5415
 7416SOL    HW234227   5.451   2.439   4.779 -0.3355 -0.6547  0.1563
 7417SOL     OW34228   3.125   1.929   7.856  0.7469  0.6343 -0.2485
 7417SOL    HW134229   3.165   1.843   7.866  0.5227  0.6536  0.9814
 7417SOL    HW234230   3.100   1.954   7.945 -2.1200  0.5652 -0.9463
 7418SOL     OW34231   0.431   2.898   5.898 -0.0009  0.5587  0.0905
 7418SOL    HW134232   0.370   2.826   5.915 -0.2059  0.6589 -0.2147
 7418SOL    HW234233   0.516   2.856   5.891 -0.2170  0.2448 -0.8094
 7419SOL     OW34234   4.127   9.252   7.258  0.3957 -0.1702 -0.3554
 7419SOL    HW134235   4.140   9.164   7.222  0.4725 -0.8675  1.3003
 7419SOL    HW234236   4.032   9.261   7.267  0.4189 -0.3324  0.0594
 7420SOL     OW34237   3.149   3.095   5.331  0.3703 -0.3693 -0.1418
 7420SOL    HW134238   3.130   3.171   5.386 -0.4916  0.4523 -1.5182
 7420SOL    HW234239   3.090   3.103   5.257  1.7763 -1.1918 -1.4222
 7421SOL     OW34240   9.436   2.558   0.713  0.0720 -0.1176 -0.0452
 7421SOL    HW134241   9.446   2.520   0.801  1.0414 -1.4063 -0.6706
 7421SOL    HW234242   9.342   2.571   0.703  0.0656  2.3035  2.0539
 7422SOL     OW34243   1.332   0.769   9.047 -0.0860 -0.0275  0.0730
 7422SOL    HW134244   1.282   0.833   8.996 -0.4701 -0.0110  0.4551
 7422SOL    HW234245   1.413   0.814   9.070  0.1059 -0.0528 -0.5549
 7423SOL     OW34246   8.715   8.912   5.228  0.0152  0.2035  0.5137
 7423SOL    HW134247   8.790   8.887   5.174 -0.2977 -0.4838  0.3918
 7423SOL    HW234248   8.722   8.858   5.306  1.3021  2.2282  1.9031
 7424SOL     OW34249   0.724   0.944  10.130 -0.4391  0.5650  0.2272
 7424SOL    HW134250   0.791   0.952  10.062 -0.9032 -0.2457 -0.3532
 7424SOL    HW234251   0.754   1.002  10.200  0.6609  0.5238 -0.1780
 7425SOL     OW34252   1.707   0.466   0.960  0.2534  0.4579 -0.1109
 7425SOL    HW134253   1.705   0.376   0.995  2.7247 -0.1479 -1.3358
 7425SOL    HW234254   1.679   0.457   0.869  2.5224  0.5110 -0.8785
 7426SOL     OW34255  10.037   0.018   1.987 -0.4132  0.4549  0.1851
 7426SOL    HW134256   9.956  -0.033   1.988 -1.6543  2.3080  0.1601
 7426SOL    HW234257  10.026   0.082   2.057  0.4306  1.5908 -0.6688
 7427SOL     OW34258   8.278   6.888   9.985  0.1155  0.0144 -0.2168
 7427SOL    HW134259   8.304   6.858   9.898  0.6394  1.8109 -0.7333
 7427SOL    HW234260   8.297   6.982   9.984 -1.3290  0.3632  1.3119
 7428SOL     OW34261   2.430   0.223   5.769  0.1945  0.2273 -0.1473
 7428SOL    HW134262   2.375   0.285   5.722  0.5720  0.4341 -0.3202
 7428SOL    HW234263   2.476   0.174   5.701 -0.5517 -0.6677 -0.0271
 7429SOL     OW34264   8.176   1.446   2.957 -0.5242 -0.0047  0.0988
 7429SOL    HW134265   8.192   1.438   2.863  0.1894 -0.6622  0.2664
 7429SOL    HW234266   8.163   1.356   2.987 -1.9745  0.2956  0.4331
 7430SOL     OW34267   2.770   1.438   4.645  0.3237 -0.0405  0.0541
 7430SOL    HW134268   2.701   1.404   4.702  1.3875 -0.5042  1.0838
 7430SOL    HW234269   2.742   1.414   4.557 -0.3716 -1.0534  0.5336
 7431SOL     OW34270   1.786   2.802  10.288  0.3423  0.1178 -0.7571
 7431SOL    HW134271   1.718   2.759  10.236 -0.0915 -0.0752 -0.0415
 7431SOL    HW234272   1.839   2.731  10.324  0.9190  0.2648 -1.2875
 7432SOL     OW34273   1.635   5.859   5.147 -0.4041 -0.0966 -0.9445
 7432SOL    HW134274   1.624   5.918   5.221  1.2100 -0.4189 -0.4057
 7432SOL    HW234275   1.616   5.913   5.070  0.2751  0.9329 -0.4210
 7433SOL     OW34276   7.649   5.309   4.931  0.0629  0.2245  0.2410
 7433SOL    HW134277   7.594   5.364   4.875  1.6169  1.1228 -0.4674
 7433SOL    HW234278   7.646   5.351   5.016  0.3850  0.8067 -0.0290
 7434SOL     OW34279   3.973   1.308   3.899  0.1888 -0.1525  0.1231
 7434SOL    HW134280   4.024   1.232   3.929  0.6459  0.7345  1.7376
 7434SOL    HW234281   4.036   1.362   3.852 -0.2139 -0.8908 -1.3237
 7435SOL     OW34282   6.487   5.790   9.353 -0.2064  0.0229  0.2171
 7435SOL    HW134283   6.555   5.857   9.357 -0.7910  0.8767 -2.3336
 7435SOL    HW234284   6.448   5.790   9.440  1.8126  0.8197  1.1782
 7436SOL     OW34285   5.967   9.120   4.850 -0.6860 -0.0945  0.3816
 7436SOL    HW134286   6.060   9.130   4.868 -0.5559 -1.5904  0.6504
 7436SOL    HW234287   5.962   9.109   4.755 -0.6262  0.2639  0.3348
 7437SOL     OW34288   0.906   4.506   4.180 -0.4816 -0.3184 -0.0753
 7437SOL    HW134289   0.996   4.524   4.205 -0.4524  3.0932 -2.0852
 7437SOL    HW234290   0.912   4.433   4.119  0.9024 -0.1636 -0.1445
 7438SOL     OW34291   4.770   6.167   8.737 -0.1760 -1.0015 -0.5910
 7438SOL    HW134292   4.821   6.217   8.674 -1.3608  1.5575  0.3262
 7438SOL    HW234293   4.682   6.165   8.701 -0.6722 -0.2632  0.5292
 7439SOL     OW34294   9.551   2.689   1.511  0.1458  0.2071  0.6043
 7439SOL    HW134295   9.643   2.710   1.526 -0.4594  3.6127  0.4686
 7439SOL    HW234296   9.541   2.695   1.416 -0.2659  0.3036  0.6505
 7440SOL     OW34297   0.274   4.057   1.966  0.0137  0.2524  0.6001
 7440SOL    HW134298   0.248   4.148   1.975 -0.3206  0.4327 -1.6285
 7440SOL    HW234299   0.350   4.047   2.023  0.0141  1.9016  0.9167
 7441SOL     OW34300   9.128   9.097   3.446 -0.2309  0.2601 -0.0657
 7441SOL    HW134301   9.210   9.122   3.404 -0.3333  1.0651  0.1789
 7441SOL    HW234302   9.151   9.090   3.539  0.0122 -1.5800 -0.2325
 7442SOL     OW34303   2.313   0.796   1.801  0.3291 -0.3264 -0.1740
 7442SOL    HW134304   2.260   0.842   1.865  3.0143  0.7265  1.4760
 7442SOL    HW234305   2.318   0.856   1.726 -2.0538 -1.1636 -1.0838
 7443SOL     OW34306   0.357   0.591   2.794  0.2271 -0.5438 -0.8592
 7443SOL    HW134307   0.300   0.524   2.831 -0.0947  0.5328  0.6741
 7443SOL    HW234308   0.445   0.563   2.817  0.2027 -1.1210 -1.4170
 7444SOL     OW34309   0.313   0.952   4.411  0.1697 -0.6631 -0.4073
 7444SOL    HW134310   0.266   0.953   4.328 -0.4140  2.7706 -0.1981
 7444SOL    HW234311   0.391   0.898   4.395 -1.4447 -2.6152 -2.1727
 7445SOL     OW34312   9.432  10.371   1.440  0.4647 -0.2753  0.0929
 7445SOL    HW134313   9.380  10.416   1.373 -0.4681 -0.9502  0.3552
 7445SOL    HW234314   9.469  10.442   1.493 -0.2846  0.2137 -0.0274
 7446SOL     OW34315   3.069   7.872   3.347  0.0873 -0.3866 -0.3177
 7446SOL    HW134316   3.070   7.888   3.253 -1.2690  1.2239 -0.1173
 7446SOL    HW234317   3.137   7.807   3.361  2.1126  1.1698 -2.0922
 7447SOL     OW34318   5.994   9.271   3.970 -1.0387 -0.6221 -0.1719
 7447SOL    HW134319   6.077   9.253   4.014 -1.4355  0.4958  1.0945
 7447SOL    HW234320   5.928   9.234   4.029 -1.5616  0.5613 -0.0005
 7448SOL     OW34321   7.761   0.833   5.601 -0.3216  0.0340  0.1618
 7448SOL    HW134322   7.830   0.886   5.561  0.0646 -0.2967  0.3788
 7448SOL    HW234323   7.713   0.894   5.657  0.2486  0.1105  0.5685
 7449SOL     OW34324   7.332   8.014   5.270 -0.1298 -0.0537 -0.1465
 7449SOL    HW134325   7.247   8.036   5.231 -0.1660  1.7881  0.8764
 7449SOL    HW234326   7.391   8.008   5.195 -0.6767  1.1078 -0.7092
 7450SOL     OW34327   1.026   3.309   5.565 -0.3259  0.1349 -0.4562
 7450SOL    HW134328   0.942   3.342   5.597 -0.4957 -0.2272 -0.5289
 7450SOL    HW234329   1.089   3.377   5.590 -0.7677  0.8294 -1.1707
 7451SOL     OW34330   4.568   9.826   3.657  0.2469  0.3297 -0.1051
 7451SOL    HW134331   4.564   9.749   3.600 -0.1941  0.0259  0.3240
 7451SOL    HW234332   4.532   9.898   3.604  0.1213  0.1125 -0.3142
 7452SOL     OW34333   0.201   6.761   5.382 -0.7442  0.4405 -0.6386
 7452SOL    HW134334   0.295   6.743   5.381 -0.6204  0.9200  0.6782
 7452SOL    HW234335   0.161   6.681   5.417 -0.9949 -0.2872 -2.4454
 7453SOL     OW34336   8.816   4.259   9.078  0.3370  0.1838 -0.5065
 7453SOL    HW134337   8.901   4.294   9.053 -0.5354  2.1825 -0.8281
 7453SOL    HW234338   8.763   4.267   8.999 -0.7806  1.0846  0.3106
 7454SOL     OW34339   8.330   3.420   8.701 -0.0133 -0.5388  0.0219
 7454SOL    HW134340   8.275   3.376   8.766 -0.0980 -0.4261  0.0263
 7454SOL    HW234341   8.351   3.505   8.740 -0.7220 -0.1517 -0.4390
 7455SOL     OW34342   3.679   4.796   7.413  0.0500  0.4335 -0.4357
 7455SOL    HW134343   3.655   4.741   7.338 -0.0565  1.2041 -0.9886
 7455SOL    HW234344   3.773   4.807   7.406  0.0286  0.5758 -0.5143
 7456SOL     OW34345  10.247   4.297   5.090  0.0771 -0.0549  0.6200
 7456SOL    HW134346  10.194   4.332   5.161 -0.6909 -0.3047  0.1872
 7456SOL    HW234347  10.184   4.253   5.032  0.7604 -0.3979  0.1123
 7457SOL     OW34348  10.179   3.228   9.604  0.3665 -0.1843 -0.2962
 7457SOL    HW134349  10.185   3.267   9.517  1.3909 -1.1944 -0.7053
 7457SOL    HW234350  10.087   3.203   9.613  0.4896 -1.2017 -1.6048
 7458SOL     OW34351   0.265   3.952   9.003  0.4346 -0.1039 -0.0505
 7458SOL    HW134352   0.231   3.863   9.003  0.4999 -0.1719 -2.1208
 7458SOL    HW234353   0.196   4.005   8.963  1.6221  0.1828 -1.8660
 7459SOL     OW34354   9.746   5.095   2.094  0.1517 -0.8135  0.0561
 7459SOL    HW134355   9.704   5.086   2.179 -1.4920 -3.2351 -0.8675
 7459SOL    HW234356   9.675   5.122   2.035  1.1089  0.2002 -0.6691
 7460SOL     OW34357   8.269   5.023   7.251  0.5518  0.1965 -0.6428
 7460SOL    HW134358   8.324   4.966   7.197  1.0704 -0.3757  0.4516
 7460SOL    HW234359   8.321   5.039   7.330  0.5408  2.4427 -1.0223
 7461SOL     OW34360   6.371   2.091   5.317  0.0088  0.2224 -0.1765
 7461SOL    HW134361   6.320   2.121   5.391  0.0954 -0.3643  0.1236
 7461SOL    HW234362   6.453   2.059   5.355  0.5452  1.0155 -0.6367
 7462SOL     OW34363  10.255   9.740   9.671  0.0016  0.7812 -0.1871
 7462SOL    HW134364  10.170   9.782   9.688  0.2387  2.2115 -2.1651
 7462SOL    HW234365  10.314   9.780   9.735 -0.0482  2.6894 -1.2504
 7463SOL     OW34366   4.916   5.792   3.584 -0.6534 -0.0915  0.2856
 7463SOL    HW134367   4.952   5.750   3.506  1.3444  0.4576  0.8582
 7463SOL    HW234368   4.939   5.884   3.575 -2.5812  0.4565  0.3761
 7464SOL     OW34369   8.277   1.061   7.219  0.8539  0.4850  0.1671
 7464SOL    HW134370   8.278   1.082   7.312  2.1847  0.5984  0.1458
 7464SOL    HW234371   8.344   0.993   7.209  0.7677  0.5207 -0.7127
 7465SOL     OW34372   0.085   5.728   2.796 -0.6128  0.2651  0.4599
 7465SOL    HW134373   0.136   5.790   2.744 -1.4525  1.0087  0.4928
 7465SOL    HW234374   0.147   5.693   2.860  0.5496 -0.9534 -1.2272
 7466SOL     OW34375   5.851   4.624   7.811 -0.5994  0.2763 -0.5494
 7466SOL    HW134376   5.909   4.593   7.880  0.6888 -0.0292 -1.7210
 7466SOL    HW234377   5.764   4.591   7.836 -0.2005  0.3100  0.9776
 7467SOL     OW34378   8.416   7.068   4.365 -0.2856 -0.1636  0.1392
 7467SOL    HW134379   8.486   7.073   4.300 -1.2039  1.5795 -0.7762
 7467SOL    HW234380   8.339   7.043   4.315 -0.9651  0.9994  0.5721
 7468SOL     OW34381   2.529   5.969   5.293  0.5283 -0.0569  0.2454
 7468SOL    HW134382   2.608   5.984   5.345  1.7292  0.5616 -1.6618
 7468SOL    HW234383   2.541   5.882   5.255  0.3556  0.0924 -0.1552
 7469SOL     OW34384   6.577   2.364   7.446  0.0395  0.4924  0.4483
 7469SOL    HW134385   6.616   2.371   7.533 -1.3852 -0.4359  1.1969
 7469SOL    HW234386   6.538   2.450   7.430 -1.6944 -0.0124  1.7516
 7470SOL     OW34387   5.872   7.582   1.089 -0.1246 -0.1898  0.0864
 7470SOL    HW134388   5.798   7.523   1.103  0.2149 -0.6618 -0.1048
 7470SOL    HW234389   5.832   7.665   1.061 -0.5776 -0.4410 -0.0149
 7471SOL     OW34390   3.286   0.979   1.546 -0.2406  0.3413 -0.1822
 7471SOL    HW134391   3.195   0.949   1.546 -0.4690  0.8855  1.9400
 7471SOL    HW234392   3.309   0.984   1.639  2.1164 -0.2119 -0.6908
 7472SOL     OW34393   2.597   9.068   6.207  0.0685 -0.2457 -0.1912
 7472SOL    HW134394   2.504   9.086   6.219  0.2589  0.3385  0.5022
 7472SOL    HW234395   2.634   9.150   6.174  0.0890 -0.9345 -1.9598
 7473SOL     OW34396   6.241   0.888   6.503 -0.0948  0.3267 -0.2809
 7473SOL    HW134397   6.310   0.933   6.455 -1.0863  1.2417 -0.8666
 7473SOL    HW234398   6.205   0.824   6.441  0.6430 -0.6242  0.2339
 7474SOL     OW34399   2.496   2.070   4.942 -0.0900  0.1028  0.2324
 7474SOL    HW134400   2.563   2.075   4.873 -0.3684  1.9803  0.0386
 7474SOL    HW234401   2.538   2.021   5.013  0.8373 -0.3076 -0.5710
 7475SOL     OW34402   3.569   2.368   0.624  0.1126 -0.4525 -0.3308
 7475SOL    HW134403   3.519   2.305   0.572  2.0360 -0.3192 -2.4886
 7475SOL    HW234404   3.627   2.315   0.677  0.7226 -0.5435 -1.0793
 7476SOL     OW34405   8.204   7.700   1.975 -0.7564 -0.0198 -0.1660
 7476SOL    HW134406   8.253   7.619   1.990 -1.5822 -0.6134 -0.5974
 7476SOL    HW234407   8.146   7.680   1.901 -0.0791  1.3713 -1.1143
 7477SOL     OW34408   6.585   1.909   5.832  0.2131  0.0212 -0.2754
 7477SOL    HW134409   6.637   1.850   5.777 -0.4681 -0.2241 -0.6689
 7477SOL    HW234410   6.495   1.876   5.825  0.2351 -0.5910  1.7618
 7478SOL     OW34411   0.117   2.895   7.184 -0.5765 -0.4319 -0.0634
 7478SOL    HW134412   0.129   2.888   7.279 -3.7901  1.2911  0.6125
 7478SOL    HW234413   0.060   2.972   7.173  0.5116  0.0305 -3.4952
 7479SOL     OW34414   1.921   4.433   7.027  0.6871  0.4139 -0.1448
 7479SOL    HW134415   1.921   4.435   7.123  4.1464  0.4643 -0.0349
 7479SOL    HW234416   1.900   4.342   7.005 -0.5205  0.4855  0.5751
 7480SOL     OW34417   3.675   9.082   0.004 -0.0190  0.5918 -0.2526
 7480SOL    HW134418   3.752   9.030  -0.017  1.1253  2.1423 -0.0667
 7480SOL    HW234419   3.601   9.025  -0.016  1.1605 -0.8473 -0.6714
 7481SOL     OW34420   6.893   1.029   9.598  0.1597 -0.5723 -0.0410
 7481SOL    HW134421   6.933   0.946   9.572 -0.6732 -1.0801  0.2217
 7481SOL    HW234422   6.857   1.011   9.685 -0.2987 -0.0263 -0.1116
 7482SOL     OW34423   4.834   3.474   5.228 -0.2297 -0.2175  0.4369
 7482SOL    HW134424   4.915   3.525   5.240  0.0526 -0.7221  0.6962
 7482SOL    HW234425   4.864   3.386   5.205 -0.7235 -0.1239 -0.6281
 7483SOL     OW34426   6.622  10.073   6.206  0.2374 -0.0764 -0.3757
 7483SOL    HW134427   6.715  10.099   6.212 -0.1374  1.0764  1.3344
 7483SOL    HW234428   6.581  10.115   6.282 -1.8171 -0.0745 -1.4254
 7484SOL     OW34429   1.856   9.644   3.575  0.2764 -0.1471  0.4395
 7484SOL    HW134430   1.865   9.710   3.644 -1.6005  0.0844  0.5256
 7484SOL    HW234431   1.859   9.695   3.493 -0.0390 -0.0997  0.4575
 7485SOL     OW34432   9.916   5.152   2.567  0.2572  0.0808  0.1241
 7485SOL    HW134433   9.970   5.225   2.596  0.2515 -0.2370  0.9447
 7485SOL    HW234434   9.939   5.141   2.474 -0.2737  1.5763 -0.2143
 7486SOL     OW34435   1.701   7.087   0.424  0.3466  0.1942  0.1879
 7486SOL    HW134436   1.694   7.069   0.330  0.8146 -0.9393  0.3553
 7486SOL    HW234437   1.640   7.025   0.464 -0.9303  1.6483  0.5586
 7487SOL     OW34438   0.334   2.658   7.955  0.5306  0.4307 -0.0350
 7487SOL    HW134439   0.262   2.660   8.019 -0.1373  0.5351 -0.7774
 7487SOL    HW234440   0.413   2.664   8.008 -0.0274  0.9732  0.7547
 7488SOL     OW34441   9.069   0.561  10.133 -0.6299  0.0048 -0.3533
 7488SOL    HW134442   9.101   0.576  10.223 -0.2891 -0.0565 -0.4610
 7488SOL    HW234443   9.088   0.643  10.087 -0.6547 -0.0216 -0.4108
 7489SOL     OW34444   7.307   5.002   8.884 -0.0701 -1.0492 -0.1265
 7489SOL    HW134445   7.292   5.067   8.953  1.6803  1.3048 -1.8149
 7489SOL    HW234446   7.340   4.925   8.931 -1.6264 -0.5680  1.8906
 7490SOL     OW34447   2.502   4.283   0.425  0.4729 -0.7453  0.3819
 7490SOL    HW134448   2.465   4.247   0.345 -0.8574  1.6651 -0.1511
 7490SOL    HW234449   2.427   4.319   0.473  1.7200  1.6297  0.6772
 7491SOL     OW34450   2.188  10.149   1.270  0.4145  0.6902  0.0525
 7491SOL    HW134451   2.097  10.180   1.263 -0.5627 -2.0465 -0.3575
 7491SOL    HW234452   2.181  10.060   1.304  2.9079  0.0964 -0.7746
 7492SOL     OW34453   3.776   7.753   9.423 -0.0766  0.3998  0.2598
 7492SOL    HW134454   3.704   7.693   9.406 -0.3735  0.5999  0.7876
 7492SOL    HW234455   3.794   7.794   9.338  0.2513 -0.5584 -0.1404
 7493SOL     OW34456   1.681   6.720  10.206 -0.4490 -0.0730  0.2034
 7493SOL    HW134457   1.684   6.725  10.110  0.9944  2.4412  0.3031
 7493SOL    HW234458   1.720   6.635  10.226 -0.0967 -0.3378 -1.4064
 7494SOL     OW34459   8.696   4.262   7.820  0.5324 -0.0047 -0.2050
 7494SOL    HW134460   8.663   4.301   7.902  1.4795  2.4691 -0.9048
 7494SOL    HW234461   8.737   4.180   7.847 -0.8794 -0.2124  1.4983
 7495SOL     OW34462   0.782   6.642   2.036 -0.2291 -0.2014  0.4443
 7495SOL    HW134463   0.731   6.586   2.095 -1.7981  2.5797  1.9574
 7495SOL    HW234464   0.724   6.659   1.962 -1.1782  2.0610  1.6280
 7496SOL     OW34465  10.354   4.402   7.715  0.2161  0.1771 -0.3441
 7496SOL    HW134466  10.399   4.484   7.697  1.2852 -0.4538 -0.6799
 7496SOL    HW234467  10.388   4.341   7.649 -0.2187 -0.6501  0.1725
 7497SOL     OW34468   0.995   1.517  10.041  0.3671 -0.0513 -0.2744
 7497SOL    HW134469   1.062   1.574  10.003  0.2539 -0.4445 -1.0991
 7497SOL    HW234470   0.944   1.574  10.098  1.1445  0.3440  0.0347
 7498SOL     OW34471   6.328   6.809  10.041 -0.1645  0.0825  0.6835
 7498SOL    HW134472   6.412   6.777  10.074  1.1519  1.0501 -1.4941
 7498SOL    HW234473   6.327   6.902  10.066 -0.4896  0.1230  0.5248
 7499SOL     OW34474   6.131   0.528   9.036  0.3798  0.4243 -0.0005
 7499SOL    HW134475   6.154   0.467   8.965 -0.1520 -0.1534  0.3122
 7499SOL    HW234476   6.113   0.611   8.991 -1.1851 -0.2551 -0.6957
 7500SOL     OW34477  10.243   3.740   9.012  0.2461  0.0562  0.9603
 7500SOL    HW134478  10.188   3.676   9.058 -0.7610  0.1993  0.0087
 7500SOL    HW234479  10.193   3.762   8.933  1.9217 -0.1649 -0.2078
 7501SOL     OW34480   1.073   0.905   1.757 -0.4437 -0.0657  0.6276
 7501SOL    HW134481   1.004   0.855   1.715  0.5879 -1.0349  0.0373
 7501SOL    HW234482   1.145   0.843   1.769  0.9539  1.2802 -0.3214
 7502SOL     OW34483   2.710   3.056   3.338 -0.1155 -0.3248  0.1601
 7502SOL    HW134484   2.766   3.042   3.415 -0.5210 -0.4588  0.4320
 7502SOL    HW234485   2.640   3.113   3.369 -0.3635 -0.4993 -0.0721
 7503SOL     OW34486   8.184   9.095   0.050  0.1278 -0.0595 -0.6614
 7503SOL    HW134487   8.250   9.164   0.045  1.4621 -1.1999  0.3788
 7503SOL    HW234488   8.229   9.017   0.017 -1.0113 -0.6632 -0.8187
 7504SOL     OW34489   4.215   9.969   2.595 -0.0326 -0.0033 -0.4399
 7504SOL    HW134490   4.293   9.977   2.540 -0.0476  1.2075 -0.3159
 7504SOL    HW234491   4.194   9.876   2.594  2.6912 -0.7655  1.2935
 7505SOL     OW34492   0.570   3.320   6.815  0.4298 -0.3172 -0.4865
 7505SOL    HW134493   0.478   3.314   6.841 -0.1078  2.8347 -1.2082
 7505SOL    HW234494   0.573   3.395   6.755  3.4535 -0.3798 -0.5717
 7506SOL     OW34495   4.582   8.565   5.926 -0.0128 -0.1039 -0.3830
 7506SOL    HW134496   4.603   8.473   5.936 -1.7490 -0.5307 -0.4511
 7506SOL    HW234497   4.509   8.567   5.863 -1.4315  1.1028  1.1999
 7507SOL     OW34498   9.488   7.546   6.269 -0.3638  0.6546  0.1653
 7507SOL    HW134499   9.538   7.475   6.310 -2.0120  0.1019  1.3257
 7507SOL    HW234500   9.408   7.504   6.237 -0.7615  1.7560 -0.3328
 7508SOL     OW34501   6.824   4.582   2.531  0.0886  0.8495  0.1096
 7508SOL    HW134502   6.762   4.568   2.459 -0.2429  0.1697  0.5093
 7508SOL    HW234503   6.770   4.574   2.610  0.7105  0.0597  0.4698
 7509SOL     OW34504   0.071   2.582   4.309 -0.1045  0.2655 -0.1697
 7509SOL    HW134505   0.028   2.509   4.353  0.5650  0.5333  0.9553
 7509SOL    HW234506   0.003   2.649   4.303 -0.0926  0.3862  0.8694
 7510SOL     OW34507   8.650   3.380   5.678  0.1298  0.7638  0.2021
 7510SOL    HW134508   8.580   3.326   5.643  0.4321 -0.5455  1.5175
 7510SOL    HW234509   8.687   3.329   5.750  1.8219  1.8191  0.1604
 7511SOL     OW34510   6.153   0.299   6.894  0.1515 -0.6826  0.2471
 7511SOL    HW134511   6.235   0.289   6.943  0.9687 -0.5303 -1.0199
 7511SOL    HW234512   6.148   0.219   6.842 -0.8850 -1.0055  0.8231
 7512SOL     OW34513   8.116   5.888   2.633  0.4715  0.0488 -0.3677
 7512SOL    HW134514   8.028   5.920   2.614  0.1828 -1.3230 -1.4917
 7512SOL    HW234515   8.173   5.936   2.574 -0.0471 -1.8980 -2.6042
 7513SOL     OW34516   0.030   8.901   1.362  0.6054  0.2371  0.0051
 7513SOL    HW134517   0.104   8.855   1.324  0.1059  0.7966 -1.7511
 7513SOL    HW234518   0.038   8.886   1.457  2.4962 -0.3481 -0.2047
 7514SOL     OW34519   7.093   9.615   2.731 -0.3978 -0.4042 -0.2713
 7514SOL    HW134520   7.048   9.548   2.679  0.1734  1.0961 -2.8767
 7514SOL    HW234521   7.186   9.594   2.722 -0.1635  1.0294 -1.6943
 7515SOL     OW34522   5.953  10.331   8.606  0.1690  0.5499  0.0033
 7515SOL    HW134523   5.923  10.269   8.540 -2.9023  1.1282  0.6719
 7515SOL    HW234524   5.952  10.416   8.562 -1.0063  0.8118  0.4869
 7516SOL     OW34525   3.903   7.867   1.242 -0.3192 -0.0459  0.3884
 7516SOL    HW134526   3.987   7.883   1.201 -0.7826 -0.3781 -0.7315
 7516SOL    HW234527   3.919   7.881   1.336  0.3222  2.5500 -0.0304
 7517SOL     OW34528   5.096   7.723   8.556  0.5636  0.3315 -0.3036
 7517SOL    HW134529   5.041   7.785   8.604 -0.5981 -0.9295  0.0795
 7517SOL    HW234530   5.162   7.777   8.513 -0.2186  1.7882  0.2520
 7518SOL     OW34531   0.001   5.701   8.023  0.4300  0.0356 -0.2632
 7518SOL    HW134532   0.009   5.754   8.102  0.3891 -0.8991  0.3805
 7518SOL    HW234533  -0.065   5.635   8.044  1.9638 -1.5845 -0.2801
 7519SOL     OW34534   0.051   9.281   3.587 -0.4093  0.4424  0.3165
 7519SOL    HW134535   0.116   9.244   3.647 -1.0450 -0.0771  0.7022
 7519SOL    HW234536   0.100   9.301   3.507  0.2537  0.2251  0.6617
 7520SOL     OW34537   3.421   1.020   9.841 -0.1466  0.6035  0.2233
 7520SOL    HW134538   3.477   1.089   9.875  0.4019  0.4484 -0.3530
 7520SOL    HW234539   3.411   0.958   9.913  0.9783  0.2940  0.1303
 7521SOL     OW34540   6.484   3.276   8.492  0.4097  0.4174 -0.5154
 7521SOL    HW134541   6.461   3.349   8.550 -0.9510  1.1162 -1.8934
 7521SOL    HW234542   6.423   3.207   8.515 -0.0543  0.6543 -1.0244
 7522SOL     OW34543   3.477   6.952   0.742 -0.2873 -0.0787  0.5270
 7522SOL    HW134544   3.432   7.027   0.701  0.1765 -0.3880 -0.5994
 7522SOL    HW234545   3.529   6.915   0.671 -1.2729 -2.0854  0.7924
 7523SOL     OW34546   5.951   5.107   4.574  0.0707 -0.6281  0.4316
 7523SOL    HW134547   5.859   5.082   4.571 -0.3973  0.9085  0.7166
 7523SOL    HW234548   5.949   5.202   4.588  1.6949 -0.4261 -0.4884
 7524SOL     OW34549   3.437   9.644   7.161  0.0829  0.4620 -0.0888
 7524SOL    HW134550   3.378   9.692   7.104  1.6453  1.1758 -1.1885
 7524SOL    HW234551   3.464   9.709   7.227  1.7282  0.9962 -1.2218
 7525SOL     OW34552   5.201   8.615   6.552 -0.8281  0.1159 -0.5229
 7525SOL    HW134553   5.125   8.565   6.579 -0.8994 -0.1380 -1.1615
 7525SOL    HW234554   5.266   8.548   6.528 -0.1323  0.3190  0.7083
 7526SOL     OW34555   7.980   1.557   7.453 -0.0386  0.0606  0.8061
 7526SOL    HW134556   8.065   1.577   7.414 -0.4607 -1.4259 -1.0043
 7526SOL    HW234557   7.997   1.553   7.547  1.3057  2.3773  0.7349
 7527SOL     OW34558   4.140   9.671   3.751  0.1552 -0.1185  0.1715
 7527SOL    HW134559   4.184   9.657   3.667  0.1196  1.8132 -0.2353
 7527SOL    HW234560   4.157   9.763   3.771 -2.4335  0.3065  0.7357
 7528SOL     OW34561   7.739  10.170   0.418  0.2849 -0.0262 -0.3818
 7528SOL    HW134562   7.678  10.215   0.476 -0.5413  0.5186 -1.6321
 7528SOL    HW234563   7.814  10.229   0.412 -0.3812  0.7629 -1.2430
 7529SOL     OW34564   7.766   1.861   8.216 -0.1629 -0.3982  0.1832
 7529SOL    HW134565   7.796   1.899   8.133 -0.8676 -0.6169 -0.1862
 7529SOL    HW234566   7.834   1.798   8.239 -0.5800 -1.3124 -0.9487
 7530SOL     OW34567   6.337   2.714   0.599 -0.3166  0.6328  0.2689
 7530SOL    HW134568   6.254   2.693   0.555  1.7262 -1.9582 -2.7246
 7530SOL    HW234569   6.363   2.633   0.642  1.2017  1.0948  0.2562
 7531SOL     OW34570   8.416   7.600   7.933 -0.0029 -0.1645  0.3029
 7531SOL    HW134571   8.501   7.568   7.903 -1.7650 -4.3049 -1.0791
 7531SOL    HW234572   8.418   7.588   8.028  1.2588  0.8527  0.4346
 7532SOL     OW34573   9.007   9.539   2.991  0.2331  0.7549  0.2432
 7532SOL    HW134574   8.990   9.609   3.054 -0.6448  1.3144 -0.5952
 7532SOL    HW234575   8.921   9.515   2.958  0.7560  1.4957 -1.8112
 7533SOL     OW34576   1.341   3.223   5.165 -0.1932  0.3737 -0.4495
 7533SOL    HW134577   1.388   3.152   5.210 -1.3008 -0.2429 -0.2279
 7533SOL    HW234578   1.410   3.273   5.120  0.8247  0.3809  1.0646
 7534SOL     OW34579   7.405   5.617   9.507 -0.2849 -0.0344 -0.0312
 7534SOL    HW134580   7.410   5.546   9.443  1.6250 -0.5404  0.6073
 7534SOL    HW234581   7.419   5.575   9.592  2.5365  1.2084  0.2387
 7535SOL     OW34582   2.861   8.471   0.017  0.2755  0.0226  0.2907
 7535SOL    HW134583   2.954   8.485   0.000 -0.0184  1.0141 -0.6268
 7535SOL    HW234584   2.816   8.535  -0.039 -0.9199  0.4899  1.7074
 7536SOL     OW34585   9.030   8.519   3.298  0.0678 -0.5216  0.5276
 7536SOL    HW134586   9.099   8.552   3.355  0.0728  0.0872  0.1805
 7536SOL    HW234587   8.990   8.597   3.261  0.6006 -0.8992 -0.9415
 7537SOL     OW34588   8.465   3.772   5.445  0.1354 -0.7435 -0.0564
 7537SOL    HW134589   8.513   3.826   5.508  0.2772 -0.6460 -0.2485
 7537SOL    HW234590   8.429   3.700   5.498 -1.6294  0.5145  0.5253
 7538SOL     OW34591   8.039   5.417   6.063 -0.5635 -1.0356 -0.3979
 7538SOL    HW134592   8.113   5.474   6.041 -0.5511 -0.7093  0.4602
 7538SOL    HW234593   8.018   5.439   6.154 -1.6100 -1.2451 -0.5770
 7539SOL     OW34594   1.775   9.905   5.328  0.5064 -0.0903  0.2885
 7539SOL    HW134595   1.738   9.828   5.370  2.7774 -1.5729 -0.2765
 7539SOL    HW234596   1.818   9.872   5.249  0.5753  1.9264 -0.6039
 7540SOL     OW34597   6.662   7.195   4.251 -0.6179  0.6028  1.0263
 7540SOL    HW134598   6.612   7.268   4.287 -0.5329  1.0034  0.3562
 7540SOL    HW234599   6.641   7.121   4.307 -2.4894  0.5971  0.3998
 7541SOL     OW34600   9.047   3.188   3.049 -0.4835 -0.0302  0.1127
 7541SOL    HW134601   9.017   3.134   3.123  1.6306 -2.3876 -0.6176
 7541SOL    HW234602   9.049   3.128   2.975  1.3543  1.2049 -0.9061
 7542SOL     OW34603   4.487   7.928   1.276  0.5256 -0.1748  0.4409
 7542SOL    HW134604   4.431   8.006   1.276  1.0402  0.2470 -1.2755
 7542SOL    HW234605   4.571   7.958   1.309  1.1690  0.4115 -1.5814
 7543SOL     OW34606   1.224  10.220   8.819 -0.4460 -0.6902  0.1909
 7543SOL    HW134607   1.162  10.276   8.865  2.4316  2.2217  0.8758
 7543SOL    HW234608   1.226  10.256   8.730  1.5881  0.5783  0.6932
 7544SOL     OW34609   8.134   4.711   7.689  0.1339  0.1275 -0.3878
 7544SOL    HW134610   8.096   4.654   7.756  1.1531 -1.9474 -1.4750
 7544SOL    HW234611   8.207   4.754   7.733  1.3283 -1.8602 -0.3197
 7545SOL     OW34612   5.068   6.295   6.736  0.4861  0.2824 -0.2516
 7545SOL    HW134613   5.036   6.383   6.713 -0.1013  0.2819  0.5335
 7545SOL    HW234614   5.008   6.235   6.692  0.7680  0.2710 -0.6243
 7546SOL     OW34615   2.004   0.755  10.128 -0.2807  0.1510  0.0132
 7546SOL    HW134616   2.021   0.807  10.050  1.0225 -1.4128 -0.8230
 7546SOL    HW234617   1.996   0.665  10.095  2.4825 -0.9004  1.8207
 7547SOL     OW34618   6.224   0.513   7.687 -0.3785  0.0053  0.8252
 7547SOL    HW134619   6.156   0.473   7.632 -0.7999 -1.2719  2.2185
 7547SOL    HW234620   6.178   0.544   7.765  0.3079  1.2436  0.7729
 7548SOL     OW34621   8.919   6.404   5.389 -0.2297  0.1350  0.8589
 7548SOL    HW134622   8.888   6.494   5.378 -0.8780 -0.3457 -1.9532
 7548SOL    HW234623   9.000   6.399   5.339  0.3472 -0.6172  1.8187
 7549SOL     OW34624   5.182   2.478   0.488 -0.2248 -0.3496 -0.4291
 7549SOL    HW134625   5.106   2.513   0.441  0.1869 -0.1704 -0.9842
 7549SOL    HW234626   5.210   2.403   0.435  0.9822  0.5813 -1.1776
 7550SOL     OW34627   4.237   8.962   8.966  0.0523 -0.4888  0.6183
 7550SOL    HW134628   4.332   8.957   8.976  0.3947 -0.7906 -2.0899
 7550SOL    HW234629   4.205   8.882   9.008  1.2511 -1.6645 -0.6161
 7551SOL     OW34630   2.892   0.742   8.030 -0.6549  0.2815 -0.1886
 7551SOL    HW134631   2.859   0.771   8.115  0.3880  0.9052  0.0210
 7551SOL    HW234632   2.971   0.794   8.016 -0.2981 -0.4825 -1.1121
 7552SOL     OW34633   7.925   7.702   8.752  0.2089 -0.4182  0.5977
 7552SOL    HW134634   7.859   7.715   8.685  2.6100  3.7197 -1.3503
 7552SOL    HW234635   7.896   7.757   8.825  0.5279 -0.2076  0.5646
 7553SOL     OW34636   2.640   2.711   3.071  0.0079  0.6431 -0.2438
 7553SOL    HW134637   2.722   2.674   3.103  0.0219  1.5116  0.7736
 7553SOL    HW234638   2.589   2.635   3.044  0.4712 -0.0507  0.7500
 7554SOL     OW34639  10.215   2.707   4.025  0.0587 -0.1151 -0.1177
 7554SOL    HW134640  10.194   2.626   4.071  2.6930 -1.7468 -1.5365
 7554SOL    HW234641  10.152   2.711   3.953  1.8567 -2.9001 -2.0912
 7555SOL     OW34642   4.053   8.629  10.365  0.0896  0.2366 -0.1617
 7555SOL    HW134643   3.996   8.557  10.340  1.7004 -1.8531  1.8213
 7555SOL    HW234644   4.102   8.649  10.285  0.6797 -1.9427 -0.4046
 7556SOL     OW34645   9.168   6.641   2.649  0.0488  0.3848 -0.1371
 7556SOL    HW134646   9.247   6.609   2.606  0.7842 -0.3303  1.6684
 7556SOL    HW234647   9.197   6.719   2.696 -0.4840  0.5324 -0.0526
 7557SOL     OW34648   3.515   9.699   0.114 -0.2963 -0.0566 -0.0386
 7557SOL    HW134649   3.552   9.731   0.196 -0.2902 -1.6518  0.6260
 7557SOL    HW234650   3.591   9.676   0.061 -0.3074  0.3709 -0.2432
 7558SOL     OW34651   9.723   5.184   2.871 -0.4282  0.0100 -0.5734
 7558SOL    HW134652   9.683   5.150   2.950 -2.2527  1.2126 -0.9199
 7558SOL    HW234653   9.723   5.111   2.809  1.5172 -1.0979  0.6497
 7559SOL     OW34654   2.967   4.236   5.163 -1.0881  0.0383  0.0429
 7559SOL    HW134655   2.994   4.272   5.248 -0.8406  2.6189 -1.0244
 7559SOL    HW234656   3.004   4.148   5.162  1.0594  0.8121  1.6233
 7560SOL     OW34657   0.460   5.140   8.253 -0.4125  0.1137  0.4188
 7560SOL    HW134658   0.438   5.145   8.161 -0.1497  0.9138  0.3926
 7560SOL    HW234659   0.503   5.055   8.263  0.5218  0.4717 -0.4149
 7561SOL     OW34660   3.603   3.890   9.122  0.6524 -0.0533 -0.4194
 7561SOL    HW134661   3.544   3.965   9.126  1.5509  0.7056 -1.0544
 7561SOL    HW234662   3.672   3.910   9.186  0.3257 -0.8499  0.1948
 7562SOL     OW34663   1.891   7.124   6.460  0.2320  0.3043 -0.0873
 7562SOL    HW134664   1.903   7.217   6.481  2.3492 -0.3729  2.0627
 7562SOL    HW234665   1.925   7.116   6.371 -2.1689  1.9369 -1.2746
 7563SOL     OW34666   3.886   9.907   1.925  0.5282 -0.4194 -0.2644
 7563SOL    HW134667   3.871   9.859   2.007  0.0556 -1.6786 -1.0561
 7563SOL    HW234668   3.938   9.983   1.951 -0.9631  0.0993  1.4675
 7564SOL     OW34669   9.451   5.113   4.286  0.2358  0.0822 -0.0075
 7564SOL    HW134670   9.402   5.037   4.255  0.6825  0.2121 -1.0858
 7564SOL    HW234671   9.397   5.188   4.264  0.3700  0.1515 -0.1058
 7565SOL     OW34672   2.356   0.620   5.099  0.3767 -0.3312 -0.7016
 7565SOL    HW134673   2.284   0.566   5.065  0.6708 -0.8492 -0.5198
 7565SOL    HW234674   2.428   0.607   5.037 -0.0617  1.1643 -1.5738
 7566SOL     OW34675   6.168   8.940   2.467  0.1008 -0.0310 -0.3782
 7566SOL    HW134676   6.206   9.019   2.429  1.2947 -0.3566  0.1107
 7566SOL    HW234677   6.105   8.910   2.401 -0.9158  1.7197 -0.2610
 7567SOL     OW34678   6.668   3.961   3.017 -0.4134  0.4940 -0.1546
 7567SOL    HW134679   6.738   3.898   3.026 -0.4867  0.6665  2.5346
 7567SOL    HW234680   6.656   3.972   2.922  1.4413 -1.3997 -0.6648
 7568SOL     OW34681   6.519   0.948   6.502 -0.0612 -0.1894  0.2663
 7568SOL    HW134682   6.547   0.857   6.502 -2.6045 -1.0306 -0.3556
 7568SOL    HW234683   6.599   0.997   6.522  1.4881 -2.4865  0.0845
 7569SOL     OW34684   9.781   6.052   3.177  0.3473 -0.3996  0.0525
 7569SOL    HW134685   9.804   5.970   3.220  1.6607  0.0152  0.1696
 7569SOL    HW234686   9.862   6.082   3.136 -0.6060 -0.2048 -1.7784
 7570SOL     OW34687   1.434   4.307   4.268 -0.2003  0.2377  0.1597
 7570SOL    HW134688   1.454   4.244   4.337 -1.1625  0.1258  0.3505
 7570SOL    HW234689   1.518   4.350   4.250  0.7228 -1.7851 -0.6979
 7571SOL     OW34690   6.615   4.256   5.672 -0.5115 -0.1013  0.6153
 7571SOL    HW134691   6.609   4.172   5.626  0.0215 -0.5014  1.2565
 7571SOL    HW234692   6.524   4.285   5.682 -0.6318  0.0466 -0.7745
 7572SOL     OW34693   2.341   9.147   7.452  0.3840  0.3438 -0.8592
 7572SOL    HW134694   2.300   9.071   7.411 -1.4667  0.9721 -0.2590
 7572SOL    HW234695   2.431   9.119   7.470 -0.5452 -2.1232  0.3431
 7573SOL     OW34696   4.136   9.347   0.051 -0.4809 -0.7638  0.4263
 7573SOL    HW134697   4.155   9.280   0.117  0.6053 -0.7931  0.1126
 7573SOL    HW234698   4.164   9.429   0.093 -1.0056 -0.6181  0.4893
 7574SOL     OW34699   3.826   8.762   5.497 -0.2592 -0.4487  0.5005
 7574SOL    HW134700   3.880   8.688   5.527  2.1938  0.3037 -1.6368
 7574SOL    HW234701   3.839   8.762   5.402 -1.3258  1.8906  0.3133
 7575SOL     OW34702   9.203   0.705   7.529  0.7222  0.8717  0.2722
 7575SOL    HW134703   9.128   0.759   7.506  0.5106  1.4951  2.2792
 7575SOL    HW234704   9.166   0.631   7.577  1.0477 -0.9233 -2.0540
 7576SOL     OW34705   2.609   0.581   2.958 -0.2669 -0.6172 -0.0428
 7576SOL    HW134706   2.671   0.560   3.028  0.4233  0.8611 -0.1610
 7576SOL    HW234707   2.523   0.578   3.000 -0.0164 -1.4237  0.4332
 7577SOL     OW34708   4.590   9.865   9.336 -0.0560  0.4330  0.1942
 7577SOL    HW134709   4.582   9.942   9.392  0.8601  0.9690 -0.3925
 7577SOL    HW234710   4.658   9.811   9.379 -0.8046 -0.1427  0.6895
 7578SOL     OW34711   8.538   4.794   7.064  0.7467  0.0003 -0.3301
 7578SOL    HW134712   8.460   4.744   7.084  0.4706 -0.0157 -1.4248
 7578SOL    HW234713   8.551   4.783   6.970  1.4931  0.8107 -0.3349
 7579SOL     OW34714   1.179   2.753   1.576  0.7079  0.2093  0.0767
 7579SOL    HW134715   1.122   2.754   1.653  0.2099 -0.3220 -0.2702
 7579SOL    HW234716   1.174   2.663   1.544 -2.6334  1.2250 -3.0964
 7580SOL     OW34717   5.354   7.754   9.779  0.5828 -0.0773 -0.2931
 7580SOL    HW134718   5.358   7.669   9.734  0.2103  0.3482 -1.1463
 7580SOL    HW234719   5.418   7.808   9.733 -2.0121  1.3414 -2.4312
 7581SOL     OW34720   7.832   1.623   9.155 -0.3210 -0.6134  0.2270
 7581SOL    HW134721   7.796   1.705   9.188  0.4385 -1.2156  2.7713
 7581SOL    HW234722   7.926   1.640   9.146 -0.1271 -1.2333  0.9690
 7582SOL     OW34723   1.375   4.098   6.232  0.6733 -0.3102 -0.0084
 7582SOL    HW134724   1.449   4.120   6.290  1.5457  1.9135 -1.8119
 7582SOL    HW234725   1.298   4.108   6.288  1.5704  0.2609  1.1888
 7583SOL     OW34726   0.858   0.228   4.678  0.2949 -0.0031  0.2915
 7583SOL    HW134727   0.930   0.193   4.625  1.3201  1.9709  0.2939
 7583SOL    HW234728   0.780   0.212   4.625  1.3500  2.6586 -2.3778
 7584SOL     OW34729   9.466   1.058   1.489 -0.4994 -0.1416 -0.0942
 7584SOL    HW134730   9.543   1.100   1.452 -0.6210  0.1132 -0.0554
 7584SOL    HW234731   9.393   1.116   1.467 -0.7505 -0.6126 -0.5326
 7585SOL     OW34732   4.891   0.771   2.692 -0.2948 -0.1462 -0.1368
 7585SOL    HW134733   4.857   0.783   2.604  0.6210  0.2266 -0.4491
 7585SOL    HW234734   4.817   0.789   2.750 -0.6672  0.4680 -0.8038
 7586SOL     OW34735   5.383   9.379   7.711 -0.3745  0.7759  0.3688
 7586SOL    HW134736   5.307   9.434   7.693  1.3303  3.1972  0.0914
 7586SOL    HW234737   5.458   9.432   7.684  1.4659 -1.3236  1.0368
 7587SOL     OW34738   8.641   5.343   9.258  0.1378 -0.3790 -0.1518
 7587SOL    HW134739   8.723   5.362   9.304 -0.0945 -1.6300  0.8273
 7587SOL    HW234740   8.665   5.278   9.192 -0.1847 -1.4495  0.7395
 7588SOL     OW34741   9.196   8.616  10.328 -0.1236  0.4369 -0.2092
 7588SOL    HW134742   9.164   8.706  10.331  0.8572  0.7923 -0.1722
 7588SOL    HW234743   9.263   8.611  10.396 -1.5208 -0.8827  1.1532
 7589SOL     OW34744   4.820   9.529   4.267 -0.3263 -0.1756 -0.2936
 7589SOL    HW134745   4.739   9.478   4.260 -1.8795  2.3356 -2.1498
 7589SOL    HW234746   4.859   9.523   4.180 -1.0795  2.4487 -0.9037
 7590SOL     OW34747   6.425   8.248   3.490 -0.2131 -0.4312 -0.0289
 7590SOL    HW134748   6.483   8.299   3.434  0.5582 -1.6922 -0.4130
 7590SOL    HW234749   6.353   8.222   3.433 -0.2949 -0.2964  0.0115
 7591SOL     OW34750   2.398   7.749  10.368  0.3337  0.1479  0.1170
 7591SOL    HW134751   2.408   7.697  10.288 -0.7400  0.9112 -0.5510
 7591SOL    HW234752   2.431   7.693  10.438  0.7855 -0.7532 -0.7942
 7592SOL     OW34753   8.350   7.878   7.852  0.1887 -0.9022 -0.2319
 7592SOL    HW134754   8.338   7.792   7.893 -2.4896  0.0989  1.3199
 7592SOL    HW234755   8.294   7.876   7.775 -0.7081 -0.2582  0.3777
 7593SOL     OW34756   9.870   3.684   8.391  0.0564  0.1606  0.0314
 7593SOL    HW134757   9.919   3.742   8.448 -0.4508 -0.2248  0.8911
 7593SOL    HW234758   9.934   3.619   8.362  0.0936 -0.2737  1.0513
 7594SOL     OW34759  10.024   1.584   6.349 -0.2878  0.5540 -0.8255
 7594SOL    HW134760   9.941   1.607   6.389  0.0084 -1.5001  1.1972
 7594SOL    HW234761  10.006   1.504   6.299 -0.0242  1.4953 -2.4973
 7595SOL     OW34762   4.640   9.338   7.435  0.2913 -0.5440  0.1844
 7595SOL    HW134763   4.660   9.256   7.391 -0.4483 -0.8333  0.3785
 7595SOL    HW234764   4.546   9.335   7.450  0.1223  0.6638 -0.4622
 7596SOL     OW34765   2.814   6.869  10.354 -0.6160  0.4183 -0.1926
 7596SOL    HW134766   2.753   6.857  10.426 -0.5347 -2.6817 -0.4674
 7596SOL    HW234767   2.774   6.822  10.281 -0.3721  2.8899 -2.0302
 7597SOL     OW34768   0.283   1.866   4.731 -0.6114  0.0160  0.6673
 7597SOL    HW134769   0.337   1.911   4.666 -1.5915  1.7819  1.0195
 7597SOL    HW234770   0.236   1.799   4.681 -1.6401  1.5894 -0.5659
 7598SOL     OW34771   4.576   6.744   3.525  0.1553  0.0169  0.5805
 7598SOL    HW134772   4.581   6.838   3.541  0.3839  0.0305  0.4309
 7598SOL    HW234773   4.570   6.705   3.612  3.2922 -0.0369  0.8927
 7599SOL     OW34774   9.245   6.519   6.311  0.1374  0.2649  0.1765
 7599SOL    HW134775   9.158   6.501   6.275  0.4952 -0.3545 -0.4021
 7599SOL    HW234776   9.245   6.477   6.397 -0.5722  1.3718  0.7270
 7600SOL     OW34777   5.647   9.001   6.887  0.0027 -0.2568  0.0487
 7600SOL    HW134778   5.601   8.980   6.969  2.4044  0.1110  1.6002
 7600SOL    HW234779   5.739   8.984   6.907  0.6062 -0.8564 -2.8649
 7601SOL     OW34780   6.586   6.452   4.235  0.5479  0.2327 -0.1373
 7601SOL    HW134781   6.640   6.373   4.239 -0.9709 -0.9391 -1.1152
 7601SOL    HW234782   6.602   6.497   4.318  1.1426 -1.3327  0.6450
 7602SOL     OW34783   3.816   1.372   4.588 -0.0898 -0.1155  0.0556
 7602SOL    HW134784   3.735   1.342   4.546  0.1008 -0.9415  0.2630
 7602SOL    HW234785   3.880   1.376   4.517 -0.6268  1.8636 -0.3808
 7603SOL     OW34786   3.571   1.827   6.264  0.1549  0.1721 -0.1402
 7603SOL    HW134787   3.594   1.838   6.357 -1.5790  0.2289  0.3168
 7603SOL    HW234788   3.572   1.916   6.229 -1.2155  0.4180  0.3694
 7604SOL     OW34789  10.232   9.519  10.269  0.5451  0.0917 -0.2845
 7604SOL    HW134790  10.173   9.525  10.344  0.1183 -2.6150 -0.3234
 7604SOL    HW234791  10.319   9.531  10.306  0.3792 -1.6855  0.7930
 7605SOL     OW34792   3.308   5.286   2.191  0.0681  0.1430  0.5992
 7605SOL    HW134793   3.355   5.234   2.126 -1.0985  0.9846 -1.0099
 7605SOL    HW234794   3.328   5.245   2.275  1.6175 -1.0003 -0.2838
 7606SOL     OW34795   1.072   8.961   7.102 -0.2377 -0.3302 -0.1371
 7606SOL    HW134796   1.093   8.887   7.045  1.1858  0.8573 -1.2506
 7606SOL    HW234797   1.006   9.010   7.053  0.9386  0.6558 -0.7816
 7607SOL     OW34798   5.783   3.420   5.415 -0.0238 -0.4183 -0.6640
 7607SOL    HW134799   5.702   3.371   5.431 -0.5178 -0.0346 -1.8311
 7607SOL    HW234800   5.787   3.484   5.486 -0.7936 -0.3906 -0.6342
 7608SOL     OW34801   7.856   0.601   0.488  0.3023  0.2529 -0.2474
 7608SOL    HW134802   7.828   0.652   0.411  0.9498 -0.8496 -1.2467
 7608SOL    HW234803   7.864   0.666   0.558 -1.0820  1.1664 -0.8871
 7609SOL     OW34804   8.743   7.238   7.979  0.0267 -0.2074 -0.0591
 7609SOL    HW134805   8.773   7.213   7.891  1.1442 -1.1756  0.5593
 7609SOL    HW234806   8.807   7.197   8.038 -2.0602 -1.6763  1.3325
 7610SOL     OW34807   3.729   0.184   2.451  0.0978  0.3250  0.3633
 7610SOL    HW134808   3.811   0.139   2.469  0.0755  0.1770  0.0988
 7610SOL    HW234809   3.664   0.139   2.504  0.0525 -0.0340  0.0032
 7611SOL     OW34810   8.901   2.361   0.976 -0.1843  0.2202  0.3283
 7611SOL    HW134811   8.914   2.388   1.067 -1.1404 -2.1602  1.2543
 7611SOL    HW234812   8.827   2.413   0.945 -2.9863 -2.1336  2.5382
 7612SOL     OW34813   8.515   6.836   7.623 -0.2166  0.2784 -0.0341
 7612SOL    HW134814   8.493   6.831   7.716 -1.6823  1.7297 -0.2524
 7612SOL    HW234815   8.506   6.929   7.601 -2.8101 -0.3453 -2.2378
 7613SOL     OW34816   6.333   5.642   1.701 -0.0463  0.3524 -0.4168
 7613SOL    HW134817   6.314   5.605   1.787  1.1582 -0.0459 -0.3018
 7613SOL    HW234818   6.426   5.624   1.687 -0.2060  0.4524 -1.7805
 7614SOL     OW34819   9.281   0.200   4.844 -0.2354  0.7358  0.2576
 7614SOL    HW134820   9.362   0.188   4.795 -0.2254 -1.6373  0.7556
 7614SOL    HW234821   9.285   0.291   4.875  1.8127  0.9272 -0.4138
 7615SOL     OW34822   2.926   4.140   9.894 -0.1331  0.1917 -0.1121
 7615SOL    HW134823   2.983   4.118   9.821  1.5192  0.9710  0.8916
 7615SOL    HW234824   2.842   4.100   9.872  0.7553 -0.8868 -1.6997
 7616SOL     OW34825   1.475   6.373   7.827  0.6366 -0.1212  0.0455
 7616SOL    HW134826   1.561   6.378   7.785  0.2858 -2.8841 -1.2037
 7616SOL    HW234827   1.423   6.319   7.768 -1.7285  0.8087  1.1812
 7617SOL     OW34828   1.502   9.928   7.377 -0.0620  0.0079  0.1103
 7617SOL    HW134829   1.412   9.902   7.396 -0.1845  0.4459  0.1535
 7617SOL    HW234830   1.511  10.014   7.418 -0.3750  1.0406 -1.8762
 7618SOL     OW34831   5.611   0.866   6.592 -0.4777 -0.2561  0.4405
 7618SOL    HW134832   5.653   0.780   6.602 -1.5869 -0.9644 -0.6657
 7618SOL    HW234833   5.658   0.923   6.653  1.5143 -1.2057 -0.1077
 7619SOL     OW34834   4.755   0.401   8.798  0.5019 -0.1351  0.4606
 7619SOL    HW134835   4.844   0.383   8.828  0.4351 -0.8232  0.2646
 7619SOL    HW234836   4.727   0.320   8.756 -0.3547 -0.0544  0.8487
 7620SOL     OW34837   0.432   6.217   0.477 -0.0406  0.0006  0.4951
 7620SOL    HW134838   0.338   6.223   0.459 -0.1028 -0.5577  0.6175
 7620SOL    HW234839   0.471   6.283   0.420 -0.4076 -0.4762 -0.3285
 7621SOL     OW34840   3.679   3.480   9.629 -0.3462  1.0964 -0.2789
 7621SOL    HW134841   3.628   3.401   9.612 -0.1572  0.7062  0.8893
 7621SOL    HW234842   3.764   3.463   9.587 -0.6961  1.1725 -1.0279
 7622SOL     OW34843   1.810   1.155   7.178 -0.1588 -0.8909  0.2970
 7622SOL    HW134844   1.766   1.239   7.190  0.4776 -0.5786  0.4510
 7622SOL    HW234845   1.872   1.170   7.107 -0.3835 -1.3684 -0.0072
 7623SOL     OW34846   7.280   3.937   3.234 -0.2201 -0.2966  0.1691
 7623SOL    HW134847   7.209   3.876   3.214 -1.0562  0.0124  1.9922
 7623SOL    HW234848   7.266   4.011   3.174  0.8856 -1.8603 -2.1542
 7624SOL     OW34849   1.538   8.432   4.186  0.2742 -0.8277  0.4572
 7624SOL    HW134850   1.496   8.514   4.210  0.3285 -0.7100  0.1504
 7624SOL    HW234851   1.535   8.430   4.091  0.0097 -1.3190  0.4700
 7625SOL     OW34852   6.544   8.519   5.254  0.7274  0.5154  0.2359
 7625SOL    HW134853   6.637   8.509   5.235  0.3898  1.8139 -2.4379
 7625SOL    HW234854   6.499   8.488   5.176 -0.9943  2.1975  0.4869
 7626SOL     OW34855   5.849   2.805   8.618  0.0712  0.1232 -0.4493
 7626SOL    HW134856   5.864   2.844   8.532 -2.0567  0.8544 -0.5542
 7626SOL    HW234857   5.765   2.759   8.609 -0.3787  0.5276  1.2998
 7627SOL     OW34858   1.997   4.720   4.707  0.0389  0.0481 -0.3152
 7627SOL    HW134859   1.975   4.697   4.617  1.2166  0.6521 -0.7784
 7627SOL    HW234860   1.917   4.758   4.743 -0.0081  1.2240 -1.6030
 7628SOL     OW34861   7.691   7.376   1.774  0.1558  0.5278  0.2986
 7628SOL    HW134862   7.774   7.353   1.732 -0.5546  0.1866 -0.9962
 7628SOL    HW234863   7.625   7.327   1.724 -1.2308  3.7592 -1.3030
 7629SOL     OW34864   0.927   9.718   3.252 -0.6046  0.5431  0.0625
 7629SOL    HW134865   0.995   9.691   3.314  0.6960  1.0391 -1.1060
 7629SOL    HW234866   0.927   9.813   3.256 -0.5840  0.5785 -0.6128
 7630SOL     OW34867   5.561   6.926   5.350 -0.0867 -0.3404 -0.1282
 7630SOL    HW134868   5.546   6.961   5.437  0.0721 -2.6730  0.9116
 7630SOL    HW234869   5.474   6.925   5.309 -0.4825 -0.9431  0.7054
 7631SOL     OW34870   9.962   8.681   6.108  0.3642 -0.4481  0.0856
 7631SOL    HW134871   9.916   8.631   6.041 -0.5210  0.8409 -0.3195
 7631SOL    HW234872  10.052   8.686   6.077  0.2061 -0.7997 -0.4455
 7632SOL     OW34873   6.074   1.682   5.970  0.3623  0.5233 -0.1196
 7632SOL    HW134874   6.015   1.708   6.041  1.4914  1.9222  0.3679
 7632SOL    HW234875   6.019   1.679   5.892 -0.7724 -0.3972  0.6826
 7633SOL     OW34876   9.778   6.076   9.854 -0.0750  0.0445  0.4156
 7633SOL    HW134877   9.801   6.168   9.869  0.3084  0.0269 -0.0542
 7633SOL    HW234878   9.860   6.028   9.869 -0.2489 -0.2087  0.5551
 7634SOL     OW34879   2.796   6.948   6.874  0.5904 -0.2754  0.5697
 7634SOL    HW134880   2.818   6.926   6.965  1.4451  0.0275  0.4469
 7634SOL    HW234881   2.764   6.866   6.836  2.4344 -1.0146  0.5030
 7635SOL     OW34882   8.722   8.893   6.821  0.2941  0.6806 -1.1639
 7635SOL    HW134883   8.644   8.936   6.857  0.7607  0.1629  0.5244
 7635SOL    HW234884   8.794   8.924   6.874  0.5599 -2.8117  0.8560
 7636SOL     OW34885   2.559   2.446   9.084  0.3551  0.3654 -0.5638
 7636SOL    HW134886   2.648   2.478   9.066  0.3660  0.9503  0.4818
 7636SOL    HW234887   2.504   2.525   9.082  0.3811  0.5192  2.0301
 7637SOL     OW34888   8.655   2.223   6.356  0.0032  0.8812  0.3183
 7637SOL    HW134889   8.574   2.239   6.404  0.0712 -0.7236  1.0312
 7637SOL    HW234890   8.626   2.193   6.270 -0.2612 -1.7945  1.2651
 7638SOL     OW34891   2.694   6.829   6.308 -0.0456 -0.4025 -0.2364
 7638SOL    HW134892   2.672   6.742   6.341  1.1801 -0.1432  1.3951
 7638SOL    HW234893   2.766   6.858   6.364  0.8160  0.9095 -1.9455
 7639SOL     OW34894   1.976   9.689   5.668  0.2396 -0.7132 -0.0009
 7639SOL    HW134895   1.908   9.643   5.619 -0.3367 -0.5790  0.6636
 7639SOL    HW234896   1.929   9.738   5.736  0.8859  0.3777 -0.3005
 7640SOL     OW34897   8.636   4.457   3.641  0.1722 -0.0771  0.0232
 7640SOL    HW134898   8.669   4.419   3.722 -1.9987 -0.2243  0.9183
 7640SOL    HW234899   8.541   4.445   3.646 -0.1531  1.1848 -1.8960
 7641SOL     OW34900   7.054   3.774   3.925 -0.4425 -0.2566 -1.0184
 7641SOL    HW134901   7.093   3.688   3.912 -1.9430 -1.2245  0.3745
 7641SOL    HW234902   7.068   3.820   3.843  1.5672 -1.3314 -1.3313
 7642SOL     OW34903   5.584   6.021   6.833  0.3013  0.3873 -0.3892
 7642SOL    HW134904   5.496   5.987   6.852  0.0036  2.1461  1.9126
 7642SOL    HW234905   5.574   6.116   6.835  1.7924  0.6684 -2.8023
 7643SOL     OW34906   3.403   7.681   3.552  0.1783 -0.1083  0.4002
 7643SOL    HW134907   3.430   7.590   3.566 -0.5110 -0.0800  2.1434
 7643SOL    HW234908   3.481   7.732   3.569  0.8262 -0.3686 -1.4865
 7644SOL     OW34909   5.920   1.609   5.761  0.3667  0.1173  0.3098
 7644SOL    HW134910   5.855   1.610   5.690  0.1882 -0.3228  0.4638
 7644SOL    HW234911   5.922   1.518   5.789  0.5162  0.2734  0.8003
 7645SOL     OW34912   8.119   9.867   3.926  0.3744 -0.6265  0.1708
 7645SOL    HW134913   8.062   9.905   3.993 -0.2926  0.1367 -0.7974
 7645SOL    HW234914   8.114   9.773   3.941 -2.1907 -0.6873 -0.6674
 7646SOL     OW34915   3.588   1.130   7.919 -0.6763  0.3832  0.4900
 7646SOL    HW134916   3.605   1.057   7.859 -3.3670  0.2390 -0.2389
 7646SOL    HW234917   3.660   1.126   7.982  0.7181 -1.2130 -1.0741
 7647SOL     OW34918   9.140   9.725   0.981 -0.3986  0.1494  0.5590
 7647SOL    HW134919   9.209   9.666   1.012  0.1366  0.4665 -0.0020
 7647SOL    HW234920   9.142   9.716   0.886 -1.3048 -0.0181  0.5448
 7648SOL     OW34921   1.459   7.411   8.891  0.5279 -0.3401 -0.0805
 7648SOL    HW134922   1.367   7.414   8.917  0.0533 -0.4717 -1.6049
 7648SOL    HW234923   1.472   7.322   8.859  0.9383 -0.0853 -0.6530
 7649SOL     OW34924   0.137   1.604   2.032 -0.2752 -0.8362 -0.0282
 7649SOL    HW134925   0.095   1.519   2.025 -0.2222 -1.1987  2.8624
 7649SOL    HW234926   0.072   1.660   2.075  0.8850 -0.3947  1.2081
 7650SOL     OW34927   3.722  10.135   6.868 -0.7586  0.2110  0.3189
 7650SOL    HW134928   3.791  10.196   6.894  1.0416 -1.2886 -0.6676
 7650SOL    HW234929   3.660  10.189   6.820  0.2778  1.4493  0.2975
 7651SOL     OW34930   6.959   0.117   8.879 -0.0510  0.9374 -0.2328
 7651SOL    HW134931   6.947   0.073   8.963 -0.2761  2.2689  0.4495
 7651SOL    HW234932   7.015   0.191   8.898  1.4134  0.2564 -1.6173
 7652SOL     OW34933   0.517   6.105  10.101 -0.4820 -0.1092  0.1372
 7652SOL    HW134934   0.540   6.023  10.058  1.3644  0.2751  0.3227
 7652SOL    HW234935   0.542   6.092  10.193 -0.4357  0.5652  0.2254
 7653SOL     OW34936   5.275   7.637   2.572 -0.6927 -0.0220  0.2699
 7653SOL    HW134937   5.319   7.564   2.616 -0.5394 -0.7372 -0.9998
 7653SOL    HW234938   5.262   7.702   2.640  0.1895 -0.7752  1.1961
 7654SOL     OW34939   9.891   6.513   0.527  0.2744 -0.0580 -0.3633
 7654SOL    HW134940   9.922   6.429   0.559  0.0471  0.1951  0.5586
 7654SOL    HW234941   9.971   6.562   0.506  0.4343 -0.1978 -0.0845
 7655SOL     OW34942   5.417   3.730   6.235  0.0895  0.5407 -0.1108
 7655SOL    HW134943   5.503   3.707   6.271  0.4318  1.0770 -0.5749
 7655SOL    HW234944   5.417   3.693   6.147 -0.3933  0.0286  0.0932
 7656SOL     OW34945   2.947   8.879   1.682 -0.2842  0.0502 -0.4199
 7656SOL    HW134946   2.877   8.943   1.691  1.4866  2.3196 -1.7110
 7656SOL    HW234947   2.903   8.800   1.651 -2.1198  1.9177 -3.0517
 7657SOL     OW34948   3.214   3.582   1.795 -0.0687  0.1723 -0.2470
 7657SOL    HW134949   3.262   3.560   1.875 -0.4288  0.8069  0.1547
 7657SOL    HW234950   3.200   3.677   1.801 -1.3512  0.0078 -0.3722
 7658SOL     OW34951   4.184   2.761   9.799  0.1979  0.3271  0.0455
 7658SOL    HW134952   4.216   2.735   9.886  0.2189  0.7030  0.1513
 7658SOL    HW234953   4.090   2.770   9.810 -0.0086 -1.1470 -0.3593
 7659SOL     OW34954   5.801   4.623   8.175 -0.0150  0.2048 -0.5988
 7659SOL    HW134955   5.886   4.595   8.142  1.2033  1.6755  1.1349
 7659SOL    HW234956   5.794   4.715   8.151  0.6050  1.1384  2.3839
 7660SOL     OW34957   4.062   0.578   7.094  0.0440 -0.6684 -0.3810
 7660SOL    HW134958   4.008   0.641   7.142  3.1396  1.8268  0.1475
 7660SOL    HW234959   4.112   0.532   7.162  1.2423 -0.2627 -0.9507
 7661SOL     OW34960   4.634   7.019   8.487 -0.6453  0.1906 -0.3270
 7661SOL    HW134961   4.626   6.999   8.394  1.8179  0.6287 -0.7184
 7661SOL    HW234962   4.655   6.935   8.528 -0.4437  0.2097 -0.3879
 7662SOL     OW34963  10.030   9.419   1.110  0.2184  0.0992  0.1633
 7662SOL    HW134964  10.001   9.356   1.043  1.3073 -2.9716  2.3101
 7662SOL    HW234965   9.955   9.476   1.123 -0.5925 -0.2099 -2.4843
 7663SOL     OW34966   7.278   9.062   4.574 -0.4113 -0.0468 -0.5896
 7663SOL    HW134967   7.249   8.976   4.603  1.6662 -0.2961  1.0888
 7663SOL    HW234968   7.199   9.116   4.574 -1.1766 -0.9088  2.6348
 7664SOL     OW34969   2.297   7.626   6.054  0.1695 -0.2682 -0.3024
 7664SOL    HW134970   2.235   7.553   6.060 -1.6311  1.1475 -0.5882
 7664SOL    HW234971   2.325   7.626   5.962  1.2892 -1.4192  0.0147
 7665SOL     OW34972   9.152   6.095   3.549 -0.3602 -0.1961  0.2861
 7665SOL    HW134973   9.197   6.061   3.471  0.3772  1.9282 -0.2701
 7665SOL    HW234974   9.134   6.186   3.529 -2.6103 -0.2862  1.5806
 7666SOL     OW34975   9.678   8.364   7.169 -0.4254 -0.0901 -0.1653
 7666SOL    HW134976   9.771   8.385   7.179 -0.9201  1.6051  1.4964
 7666SOL    HW234977   9.661   8.297   7.236 -0.2805 -0.8573 -0.8897
 7667SOL     OW34978   7.351   6.636   7.818 -0.4744  0.0631  0.1126
 7667SOL    HW134979   7.419   6.704   7.817 -1.3901  1.0394  1.3063
 7667SOL    HW234980   7.399   6.554   7.825  0.6116  0.7044  0.4475
 7668SOL     OW34981   7.684   0.150   4.444 -0.0444  0.0486 -0.0837
 7668SOL    HW134982   7.599   0.124   4.409  0.0071  0.4749 -0.5460
 7668SOL    HW234983   7.694   0.242   4.418  0.2865  0.1856  0.5021
 7669SOL     OW34984   4.767   8.189   6.772 -0.0560 -0.5316  0.2194
 7669SOL    HW134985   4.762   8.271   6.820  1.3012 -0.0321 -0.4420
 7669SOL    HW234986   4.797   8.214   6.684 -0.1504 -1.6644 -0.1561
 7670SOL     OW34987   7.473   4.814   9.050 -0.2311 -0.1948  0.2197
 7670SOL    HW134988   7.466   4.832   9.144 -1.5433  0.1984  0.0724
 7670SOL    HW234989   7.464   4.719   9.043  1.3349 -0.3907  0.5881
 7671SOL     OW34990   6.116   2.721   4.836 -0.4816 -0.4317  0.0055
 7671SOL    HW134991   6.122   2.695   4.928  1.1581 -0.6118 -0.1144
 7671SOL    HW234992   6.136   2.641   4.787 -0.7733 -0.2037 -0.4911
 7672SOL     OW34993   5.421   9.210   7.233 -0.1924 -0.5452 -0.0099
 7672SOL    HW134994   5.512   9.222   7.206  0.5821 -0.3489  2.4717
 7672SOL    HW234995   5.392   9.297   7.259 -0.4319 -0.9113  1.0170
 7673SOL     OW34996   2.327   6.961   2.059  0.0733  0.1922  0.3664
 7673SOL    HW134997   2.290   7.041   2.021 -0.4468 -0.0121  0.4429
 7673SOL    HW234998   2.318   6.973   2.154  0.5570  0.3090  0.4016
 7674SOL     OW34999   9.391   3.118   4.242  0.3046  0.6456  0.2170
 7674SOL    HW135000   9.453   3.079   4.304  0.7573 -0.5959 -0.9615
 7674SOL    HW235001   9.429   3.203   4.221  1.2512  0.2085  0.0694
 7675SOL     OW35002   1.646   1.940   6.831  0.5095 -0.2901 -0.8781
 7675SOL    HW135003   1.662   1.944   6.737  0.6061 -1.4438 -0.9262
 7675SOL    HW235004   1.720   1.985   6.871  1.6236 -1.6970 -1.2842
 7676SOL     OW35005   3.220   4.974   8.886  0.1779  0.9975  0.4172
 7676SOL    HW135006   3.263   5.056   8.912 -0.6381  1.4354  0.3965
 7676SOL    HW235007   3.207   4.983   8.792  1.2504  0.2824  0.1743
 7677SOL     OW35008   5.510   3.469   8.555 -0.1821 -0.2063  0.1281
 7677SOL    HW135009   5.420   3.488   8.583  0.3686 -0.0809  1.9111
 7677SOL    HW235010   5.529   3.534   8.487 -1.4773 -0.3377 -0.3911
 7678SOL     OW35011   8.258   6.035   2.458  0.1893  0.2340 -0.3717
 7678SOL    HW135012   8.271   6.128   2.477 -0.5898  0.0021  1.5073
 7678SOL    HW235013   8.340   6.007   2.418  2.1884  0.7651  2.9854
 7679SOL     OW35014   1.165   9.664   8.899  0.3635  0.5773  0.3578
 7679SOL    HW135015   1.110   9.711   8.961 -0.9379 -0.4780  0.0466
 7679SOL    HW235016   1.129   9.687   8.813  1.2902  0.9527  0.0523
 7680SOL     OW35017   3.866   7.920   2.714 -0.0753 -0.1883  0.0504
 7680SOL    HW135018   3.788   7.974   2.709  0.2395  0.7129  3.0212
 7680SOL    HW235019   3.929   7.964   2.657 -1.2642 -0.1377 -1.2676
 7681SOL     OW35020   1.227   3.858   7.142  0.1801  0.2742 -0.0341
 7681SOL    HW135021   1.208   3.794   7.211  0.0838  0.9882  0.6089
 7681SOL    HW235022   1.141   3.891   7.117  0.2876  0.6916  0.1518
 7682SOL     OW35023   9.400   6.152   3.720 -0.3162 -0.4507 -0.3718
 7682SOL    HW135024   9.327   6.103   3.681 -0.9316 -0.2212  0.4504
 7682SOL    HW235025   9.426   6.099   3.795  0.4272 -0.5652 -0.7022
 7683SOL     OW35026   3.084   5.136   9.296  0.5240 -0.2438 -0.3548
 7683SOL    HW135027   3.070   5.219   9.342 -0.3439  0.7262 -2.2308
 7683SOL    HW235028   3.177   5.120   9.304  1.1903  2.2187 -1.9180
 7684SOL     OW35029   6.131   1.765   9.664  0.1340 -0.2310 -0.0411
 7684SOL    HW135030   6.165   1.696   9.720  1.7397  0.3099 -0.2860
 7684SOL    HW235031   6.209   1.813   9.635 -0.7485  0.3246 -1.6457
 7685SOL     OW35032   8.153   8.346   9.524  0.2262 -0.5180  0.4778
 7685SOL    HW135033   8.180   8.295   9.448 -0.7981  1.1658 -1.1157
 7685SOL    HW235034   8.058   8.353   9.516 -0.0973 -1.4816  2.7396
 7686SOL     OW35035   5.240   0.723   7.481 -0.1044  0.2468 -0.1477
 7686SOL    HW135036   5.208   0.633   7.485  1.2998 -0.3130 -0.8218
 7686SOL    HW235037   5.161   0.777   7.482 -0.9663 -0.9858  0.2325
 7687SOL     OW35038   1.607   2.188   8.802 -0.4871  0.1792  0.6975
 7687SOL    HW135039   1.653   2.259   8.845  1.0149 -0.9038  0.9472
 7687SOL    HW235040   1.571   2.135   8.873 -0.6074  0.0454  0.5410
 7688SOL     OW35041   2.135   0.143   8.560  0.4228 -0.5736 -0.0208
 7688SOL    HW135042   2.046   0.132   8.526  0.5031 -0.0659 -0.4019
 7688SOL    HW235043   2.173   0.212   8.506  0.6854 -0.0265  0.8425
 7689SOL     OW35044   0.290   8.122   1.649  0.0607  0.0409  0.0053
 7689SOL    HW135045   0.237   8.042   1.648 -1.8886  1.2609 -1.1441
 7689SOL    HW235046   0.331   8.124   1.562 -0.9435  0.9104 -0.4652
 7690SOL     OW35047  10.362  10.200   3.334  0.0265 -0.2075  0.0480
 7690SOL    HW135048  10.431  10.150   3.378 -1.8425 -1.7066  1.4602
 7690SOL    HW235049  10.393  10.290   3.336  1.4631 -0.6799  1.6162
 7691SOL     OW35050   2.831   3.000   2.713  0.0362  0.4909 -0.0795
 7691SOL    HW135051   2.765   3.054   2.757  0.6037  0.5552  0.7107
 7691SOL    HW235052   2.782   2.926   2.677 -0.6369  1.1345 -0.5251
 7692SOL     OW35053   8.445   7.499   0.946  0.0859 -0.5612  0.0759
 7692SOL    HW135054   8.533   7.527   0.920 -0.3030  0.0177 -0.6711
 7692SOL    HW235055   8.442   7.512   1.041  0.9200 -0.9328  0.1582
 7693SOL     OW35056   1.112   3.140   2.888 -0.1535  0.1146  0.3523
 7693SOL    HW135057   1.125   3.050   2.917  0.3396 -0.0712 -0.4062
 7693SOL    HW235058   1.033   3.136   2.834 -0.2167  0.1696  0.4400
 7694SOL     OW35059   0.833   0.777   3.963  0.2025  0.1114 -0.5974
 7694SOL    HW135060   0.923   0.754   3.983  0.1526  1.2289  1.0787
 7694SOL    HW235061   0.807   0.714   3.896  1.7652 -1.1430 -0.0942
 7695SOL     OW35062   6.964   7.974   1.290  0.3641 -0.1438  0.2143
 7695SOL    HW135063   6.990   7.928   1.370  0.0629  0.7683  0.8542
 7695SOL    HW235064   7.044   8.015   1.257  0.3184  0.2164  0.5469
 7696SOL     OW35065   8.728   5.593   4.440  0.1924  0.4428 -0.0876
 7696SOL    HW135066   8.714   5.505   4.405 -0.8588  0.4366  0.3030
 7696SOL    HW235067   8.819   5.613   4.421 -0.6154  1.0329 -4.1349
 7697SOL     OW35068   9.129   5.136   9.092 -0.0871  0.7690 -0.0862
 7697SOL    HW135069   9.102   5.225   9.070  0.5840  0.7578 -0.9890
 7697SOL    HW235070   9.224   5.138   9.088 -0.0709 -0.0282 -0.2670
 7698SOL     OW35071   6.327   4.936   1.718  0.5080  0.0328  0.0579
 7698SOL    HW135072   6.277   4.858   1.740 -1.3623  1.1724  0.0124
 7698SOL    HW235073   6.269   4.987   1.661  0.9158  2.3215  1.5773
 7699SOL     OW35074   7.642   4.103   4.090  0.6574  0.3349  0.3466
 7699SOL    HW135075   7.707   4.167   4.062 -0.2780  0.5032 -1.6622
 7699SOL    HW235076   7.558   4.143   4.068 -0.0066 -0.9884  0.3475
 7700SOL     OW35077   3.011   8.575   2.738  0.2640  0.0158 -0.5172
 7700SOL    HW135078   2.916   8.567   2.736  0.1219  1.2168  0.1763
 7700SOL    HW235079   3.039   8.513   2.805 -0.1698  0.5447  0.1778
 7701SOL     OW35080   2.771   0.418   5.543  0.1317  0.0522  0.2684
 7701SOL    HW135081   2.701   0.440   5.482 -1.5123 -0.9526  1.7168
 7701SOL    HW235082   2.782   0.497   5.596  1.3463  0.8160 -1.0578
 7702SOL     OW35083   3.790   9.690   7.564 -0.6283  0.0593  0.1471
 7702SOL    HW135084   3.769   9.699   7.471  2.5554 -1.4113 -0.8480
 7702SOL    HW235085   3.736   9.756   7.607 -1.2155  1.7482 -2.8883
 7703SOL     OW35086  10.010  10.110   1.070  0.0930  0.5043 -0.1176
 7703SOL    HW135087  10.006  10.018   1.095  1.0988  0.5436  0.2535
 7703SOL    HW235088   9.933  10.124   1.015  0.0496 -0.6125 -0.3590
 7704SOL     OW35089   1.413   5.922   7.583 -0.2064 -0.1845 -0.4617
 7704SOL    HW135090   1.363   5.907   7.503 -0.2167  1.2707 -0.7538
 7704SOL    HW235091   1.483   5.982   7.557 -1.2479  1.7444  0.9545
 7705SOL     OW35092   0.449   3.363   9.286  0.1643  0.0007 -0.2515
 7705SOL    HW135093   0.521   3.424   9.298 -1.2750  1.6776  0.2137
 7705SOL    HW235094   0.471   3.316   9.205  1.2732  1.2057 -0.6892
 7706SOL     OW35095   1.517   0.558   9.284 -0.1206 -0.0089 -0.3650
 7706SOL    HW135096   1.451   0.545   9.352 -1.9380  0.2849 -1.9797
 7706SOL    HW235097   1.502   0.486   9.222  0.9768  0.1604 -0.8487
 7707SOL     OW35098   9.126   4.434   7.847 -0.5453 -0.6614  0.0457
 7707SOL    HW135099   9.057   4.453   7.783  0.0587 -0.0066 -0.4268
 7707SOL    HW235100   9.181   4.369   7.803 -0.2259 -0.3401 -0.0263
 7708SOL     OW35101   1.756   8.370   5.615 -0.1926  0.2270 -0.1495
 7708SOL    HW135102   1.781   8.283   5.646  0.3549 -0.1087 -1.4713
 7708SOL    HW235103   1.761   8.364   5.519 -0.9728  1.4688 -0.2903
 7709SOL     OW35104   4.870   2.357   4.414 -0.5230 -0.4274  0.4030
 7709SOL    HW135105   4.924   2.407   4.475 -1.6277  2.8240 -1.0482
 7709SOL    HW235106   4.787   2.405   4.410 -1.7048 -2.4193 -1.1568
 7710SOL     OW35107   1.443  10.382   7.280  0.2977  0.6411 -0.7194
 7710SOL    HW135108   1.357  10.342   7.268  0.0485  0.6727  0.7802
 7710SOL    HW235109   1.479  10.388   7.191 -0.6035 -0.7842 -1.2223
 7711SOL     OW35110   6.747   3.631   6.175  0.1408 -0.6609  0.6718
 7711SOL    HW135111   6.840   3.612   6.172 -0.1156 -1.9711 -1.7463
 7711SOL    HW235112   6.705   3.554   6.136 -1.8338  0.5375  0.2531
 7712SOL     OW35113   4.635   8.475   9.669  0.7545 -0.4685 -0.4571
 7712SOL    HW135114   4.548   8.512   9.656 -0.0834 -0.8625  2.9656
 7712SOL    HW235115   4.696   8.542   9.637 -0.7602  0.4092 -1.6218
 7713SOL     OW35116   2.184   6.062  10.190 -0.8782 -0.0201 -0.3682
 7713SOL    HW135117   2.159   6.048  10.282 -1.5108 -0.9002 -0.6644
 7713SOL    HW235118   2.127   6.133  10.161  2.0498  3.2048  1.0151
 7714SOL     OW35119   2.895   7.757   9.703 -0.3283 -0.5442 -0.3574
 7714SOL    HW135120   2.864   7.780   9.791  1.0809  0.5278 -0.1005
 7714SOL    HW235121   2.844   7.813   9.644 -0.3413 -0.2904 -0.1074
 7715SOL     OW35122   7.318   7.665   4.827 -0.1993 -0.2182  0.1015
 7715SOL    HW135123   7.271   7.686   4.908 -2.4405 -0.8712 -0.9195
 7715SOL    HW235124   7.295   7.573   4.810  1.5469 -0.5767 -0.4517
 7716SOL     OW35125   4.061   4.331   8.609 -0.0699  0.2775  0.1552
 7716SOL    HW135126   4.002   4.366   8.675 -0.3735  1.4408 -0.7102
 7716SOL    HW235127   4.022   4.247   8.584 -0.3412  0.1708  0.9026
 7717SOL     OW35128   7.262   1.175   3.196  0.6535  0.4355 -0.5858
 7717SOL    HW135129   7.235   1.136   3.113  0.0359 -2.8940  0.9952
 7717SOL    HW235130   7.345   1.131   3.216  1.3172  1.9477  0.1114
 7718SOL     OW35131   0.690   0.117   8.222  0.2831 -0.8435  0.0830
 7718SOL    HW135132   0.620   0.157   8.274  1.5184  0.1417  1.0439
 7718SOL    HW235133   0.718   0.185   8.162 -0.2470 -1.5668 -1.0093
 7719SOL     OW35134   8.818   3.775   8.642  0.0282 -0.0998  0.2480
 7719SOL    HW135135   8.723   3.777   8.629  0.1219  2.1595 -0.4475
 7719SOL    HW235136   8.854   3.807   8.559  1.4314 -1.1379  0.4205
 7720SOL     OW35137   7.095   3.383   8.763  0.2660  0.3110 -0.3512
 7720SOL    HW135138   7.136   3.461   8.724  0.6692 -0.0560 -0.6688
 7720SOL    HW235139   7.129   3.310   8.712  0.3720 -0.1322  0.3392
 7721SOL     OW35140   6.529   8.526   9.194  0.3573  0.5178 -0.1939
 7721SOL    HW135141   6.488   8.541   9.280 -1.1921  0.3133 -0.8552
 7721SOL    HW235142   6.460   8.548   9.131  1.5309  0.8673 -1.4099
 7722SOL     OW35143   9.802   7.987   5.540  0.0732  0.4658 -0.5023
 7722SOL    HW135144   9.890   7.994   5.503 -0.3787 -0.8309 -1.9384
 7722SOL    HW235145   9.812   7.930   5.616  0.6686  1.4257  0.1661
 7723SOL     OW35146   3.218   6.547   7.815 -0.1034 -0.1003 -0.2417
 7723SOL    HW135147   3.312   6.564   7.810  0.6786 -3.2142  1.3352
 7723SOL    HW235148   3.187   6.603   7.886  1.0808 -0.7257  0.8091
 7724SOL     OW35149   8.606   9.744   5.728 -0.1057  0.2764 -0.4824
 7724SOL    HW135150   8.628   9.768   5.818  1.5636 -1.2928 -0.4046
 7724SOL    HW235151   8.681   9.772   5.676  0.3516 -1.5475 -0.8809
 7725SOL     OW35152   9.713   2.053  10.193 -0.3522  0.1432 -0.0625
 7725SOL    HW135153   9.637   2.097  10.229  0.1516 -0.0680  1.3149
 7725SOL    HW235154   9.686   1.962  10.184 -0.4979  0.2071 -0.2677
 7726SOL     OW35155   6.268   0.315   5.455  0.2195  0.2098  0.2417
 7726SOL    HW135156   6.336   0.251   5.432  0.2159  0.3024 -0.0243
 7726SOL    HW235157   6.205   0.310   5.384  0.1056  0.3523  0.3318
 7727SOL     OW35158   8.636   6.907  10.311  0.0628  0.1182 -0.1928
 7727SOL    HW135159   8.561   6.960  10.340  1.0197  0.9150  0.9372
 7727SOL    HW235160   8.702   6.972  10.287  0.6717 -0.5783 -0.4040
 7728SOL     OW35161   6.479   1.477   3.605 -0.4522 -0.3286 -0.2205
 7728SOL    HW135162   6.553   1.485   3.545 -1.4238  1.6266 -1.2537
 7728SOL    HW235163   6.407   1.447   3.550 -0.5011 -2.1551  0.7662
 7729SOL     OW35164   9.281   7.426   8.463  0.5050 -0.3916 -0.3356
 7729SOL    HW135165   9.369   7.449   8.491  0.7958 -0.4628 -1.1489
 7729SOL    HW235166   9.245   7.508   8.428  0.3405 -0.4193 -0.2345
 7730SOL     OW35167   9.703   5.992   7.327 -0.1286  0.3800  0.4251
 7730SOL    HW135168   9.650   5.978   7.405 -0.2146 -0.0013  0.3010
 7730SOL    HW235169   9.643   6.030   7.263 -0.2791 -0.1476  0.2508
 7731SOL     OW35170   3.493   4.991   1.099 -0.3469  0.0789 -0.0606
 7731SOL    HW135171   3.409   5.032   1.081 -0.5282 -0.0555  0.4453
 7731SOL    HW235172   3.522   5.032   1.181  0.8136  1.2478 -1.0046
 7732SOL     OW35173   3.394   6.093   1.338  0.3832 -0.0261  0.2499
 7732SOL    HW135174   3.384   6.013   1.288  0.8392 -0.8686  1.4543
 7732SOL    HW235175   3.385   6.163   1.274 -2.3639 -0.9401 -0.4837
 7733SOL     OW35176   5.292   3.714   6.511  0.7287 -0.1985  0.3424
 7733SOL    HW135177   5.342   3.786   6.551 -0.3579  0.9257 -0.2616
 7733SOL    HW235178   5.290   3.734   6.418 -0.7728 -0.2281  0.3356
 7734SOL     OW35179   9.792   5.230   9.648 -0.2551  0.0264  0.3151
 7734SOL    HW135180   9.775   5.176   9.725 -0.1508 -1.9572 -0.9704
 7734SOL    HW235181   9.804   5.167   9.577  0.4216  1.7534 -1.1855
 7735SOL     OW35182   8.802  10.150   9.657 -0.5338  0.7407  0.1431
 7735SOL    HW135183   8.714  10.134   9.693 -1.0454 -2.0807 -1.9807
 7735SOL    HW235184   8.789  10.221   9.595 -0.8170  1.8093  1.3818
 7736SOL     OW35185   8.517   9.612   3.368 -0.4641 -0.4533  0.0985
 7736SOL    HW135186   8.436   9.652   3.335 -1.0913 -0.9045  1.0280
 7736SOL    HW235187   8.554   9.567   3.293  0.1378  1.6201 -0.9365
 7737SOL     OW35188   0.083   9.905   0.979 -0.1514 -0.2138  0.4650
 7737SOL    HW135189   0.112   9.813   0.982 -0.8359 -0.4299  2.5885
 7737SOL    HW235190  -0.013   9.899   0.981 -0.2107  0.5480 -0.0309
 7738SOL     OW35191   3.022   7.679   6.391 -0.6352 -0.2606 -0.4874
 7738SOL    HW135192   3.103   7.669   6.441  0.8347 -4.5642 -3.2376
 7738SOL    HW235193   2.980   7.593   6.394 -2.3602  0.3303 -3.5253
 7739SOL     OW35194   5.198   6.230   8.547 -0.8880 -0.0029  0.6355
 7739SOL    HW135195   5.113   6.265   8.573 -0.0000  1.3296  1.9527
 7739SOL    HW235196   5.251   6.307   8.528 -0.0365 -0.8153 -0.4232
 7740SOL     OW35197   8.884  10.296   6.060  0.1934  0.2988  0.5069
 7740SOL    HW135198   8.833  10.312   6.139 -1.7597 -0.9125 -0.4321
 7740SOL    HW235199   8.867  10.373   6.005 -1.6864 -0.5958 -0.2707
 7741SOL     OW35200   0.068   5.353   7.295  0.5673  0.0438 -0.3021
 7741SOL    HW135201   0.001   5.420   7.306 -0.2476 -0.7545 -0.2956
 7741SOL    HW235202   0.090   5.326   7.384 -0.3468 -0.8870 -0.3421
 7742SOL     OW35203   5.009   4.653  10.279 -0.1484  0.5273  0.1640
 7742SOL    HW135204   5.009   4.614  10.192 -0.0531  0.9363 -0.0203
 7742SOL    HW235205   5.072   4.601  10.330 -0.8865 -0.3048  0.2588
 7743SOL     OW35206   6.801   6.593   9.957  0.1051 -0.3771 -0.0961
 7743SOL    HW135207   6.857   6.634  10.023 -2.0823  0.5307  1.3099
 7743SOL    HW235208   6.758   6.665   9.913  1.5897 -0.9619 -2.7328
 7744SOL     OW35209   0.027   0.537   5.299  0.8353  0.1002 -0.2055
 7744SOL    HW135210   0.068   0.621   5.279 -0.4788  0.7356 -0.3313
 7744SOL    HW235211  -0.004   0.546   5.389  0.5227 -0.1829 -0.2815
 7745SOL     OW35212   1.916   3.009   0.893 -0.3128 -0.2838 -0.1607
 7745SOL    HW135213   1.843   2.999   0.832  0.2469  0.2649 -0.9397
 7745SOL    HW235214   1.994   3.012   0.837  0.1463  1.0119  0.5101
 7746SOL     OW35215   4.306   6.317   2.842 -0.4172 -0.6532 -0.0543
 7746SOL    HW135216   4.375   6.255   2.866 -0.1601  0.1843  1.4993
 7746SOL    HW235217   4.317   6.331   2.748  2.9893  1.1101  0.4566
 7747SOL     OW35218  10.330   5.067   7.393 -0.2043  0.0436 -0.2588
 7747SOL    HW135219  10.381   5.133   7.441  1.3677 -1.2816 -0.0303
 7747SOL    HW235220  10.272   5.118   7.337 -1.8225  1.6744  2.6729
 7748SOL     OW35221   4.535   7.544   1.769  0.4534  0.4123 -0.4348
 7748SOL    HW135222   4.591   7.598   1.824 -0.5620  1.7669 -0.6777
 7748SOL    HW235223   4.456   7.596   1.757 -0.6224 -1.1878 -0.5929
 7749SOL     OW35224   4.560   1.605   9.510  0.0055 -0.4372 -0.7384
 7749SOL    HW135225   4.490   1.551   9.548 -1.2282  0.9058 -1.0335
 7749SOL    HW235226   4.524   1.638   9.428  1.0175  0.2386 -0.9393
 7750SOL     OW35227   2.906   0.196   2.616 -0.0004 -0.6286 -0.2237
 7750SOL    HW135228   2.949   0.229   2.537  0.2537  2.0274  0.9231
 7750SOL    HW235229   2.974   0.147   2.662  0.9778  0.9383  0.0797
 7751SOL     OW35230   9.062   7.901   1.762 -0.1751  0.1758  1.0292
 7751SOL    HW135231   8.995   7.834   1.748  2.3504 -2.3771  0.3931
 7751SOL    HW235232   9.067   7.947   1.678 -0.0123 -0.7376  0.5219
 7752SOL     OW35233   9.492   3.781   9.610  0.5368  0.0053  0.0441
 7752SOL    HW135234   9.425   3.841   9.643  1.6403  1.8561 -0.9493
 7752SOL    HW235235   9.456   3.694   9.628 -1.3013  0.9286  1.1755
 7753SOL     OW35236   1.422   3.504   1.109 -0.4260  0.3186  0.3719
 7753SOL    HW135237   1.496   3.553   1.147 -0.4805  0.8569 -0.2022
 7753SOL    HW235238   1.441   3.413   1.130  0.1877  0.4905  0.6037
 7754SOL     OW35239   1.407   3.965   5.883  0.0576 -0.8135 -0.4932
 7754SOL    HW135240   1.484   3.909   5.878  1.5570  1.0291  0.5881
 7754SOL    HW235241   1.339   3.911   5.924  2.4019 -1.0115  3.6738
 7755SOL     OW35242   3.085   7.696   5.416  0.2678  0.2963 -0.5189
 7755SOL    HW135243   3.058   7.737   5.499  2.2966  0.0268  0.3275
 7755SOL    HW235244   3.007   7.648   5.388 -0.1218 -0.6820  1.9311
 7756SOL     OW35245  10.008   1.044   3.087  0.3985  0.7293 -0.0975
 7756SOL    HW135246  10.020   1.136   3.111 -1.5023  1.0272 -0.1685
 7756SOL    HW235247   9.937   1.014   3.143 -1.6839  0.4151 -2.7266
 7757SOL     OW35248   7.458   9.406   7.180  0.5368  0.3595  0.3467
 7757SOL    HW135249   7.543   9.375   7.212 -0.3362 -1.0152  1.4292
 7757SOL    HW235250   7.455   9.498   7.207  0.6253 -0.2494  2.6684
 7758SOL     OW35251   2.208   7.817   3.698  0.2750  0.0972  0.2683
 7758SOL    HW135252   2.299   7.815   3.669  0.6908 -1.9173  1.5023
 7758SOL    HW235253   2.163   7.755   3.640  0.4009 -1.3507  1.6601
 7759SOL     OW35254   9.424   4.480   4.856  0.7543 -0.4826  0.4800
 7759SOL    HW135255   9.399   4.467   4.765  0.8731 -1.6250  0.6017
 7759SOL    HW235256   9.476   4.560   4.855 -1.0143  0.7274 -0.1193
 7760SOL     OW35257   1.746   9.393   4.527  0.2529 -0.1200 -0.0764
 7760SOL    HW135258   1.762   9.487   4.534  0.7280 -0.2607  0.8729
 7760SOL    HW235259   1.750   9.361   4.618 -0.7451 -0.9198 -0.2926
 7761SOL     OW35260   9.837   3.429   9.706 -0.0616 -0.0145 -0.3569
 7761SOL    HW135261   9.885   3.485   9.767  1.6086 -0.5552 -1.0945
 7761SOL    HW235262   9.824   3.484   9.629  0.4878 -0.2367 -0.6161
 7762SOL     OW35263   3.255   7.581   8.522  0.1989  0.7061  0.2555
 7762SOL    HW135264   3.252   7.522   8.446  0.8347  2.0482 -0.8596
 7762SOL    HW235265   3.267   7.522   8.597 -2.0323 -0.7986 -0.4662
 7763SOL     OW35266   1.197   9.956   7.909 -0.0471  0.2963 -0.1716
 7763SOL    HW135267   1.273   9.944   7.852 -0.2646  0.0395 -0.4104
 7763SOL    HW235268   1.134  10.005   7.857 -1.3691 -2.2877 -1.2044
 7764SOL     OW35269   4.202   0.466   1.285  0.2507 -0.2349  0.4415
 7764SOL    HW135270   4.211   0.560   1.296 -3.3351  0.3780 -0.4524
 7764SOL    HW235271   4.227   0.450   1.194  1.4370 -0.2987  0.7617
 7765SOL     OW35272   7.990  10.306   0.443  0.4552  0.3396  0.0877
 7765SOL    HW135273   8.017  10.333   0.531 -1.5503  1.1341  0.5159
 7765SOL    HW235274   7.965  10.387   0.399 -2.5218 -0.3591  0.2517
 7766SOL     OW35275   7.526   6.483   9.483  0.0855 -0.2128 -0.8289
 7766SOL    HW135276   7.521   6.468   9.577  0.0275 -0.3309 -0.8516
 7766SOL    HW235277   7.604   6.436   9.455  2.2454  2.7365 -0.2558
 7767SOL     OW35278   6.608   7.119   8.429  0.1506  0.0187  0.0819
 7767SOL    HW135279   6.527   7.125   8.378  0.0691 -1.8007 -0.0680
 7767SOL    HW235280   6.593   7.174   8.506 -1.1099 -0.0512 -0.1007
 7768SOL     OW35281   9.289   1.271   5.921  0.6729  0.2615 -0.3684
 7768SOL    HW135282   9.213   1.269   5.863  1.0120 -0.2937 -0.8062
 7768SOL    HW235283   9.264   1.218   5.996 -0.1313  1.7705  0.4841
 7769SOL     OW35284   6.322   7.962   5.538 -0.2452 -0.3808  0.3082
 7769SOL    HW135285   6.386   8.033   5.546  0.6216 -0.8516 -1.8385
 7769SOL    HW235286   6.322   7.921   5.624  0.4169  1.2122  1.1263
 7770SOL     OW35287   0.641   7.157   7.526 -0.2610  0.0899  0.2203
 7770SOL    HW135288   0.566   7.106   7.494  0.2288 -1.1435  0.9923
 7770SOL    HW235289   0.646   7.231   7.466 -0.1324 -1.4762 -1.8046
 7771SOL     OW35290   2.051   4.278   8.855  0.4799  0.1570 -0.4743
 7771SOL    HW135291   1.983   4.341   8.878  0.9845  0.7694 -0.6288
 7771SOL    HW235292   2.077   4.238   8.938 -1.1425 -1.2199 -0.5807
 7772SOL     OW35293   4.302   6.885   7.271 -0.4712  0.2057  0.3411
 7772SOL    HW135294   4.361   6.924   7.206 -1.8970 -0.4375 -1.4366
 7772SOL    HW235295   4.306   6.944   7.346  2.2955  0.2319  0.2468
 7773SOL     OW35296   0.647   8.806   5.537  0.0448 -0.1680  0.1243
 7773SOL    HW135297   0.735   8.772   5.556  0.1574  1.0074  1.8752
 7773SOL    HW235298   0.603   8.734   5.491  1.7994 -0.9006 -0.5003
 7774SOL     OW35299   8.263   4.262   4.547  0.1035 -0.0286 -0.2974
 7774SOL    HW135300   8.347   4.307   4.539 -0.5660  0.9494 -2.9917
 7774SOL    HW235301   8.208   4.301   4.479 -1.4706 -2.9263 -0.8739
 7775SOL     OW35302   7.305   2.109   8.324  0.2254 -0.3982 -0.1337
 7775SOL    HW135303   7.339   2.025   8.294 -0.2347 -0.5376 -0.2832
 7775SOL    HW235304   7.324   2.170   8.253 -0.3597 -0.6048 -0.4750
 7776SOL     OW35305   7.882   9.712   4.979  0.6288 -0.2702  0.1849
 7776SOL    HW135306   7.938   9.685   5.052  1.9124 -0.6408 -0.8952
 7776SOL    HW235307   7.826   9.780   5.015  2.2718  0.6233  1.1507
 7777SOL     OW35308   3.388   9.761   3.717 -0.3012 -0.2011  0.2921
 7777SOL    HW135309   3.475   9.780   3.681  0.5743 -1.4475  1.5980
 7777SOL    HW235310   3.386   9.665   3.723 -1.7777 -0.1847  0.2770
 7778SOL     OW35311  10.094   9.785   7.033 -0.4501 -0.3932  0.6320
 7778SOL    HW135312  10.062   9.695   7.033  0.0151 -0.5774 -0.4079
 7778SOL    HW235313  10.034   9.832   6.976 -0.6916 -0.0433  1.1727
 7779SOL     OW35314   4.087   9.755   2.525  1.2402  1.0904 -0.6377
 7779SOL    HW135315   4.102   9.671   2.481 -1.0945  0.3370 -0.2010
 7779SOL    HW235316   4.053   9.812   2.456  0.6367  0.9161 -0.4969
 7780SOL     OW35317   2.561   2.880   5.323 -0.4689 -0.5078  0.2422
 7780SOL    HW135318   2.579   2.937   5.248 -0.1271 -0.0513  0.6633
 7780SOL    HW235319   2.591   2.793   5.294 -0.6240 -0.3992 -0.2581
 7781SOL     OW35320   1.113   8.786   0.549 -0.2642 -0.6860  0.1889
 7781SOL    HW135321   1.146   8.734   0.621 -0.6434 -1.3657 -0.1247
 7781SOL    HW235322   1.027   8.816   0.577  0.5422  1.0719  0.9984
 7782SOL     OW35323   8.817   4.707   6.063  0.1042  0.4415  0.0504
 7782SOL    HW135324   8.813   4.801   6.077 -0.5230  0.1972  1.7411
 7782SOL    HW235325   8.910   4.685   6.077  0.5003  0.9503 -1.6007
 7783SOL     OW35326   6.377   4.306   4.320  0.6667 -0.0169 -0.0089
 7783SOL    HW135327   6.457   4.322   4.270  0.9080 -0.8816  0.0872
 7783SOL    HW235328   6.383   4.214   4.347 -1.0418 -0.5391 -1.2450
 7784SOL     OW35329   7.861   9.019   6.694  0.5074 -0.1107 -0.1970
 7784SOL    HW135330   7.920   8.945   6.674 -0.9231 -1.5135  0.6021
 7784SOL    HW235331   7.858   9.022   6.789 -0.3137  0.2652 -0.2317
 7785SOL     OW35332   0.821   3.017   3.434  0.3460  0.0889 -0.0654
 7785SOL    HW135333   0.879   2.989   3.505  0.3342  1.1137  0.3749
 7785SOL    HW235334   0.875   3.077   3.382  0.4298 -0.8407 -1.0746
 7786SOL     OW35335   5.711   3.046   8.162 -0.0386 -0.2352  0.3678
 7786SOL    HW135336   5.652   3.109   8.121 -0.0735 -1.9197 -2.4411
 7786SOL    HW235337   5.653   2.986   8.209 -0.2639  0.0432  0.4510
 7787SOL     OW35338   0.506   1.533  10.092 -0.1743 -0.2468 -0.5459
 7787SOL    HW135339   0.427   1.478  10.093 -0.6209  0.3619 -1.2927
 7787SOL    HW235340   0.578   1.471  10.106 -0.8590 -0.6321  1.5756
 7788SOL     OW35341   8.460   5.302   5.992 -0.0899 -0.1965  0.2792
 7788SOL    HW135342   8.535   5.282   5.936  1.1341 -1.2576  2.1978
 7788SOL    HW235343   8.478   5.390   6.026  0.7767 -0.8066  1.4440
 7789SOL     OW35344   9.815   0.855   4.071 -0.0953  0.1402  0.2418
 7789SOL    HW135345   9.765   0.810   4.003 -0.2003 -0.5924  0.7932
 7789SOL    HW235346   9.833   0.788   4.136 -0.9064  1.0539  1.4571
 7790SOL     OW35347   1.163   8.876   7.636  0.0304 -0.0206 -0.2095
 7790SOL    HW135348   1.136   8.952   7.585 -1.2694  0.5324  1.2098
 7790SOL    HW235349   1.112   8.882   7.717  2.4739 -0.4549  1.4741
 7791SOL     OW35350   8.672   9.884   5.950  0.2830  0.7442 -0.1501
 7791SOL    HW135351   8.755   9.924   5.924  1.4290 -1.4267 -0.0939
 7791SOL    HW235352   8.668   9.898   6.045 -0.5283  2.7067 -0.4219
 7792SOL     OW35353   0.693   3.057   9.300 -0.8103 -0.0658 -0.8049
 7792SOL    HW135354   0.788   3.047   9.295 -0.6236  0.2689  1.1953
 7792SOL    HW235355   0.671   3.034   9.390 -2.4459  1.3409 -0.8010
 7793SOL     OW35356   8.100   1.032   4.830  0.5913  0.0548  0.1827
 7793SOL    HW135357   8.105   0.944   4.792  0.2395  0.1077  0.0101
 7793SOL    HW235358   8.008   1.042   4.855  0.8049  0.0431  1.0091
 7794SOL     OW35359   7.225   5.030   4.544 -0.0434 -0.2091 -0.5690
 7794SOL    HW135360   7.269   4.960   4.496  1.8651  1.4959 -1.4377
 7794SOL    HW235361   7.292   5.065   4.602 -1.1328  0.5597  0.2661
 7795SOL     OW35362   1.119   8.005   7.085  0.1898  0.2362 -0.0331
 7795SOL    HW135363   1.173   8.068   7.133 -0.1880 -0.7648  1.7634
 7795SOL    HW235364   1.179   7.966   7.021  0.3681  2.5469 -1.3898
 7796SOL     OW35365   1.258   6.019   7.999  0.2749  0.4116  0.2484
 7796SOL    HW135366   1.293   5.965   7.928 -0.5887  0.1314  0.0209
 7796SOL    HW235367   1.253   5.961   8.074  0.3296  0.4578  0.2874
 7797SOL     OW35368   7.583   1.588   7.751  0.0711  0.0208 -0.8019
 7797SOL    HW135369   7.642   1.516   7.774  0.6108  0.7140  0.0859
 7797SOL    HW235370   7.539   1.559   7.671 -2.6004 -2.9539  1.5075
 7798SOL     OW35371   4.676   0.839   8.720  0.1906 -0.1748 -0.0395
 7798SOL    HW135372   4.754   0.785   8.709  0.7598  0.5935  0.1898
 7798SOL    HW235373   4.693   0.891   8.798  0.4909  1.7476 -1.3318
 7799SOL     OW35374   7.053   9.417   8.687 -0.0219 -0.1380  0.2618
 7799SOL    HW135375   7.126   9.370   8.646 -0.9530 -0.6585 -0.8622
 7799SOL    HW235376   7.091   9.456   8.765  0.9757 -2.2147  0.9025
 7800SOL     OW35377   6.368   9.292   8.712  0.3192  0.2072  0.1344
 7800SOL    HW135378   6.410   9.374   8.687  0.4103 -0.1517 -0.9752
 7800SOL    HW235379   6.357   9.245   8.629  0.5322 -1.0220  0.7817
 7801SOL     OW35380   5.706   7.147   8.978 -0.2448 -0.1852  0.0987
 7801SOL    HW135381   5.629   7.138   8.922 -0.3267 -2.5957  0.4865
 7801SOL    HW235382   5.780   7.152   8.918 -0.6621  3.1498 -0.3139
 7802SOL     OW35383   0.822   8.842   9.510 -0.3415 -0.7508 -0.2791
 7802SOL    HW135384   0.823   8.798   9.595 -0.4792 -2.6156 -1.1813
 7802SOL    HW235385   0.821   8.935   9.531 -0.2701 -1.1570  1.7506
 7803SOL     OW35386   6.826   8.930   0.023  0.1781  0.2529  0.0247
 7803SOL    HW135387   6.763   8.866  -0.008  0.9294 -0.8286  0.6310
 7803SOL    HW235388   6.877   8.955  -0.054  1.5135 -1.8040  0.1774
 7804SOL     OW35389   4.934   9.220   5.985  0.8094  0.0686 -0.8360
 7804SOL    HW135390   4.974   9.251   6.066 -2.1176  1.9704  0.0239
 7804SOL    HW235391   4.901   9.133   6.007  1.1436  0.0445 -0.4101
 7805SOL     OW35392   7.941   0.891   2.347 -0.1798  0.8243  0.2323
 7805SOL    HW135393   7.852   0.924   2.340 -0.1816  1.0769  1.2453
 7805SOL    HW235394   7.973   0.926   2.431  0.3854 -0.4222  0.5583
 7806SOL     OW35395   4.644   9.838   6.781  0.3672 -0.7338 -0.2752
 7806SOL    HW135396   4.579   9.799   6.839 -0.8891  1.8177  0.1829
 7806SOL    HW235397   4.606   9.831   6.694 -0.8863  1.1720  0.0396
 7807SOL     OW35398   9.405   8.243   1.357  0.2163 -0.1269 -0.5712
 7807SOL    HW135399   9.348   8.213   1.428 -0.9458 -0.3357 -1.5694
 7807SOL    HW235400   9.422   8.165   1.305  0.7338  0.1064 -0.7626
 7808SOL     OW35401   7.156   8.127   8.806 -0.0595 -0.4483  0.0867
 7808SOL    HW135402   7.234   8.163   8.847 -0.3097  2.2102 -1.5462
 7808SOL    HW235403   7.085   8.147   8.867 -0.2049  2.1748 -0.7919
 7809SOL     OW35404   1.431   9.632   2.840  0.6554  0.7182  0.4983
 7809SOL    HW135405   1.352   9.625   2.895  0.1928 -0.2199 -0.2566
 7809SOL    HW235406   1.400   9.616   2.751  1.1902  3.3559 -0.2681
 7810SOL     OW35407   9.869   0.128   6.805 -0.3615  0.5671 -0.1493
 7810SOL    HW135408   9.894   0.104   6.716 -0.5842 -1.9050  0.3663
 7810SOL    HW235409   9.901   0.056   6.859  0.6667  2.4903  1.9520
 7811SOL     OW35410   7.665   8.773   1.651  0.2452 -0.1127 -0.1840
 7811SOL    HW135411   7.671   8.802   1.742 -0.5077  1.0500 -0.4766
 7811SOL    HW235412   7.737   8.711   1.640 -0.6425 -1.5903  1.6589
 7812SOL     OW35413   7.125   3.636   1.402 -0.6421 -0.3501  0.2918
 7812SOL    HW135414   7.200   3.694   1.406 -0.9992  0.3543 -1.7346
 7812SOL    HW235415   7.061   3.674   1.462 -0.6109  1.0116 -0.4873
 7813SOL     OW35416   2.237   8.816   8.532 -0.0968  0.2896  0.1378
 7813SOL    HW135417   2.221   8.841   8.441  0.6597  0.9940  0.1817
 7813SOL    HW235418   2.318   8.862   8.555 -0.0422 -0.2343  1.0292
 7814SOL     OW35419   2.771   1.346   7.810  0.2513  0.0115 -0.0183
 7814SOL    HW135420   2.818   1.417   7.766  1.6450  1.1490  3.0624
 7814SOL    HW235421   2.679   1.371   7.804  0.0460 -1.0063 -3.9864
 7815SOL     OW35422   4.510   1.014   1.125 -0.6268  0.1127 -0.4129
 7815SOL    HW135423   4.555   0.952   1.068 -1.7984 -1.9783  0.8206
 7815SOL    HW235424   4.552   1.005   1.210 -2.9969 -1.6608  0.6864
 7816SOL     OW35425   3.425   3.918  10.117  0.2135 -0.2723  0.3834
 7816SOL    HW135426   3.332   3.937  10.131  0.4735  0.4239  1.1828
 7816SOL    HW235427   3.458   3.994  10.068  0.3153 -0.6265 -0.1058
 7817SOL     OW35428   1.668   2.507   2.062 -0.2845 -0.3859  0.3809
 7817SOL    HW135429   1.605   2.579   2.067  0.8272  0.6573 -0.2010
 7817SOL    HW235430   1.614   2.428   2.064 -1.5552  0.4555  0.6714
 7818SOL     OW35431  10.209   1.844   7.051  0.0896  0.4199  0.0438
 7818SOL    HW135432  10.292   1.860   7.095 -0.5899  1.3160  1.0481
 7818SOL    HW235433  10.209   1.904   6.976  1.3763 -1.3145 -1.4397
 7819SOL     OW35434   1.291   5.624   0.143 -0.1914 -0.7722 -0.4047
 7819SOL    HW135435   1.302   5.567   0.067  1.8960 -1.2028  0.1621
 7819SOL    HW235436   1.210   5.594   0.184 -0.0052 -2.2321 -1.0521
 7820SOL     OW35437   4.490   7.220   9.051  0.1672  0.4307  0.2941
 7820SOL    HW135438   4.472   7.145   9.109 -0.4503 -0.7676 -1.3708
 7820SOL    HW235439   4.408   7.235   9.005  1.3580 -0.5539 -2.3445
 7821SOL     OW35440   7.069   8.750   1.905 -0.3954 -0.1543 -0.0671
 7821SOL    HW135441   7.039   8.812   1.839 -1.0949 -3.2916 -2.9761
 7821SOL    HW235442   7.150   8.788   1.939 -0.4211  2.0139 -2.1903
 7822SOL     OW35443   8.776   7.117  10.257 -0.5388 -0.2290  0.4937
 7822SOL    HW135444   8.847   7.112  10.192 -0.8589 -0.5692  0.1722
 7822SOL    HW235445   8.769   7.211  10.276  1.0452 -0.3081  1.6976
 7823SOL     OW35446   4.617   0.521   0.188  0.8147 -0.0555 -0.2297
 7823SOL    HW135447   4.664   0.516   0.271  0.4491  0.9535  0.0445
 7823SOL    HW235448   4.614   0.430   0.157 -0.5900 -0.7132  1.7059
 7824SOL     OW35449  10.123   7.930   9.105  0.3903  0.0938 -0.8720
 7824SOL    HW135450  10.179   7.937   9.028  0.2129 -0.7894 -1.0813
 7824SOL    HW235451  10.090   7.840   9.104  1.3796 -0.3358  0.9171
 7825SOL     OW35452   0.707   0.381   8.495 -0.6453  0.3100  0.1523
 7825SOL    HW135453   0.633   0.343   8.449 -0.5563 -0.3417  0.5383
 7825SOL    HW235454   0.684   0.375   8.588 -0.1469  0.1710  0.2742
 7826SOL     OW35455   5.495  10.298   7.430  0.3054 -1.1297  0.3236
 7826SOL    HW135456   5.474  10.383   7.470  1.1150 -1.6883  2.0155
 7826SOL    HW235457   5.410  10.260   7.408 -0.1266 -0.4344  0.7408
 7827SOL     OW35458   2.604   0.135   7.586  0.7850 -0.2648  0.2920
 7827SOL    HW135459   2.596   0.181   7.669  0.2585  1.6467 -0.7604
 7827SOL    HW235460   2.673   0.070   7.601  1.2828  0.5900  1.9459
 7828SOL     OW35461   2.757   2.844  10.208 -0.1895  0.4758 -0.0901
 7828SOL    HW135462   2.782   2.775  10.269  0.3562  1.1877  0.5187
 7828SOL    HW235463   2.687   2.806  10.155  0.2598 -0.6065  0.0812
 7829SOL     OW35464   6.968   0.573   9.381 -0.5761 -0.4426 -0.1293
 7829SOL    HW135465   6.920   0.519   9.318  0.8580 -1.6589 -0.2352
 7829SOL    HW235466   6.948   0.534   9.466 -1.4212  0.3526  0.0470
 7830SOL     OW35467   1.208   0.168   5.035  0.1016 -0.3614 -0.1079
 7830SOL    HW135468   1.274   0.163   4.966  0.1990 -0.1829 -0.0289
 7830SOL    HW235469   1.126   0.190   4.989  0.5156  1.6070  0.0210
 7831SOL     OW35470   4.862   3.939   2.914 -0.5443  0.0752  0.1878
 7831SOL    HW135471   4.830   3.850   2.930 -1.8397  0.4051 -0.4801
 7831SOL    HW235472   4.854   3.983   2.998  2.3320 -1.0517  1.1735
 7832SOL     OW35473   1.471   8.456   6.503 -0.1906 -0.4199  0.4052
 7832SOL    HW135474   1.459   8.362   6.517 -0.0510 -0.4171  0.5449
 7832SOL    HW235475   1.544   8.463   6.442 -1.4185 -0.4566 -1.1104
 7833SOL     OW35476   3.369   7.220   3.727  0.1544 -0.8599  0.2605
 7833SOL    HW135477   3.276   7.205   3.714 -0.0000  0.5071 -0.4016
 7833SOL    HW235478   3.375   7.261   3.813 -0.2303  1.8088 -0.8911
 7834SOL     OW35479   5.771   0.233   3.418  0.4110  0.2173  0.7810
 7834SOL    HW135480   5.772   0.243   3.323  2.1323  0.0926  0.7557
 7834SOL    HW235481   5.839   0.168   3.436  0.4611  0.6120  2.1302
 7835SOL     OW35482   7.244   4.166   2.251  0.4617  0.6000 -0.9004
 7835SOL    HW135483   7.246   4.234   2.318  0.7521 -1.2492  1.0729
 7835SOL    HW235484   7.159   4.124   2.262  1.7777 -1.9230  0.7681
 7836SOL     OW35485   6.042   0.137   7.152  0.5148 -1.0527  0.0312
 7836SOL    HW135486   6.087   0.077   7.211  1.1275 -2.1659 -1.4884
 7836SOL    HW235487   6.104   0.208   7.136  0.7287 -1.2503 -0.0196
 7837SOL     OW35488   1.379   9.757   0.737  0.7694  0.8604 -0.7469
 7837SOL    HW135489   1.285   9.776   0.734  0.2890 -1.3356 -1.0697
 7837SOL    HW235490   1.413   9.792   0.655 -0.1449  0.0145 -1.5170
 7838SOL     OW35491   6.906   6.573   2.243 -0.1160  0.0290 -0.3700
 7838SOL    HW135492   6.958   6.512   2.295 -1.9667 -1.0347  0.3008
 7838SOL    HW235493   6.864   6.519   2.176  0.1185  0.9643 -1.3051
 7839SOL     OW35494   0.722   5.587   3.584 -0.3772  0.2584  0.6819
 7839SOL    HW135495   0.666   5.510   3.575 -0.4421  0.3429  0.3371
 7839SOL    HW235496   0.772   5.572   3.664 -1.2729  0.4297  1.2805
 7840SOL     OW35497   6.965   6.031   7.432  0.3639 -0.0684 -0.2040
 7840SOL    HW135498   7.046   5.998   7.394  0.3890  2.5500 -2.7482
 7840SOL    HW235499   6.993   6.098   7.494  0.1691 -1.0784  1.0090
 7841SOL     OW35500   1.704   9.569   2.888  0.2293  0.2397  0.5153
 7841SOL    HW135501   1.740   9.530   2.808 -1.4447 -3.4578  1.3324
 7841SOL    HW235502   1.612   9.585   2.868 -0.3798 -1.3654  1.7785
 7842SOL     OW35503   1.880   8.153   6.982 -0.1482 -0.0521 -0.6292
 7842SOL    HW135504   1.904   8.060   6.985  0.0512  0.0276  0.5407
 7842SOL    HW235505   1.956   8.198   7.016 -0.8469  0.4206  0.3451
 7843SOL     OW35506   9.631   8.321   2.318 -0.2134  0.5749 -0.7136
 7843SOL    HW135507   9.720   8.287   2.321  0.0336  1.2016 -0.8167
 7843SOL    HW235508   9.595   8.302   2.405 -0.7334 -1.6338 -1.3636
 7844SOL     OW35509   9.248   4.584   9.204  0.3527 -0.2948 -0.2928
 7844SOL    HW135510   9.334   4.542   9.205  0.7220  0.4377  1.0927
 7844SOL    HW235511   9.265   4.676   9.226 -0.6322  0.1936 -1.4566
 7845SOL     OW35512   5.423   2.596   9.775  0.2359 -0.2102  0.6348
 7845SOL    HW135513   5.493   2.547   9.818  0.3685 -0.3830  0.2248
 7845SOL    HW235514   5.383   2.534   9.714 -1.5614 -0.7282  2.2287
 7846SOL     OW35515   2.231   1.665   9.741  0.3059  0.0750  0.0105
 7846SOL    HW135516   2.181   1.726   9.687  0.6857  0.1443 -0.2652
 7846SOL    HW235517   2.277   1.721   9.804 -0.1235 -0.0043  0.3974
 7847SOL     OW35518   4.886  10.066   3.757  0.1393 -0.1119  0.0612
 7847SOL    HW135519   4.854  10.035   3.672 -2.8545  1.1115  0.6440
 7847SOL    HW235520   4.890  10.161   3.749 -0.8944  0.0847  1.4778
 7848SOL     OW35521   8.978   1.323   3.441 -0.1977 -0.1645 -0.1960
 7848SOL    HW135522   8.990   1.361   3.354  0.9547  1.5485  0.6335
 7848SOL    HW235523   9.067   1.318   3.476 -0.6179 -1.0927  0.7723
 7849SOL     OW35524   8.001   9.964   1.400 -0.3491 -0.6571 -0.2326
 7849SOL    HW135525   8.008  10.002   1.487 -2.1275 -1.1315  0.1641
 7849SOL    HW235526   7.939  10.020   1.353 -1.2122 -1.6889 -0.3913
 7850SOL     OW35527   0.821   6.678   7.694  0.4301  0.1118  0.1959
 7850SOL    HW135528   0.884   6.660   7.764 -0.0305 -0.3362  0.5037
 7850SOL    HW235529   0.786   6.765   7.714 -0.2923 -0.3499  0.9860
 7851SOL     OW35530   0.766   1.242   1.884  0.0359  0.1401  0.1510
 7851SOL    HW135531   0.763   1.243   1.980  2.0557  0.2203  0.2570
 7851SOL    HW235532   0.822   1.168   1.863  0.4780  0.7580 -0.9233
 7852SOL     OW35533   4.029   8.626   1.373  0.2582 -0.0320  0.1123
 7852SOL    HW135534   4.094   8.639   1.303 -2.6747  1.4630 -2.5874
 7852SOL    HW235535   3.970   8.559   1.338 -0.5468 -0.2419  1.7809
 7853SOL     OW35536   3.451   2.575   8.442 -0.4025 -0.1606 -0.6182
 7853SOL    HW135537   3.382   2.633   8.474 -0.1962  0.4571 -1.2623
 7853SOL    HW235538   3.529   2.630   8.441 -0.3905 -0.1735 -2.0883
 7854SOL     OW35539   9.538   3.214   6.822 -0.1819 -0.3526  0.8039
 7854SOL    HW135540   9.613   3.159   6.841 -2.1258 -3.6059 -0.0842
 7854SOL    HW235541   9.535   3.218   6.726 -0.6259  0.5119  0.8478
 7855SOL     OW35542   7.831   1.257   7.065  0.0884 -0.3504 -0.6120
 7855SOL    HW135543   7.892   1.218   7.002  0.1742  0.0796 -0.8015
 7855SOL    HW235544   7.883   1.271   7.144  0.7252  1.5793 -1.3077
 7856SOL     OW35545   3.497   5.194   6.894  0.2005 -0.2643 -0.1051
 7856SOL    HW135546   3.541   5.194   6.979  0.7406  1.4698 -0.3496
 7856SOL    HW235547   3.404   5.200   6.915  0.3549  0.6726  0.3776
 7857SOL     OW35548   3.712   1.546   9.209 -0.3823  0.0109  0.2302
 7857SOL    HW135549   3.746   1.472   9.159  0.4792  0.9718 -0.6359
 7857SOL    HW235550   3.771   1.619   9.189  1.5593 -0.0534  4.4577
 7858SOL     OW35551   5.158   0.562   5.626  0.5632  0.8023 -0.3141
 7858SOL    HW135552   5.194   0.593   5.709 -1.1237  1.6648  0.1214
 7858SOL    HW235553   5.178   0.468   5.626 -1.1793  0.3291  2.0729
 7859SOL     OW35554   9.276   1.386   6.393  0.4206  0.1732  0.4713
 7859SOL    HW135555   9.323   1.329   6.454 -1.3927  0.2990  2.0635
 7859SOL    HW235556   9.290   1.475   6.427 -0.2988  0.2768  0.5068
 7860SOL     OW35557   9.034   6.978   4.792  0.1604 -0.2648  0.2111
 7860SOL    HW135558   8.977   6.905   4.767 -1.7207  0.8744  0.9053
 7860SOL    HW235559   9.011   7.048   4.731 -0.6844  0.8522  1.7316
 7861SOL     OW35560   9.179   8.286   7.519  0.5734 -0.1980  0.0303
 7861SOL    HW135561   9.118   8.280   7.446  0.2221 -0.5417  0.3440
 7861SOL    HW235562   9.147   8.220   7.582  0.3946  0.6351  0.8388
 7862SOL     OW35563   3.031   0.357   4.185 -0.0666  0.3229 -0.0741
 7862SOL    HW135564   3.065   0.314   4.264  2.7402  2.2058 -0.1132
 7862SOL    HW235565   3.010   0.285   4.126  1.1071 -1.0750  1.1338
 7863SOL     OW35566   5.733   4.916   5.293  0.0553  0.2320  0.0604
 7863SOL    HW135567   5.680   4.990   5.321  0.0738  0.1230  0.4023
 7863SOL    HW235568   5.681   4.872   5.226 -0.8538 -0.5779  1.2545
 7864SOL     OW35569   5.262   6.888   9.505  0.2438  0.0378  0.2654
 7864SOL    HW135570   5.330   6.916   9.444 -1.3134 -0.1225 -1.6698
 7864SOL    HW235571   5.198   6.959   9.504 -0.8793 -0.9456 -0.0522
 7865SOL     OW35572   9.396   7.014   2.402  0.1104 -0.1301 -0.3759
 7865SOL    HW135573   9.307   7.046   2.412  0.6199  0.8569  1.4051
 7865SOL    HW235574   9.451   7.092   2.404  1.2984 -0.8974  3.0382
 7866SOL     OW35575   0.589   3.247   8.154  0.1843  0.0338  0.0309
 7866SOL    HW135576   0.556   3.297   8.079  2.4359  2.3133  0.4230
 7866SOL    HW235577   0.585   3.308   8.228  1.4553 -0.9056  0.9317
 7867SOL     OW35578   1.388   4.554   8.566 -0.1230 -0.2989  0.0335
 7867SOL    HW135579   1.440   4.626   8.602  0.6505 -0.1224 -1.3678
 7867SOL    HW235580   1.306   4.557   8.615  0.3712  0.7431  0.8475
 7868SOL     OW35581   0.048   8.700   7.341 -0.9458 -0.3101 -0.6603
 7868SOL    HW135582   0.032   8.643   7.266 -0.1493 -0.8341 -0.4334
 7868SOL    HW235583  -0.024   8.764   7.337 -1.1925 -0.6246 -1.5757
 7869SOL     OW35584   9.467   3.597   6.510  0.1818  0.2679 -0.3213
 7869SOL    HW135585   9.555   3.606   6.545  0.7116 -1.0158 -1.2291
 7869SOL    HW235586   9.473   3.631   6.420 -0.2193  0.1030 -0.4124
 7870SOL     OW35587   3.854   0.740   1.528  0.6982 -0.1822 -0.1194
 7870SOL    HW135588   3.823   0.658   1.488  0.3698  0.8975 -2.1960
 7870SOL    HW235589   3.776   0.778   1.568  0.6925 -0.4822  0.1644
 7871SOL     OW35590   0.454   2.910   7.602  0.4280 -0.0414  0.1074
 7871SOL    HW135591   0.430   2.819   7.584 -1.2233  0.5391 -0.8347
 7871SOL    HW235592   0.389   2.940   7.665 -0.2175  1.0135 -1.0128
 7872SOL     OW35593   9.303   4.277   2.770 -0.3529 -0.2285  0.1224
 7872SOL    HW135594   9.357   4.220   2.825 -0.4310 -0.0974  0.3365
 7872SOL    HW235595   9.222   4.228   2.757 -0.7270  0.1579  0.9488
 7873SOL     OW35596   2.601   3.019   2.869  0.5037  0.2264  0.2395
 7873SOL    HW135597   2.551   2.990   2.945  1.2236 -1.2156  0.2060
 7873SOL    HW235598   2.626   2.938   2.825 -0.3102  1.0323 -1.8323
 7874SOL     OW35599   6.713   0.968   1.282  0.3630  0.2757  0.2631
 7874SOL    HW135600   6.736   0.936   1.195  0.5820  1.8359 -0.2875
 7874SOL    HW235601   6.796   0.968   1.330  0.6597  1.4375 -0.2244
 7875SOL     OW35602   7.152   8.964   9.556 -0.4097  0.0448 -0.1569
 7875SOL    HW135603   7.196   9.021   9.619  1.9796 -0.4226 -1.2778
 7875SOL    HW235604   7.061   8.963   9.584  0.0812  1.8328  1.7806
 7876SOL     OW35605   9.594   3.325   6.152 -0.3781  0.3553 -0.3858
 7876SOL    HW135606   9.503   3.340   6.176  0.4241 -0.2685  3.8953
 7876SOL    HW235607   9.627   3.411   6.125 -1.5149  1.2617  1.0104
 7877SOL     OW35608   4.751   4.970   6.295 -0.0322  1.0345  0.4674
 7877SOL    HW135609   4.846   4.979   6.289  0.1868 -0.5228  1.2565
 7877SOL    HW235610   4.736   4.914   6.371 -1.4782 -0.4671 -0.8573
 7878SOL     OW35611   6.653   2.679   3.183  0.5091  0.0260  0.0780
 7878SOL    HW135612   6.671   2.585   3.182 -1.5512 -0.4786  2.1267
 7878SOL    HW235613   6.627   2.699   3.093 -0.3501 -1.6812 -0.0879
 7879SOL     OW35614   5.790   1.043   6.780  0.0134  0.1049 -0.2178
 7879SOL    HW135615   5.793   1.135   6.753  0.2199  1.2340  3.1063
 7879SOL    HW235616   5.872   1.005   6.747 -0.0649  1.1104 -1.6211
 7880SOL     OW35617   3.347   1.261   1.127 -0.4572  0.2547  0.0369
 7880SOL    HW135618   3.296   1.230   1.201 -0.6041 -2.1147 -0.9629
 7880SOL    HW235619   3.288   1.321   1.080 -0.6601  1.0826  1.3117
 7881SOL     OW35620   1.364  10.245   5.257  0.3250 -0.3268 -0.8002
 7881SOL    HW135621   1.345  10.151   5.256  0.6673 -0.3979 -0.7421
 7881SOL    HW235622   1.325  10.276   5.339 -0.3868 -0.2888 -1.1431
 7882SOL     OW35623   9.927   5.597   9.924 -0.5568 -0.6062 -0.1190
 7882SOL    HW135624   9.869   5.661   9.965 -1.2145  0.0082 -1.8933
 7882SOL    HW235625   9.970   5.645   9.853  1.6791 -1.2270  0.7552
 7883SOL     OW35626   1.446   0.747   0.483  0.1601 -0.0347 -0.5035
 7883SOL    HW135627   1.421   0.691   0.556  4.0612  0.3042  1.3173
 7883SOL    HW235628   1.449   0.688   0.407  0.7340 -1.5264  0.6316
 7884SOL     OW35629   0.078   9.252   2.405  0.8248  0.4038 -0.0594
 7884SOL    HW135630   0.052   9.334   2.363 -0.2885 -0.2902 -0.7511
 7884SOL    HW235631   0.167   9.269   2.436  1.3184  1.2719 -1.8167
 7885SOL     OW35632   6.857   8.110   0.998 -0.0426 -0.3445  0.8353
 7885SOL    HW135633   6.945   8.137   1.026  0.1905 -0.7022  0.4577
 7885SOL    HW235634   6.799   8.149   1.063  0.2952  0.9046  0.4365
 7886SOL     OW35635   0.196   7.418   6.122  0.1228  0.3018  0.2235
 7886SOL    HW135636   0.214   7.395   6.213  0.1612  0.2834  0.2116
 7886SOL    HW235637   0.106   7.389   6.107  0.2413 -0.0299  0.1474
 7887SOL     OW35638   5.275   0.108   6.615 -0.3017  0.3963  0.5008
 7887SOL    HW135639   5.284   0.202   6.603 -0.6015  0.4110  0.3947
 7887SOL    HW235640   5.365   0.076   6.619 -0.1349  1.0023  3.1273
 7888SOL     OW35641  10.237   6.420   2.830  0.4243 -0.1553  0.5039
 7888SOL    HW135642  10.167   6.399   2.768  0.0735  0.2312  0.7596
 7888SOL    HW235643  10.191   6.433   2.914  1.0624 -2.4706  1.2956
 7889SOL     OW35644   5.658  10.266   2.325  0.0239 -0.6738  0.3656
 7889SOL    HW135645   5.744  10.260   2.283  0.7723  0.1528  1.6906
 7889SOL    HW235646   5.671  10.228   2.412 -0.1749  1.8688  1.6090
 7890SOL     OW35647   0.727   3.305   9.527  0.0829  0.0836 -0.4748
 7890SOL    HW135648   0.699   3.284   9.438  0.8839  1.5766 -1.1193
 7890SOL    HW235649   0.649   3.293   9.580 -0.4705 -0.6073 -1.3993
 7891SOL     OW35650   0.672   5.477   0.778 -0.1724  0.1842 -0.0313
 7891SOL    HW135651   0.605   5.542   0.754  1.3747  1.3312 -1.5046
 7891SOL    HW235652   0.714   5.455   0.695  1.2083 -0.5884  0.8437
 7892SOL     OW35653   4.886   6.578   8.124  0.3295 -0.3685 -0.3501
 7892SOL    HW135654   4.973   6.564   8.085  0.0349  0.4854 -1.3548
 7892SOL    HW235655   4.830   6.601   8.050 -0.7242 -0.7453  0.3128
 7893SOL     OW35656   5.702   1.506   9.391  0.3671 -0.1650  0.1037
 7893SOL    HW135657   5.684   1.433   9.331  1.6782  0.1697 -0.7546
 7893SOL    HW235658   5.778   1.477   9.441 -0.7057 -0.4286  1.6365
 7894SOL     OW35659   1.688   8.284   0.213 -0.1465 -0.5151 -0.1684
 7894SOL    HW135660   1.644   8.208   0.173  0.0014 -0.1856 -0.9786
 7894SOL    HW235661   1.692   8.263   0.306 -0.1670 -1.4791 -0.3710
 7895SOL     OW35662   3.523  10.180   6.588  0.4688  0.3327 -0.2168
 7895SOL    HW135663   3.462  10.138   6.648  0.6447  1.4492  0.7688
 7895SOL    HW235664   3.569  10.245   6.641  0.5607  1.4249 -1.5722
 7896SOL     OW35665   9.783   4.318   9.412  0.6489 -0.0481 -0.3705
 7896SOL    HW135666   9.753   4.251   9.351 -0.4245 -0.9438  1.0853
 7896SOL    HW235667   9.728   4.394   9.393 -0.5466 -0.7259  0.2910
 7897SOL     OW35668   7.101   9.533   8.941  0.1633  0.1535 -0.2162
 7897SOL    HW135669   7.135   9.585   9.014  1.5850 -0.4470 -0.4194
 7897SOL    HW235670   7.013   9.508   8.968  0.8984 -0.6165  1.6048
 7898SOL     OW35671  10.243   0.103   8.768 -0.1433 -0.2672  0.6408
 7898SOL    HW135672  10.330   0.074   8.796  1.4386 -1.2399 -4.3196
 7898SOL    HW235673  10.206   0.026   8.725 -1.0250  1.5886 -2.1519
 7899SOL     OW35674   0.834  10.189   1.182  1.1629  0.2548 -0.0154
 7899SOL    HW135675   0.919  10.147   1.167  0.3444 -1.0083 -1.2549
 7899SOL    HW235676   0.829  10.258   1.116  0.2184 -1.2553 -1.5715
 7900SOL     OW35677   8.823   7.770   2.235 -0.1741 -0.2467 -0.2942
 7900SOL    HW135678   8.852   7.860   2.250  0.8430 -0.5821 -0.1429
 7900SOL    HW235679   8.734   7.767   2.268  0.4876  0.1747  1.6493
 7901SOL     OW35680   8.362   2.549   6.262 -0.1266 -0.1270 -0.3340
 7901SOL    HW135681   8.430   2.526   6.325 -1.1667 -1.8155  0.2366
 7901SOL    HW235682   8.353   2.472   6.206  0.2960  1.0906 -2.1683
 7902SOL     OW35683   0.137   7.194   0.801 -0.7570 -0.0982 -0.3023
 7902SOL    HW135684   0.056   7.143   0.796 -1.4013  0.9678 -1.1031
 7902SOL    HW235685   0.204   7.134   0.768 -0.6495 -1.9845  2.9272
 7903SOL     OW35686   0.212   6.995   5.899 -0.1808 -0.3890  0.3735
 7903SOL    HW135687   0.298   6.954   5.894  1.1799  1.7849  2.9786
 7903SOL    HW235688   0.179   6.971   5.985 -0.3134  1.9998  1.0693
 7904SOL     OW35689   4.926   0.570   1.586 -0.1516  0.2362  0.3476
 7904SOL    HW135690   4.873   0.503   1.542 -1.1711  1.1246  0.1667
 7904SOL    HW235691   5.012   0.529   1.598 -0.4520 -0.7421 -0.6544
 7905SOL     OW35692   8.748   9.568   9.735 -0.2202  0.3564 -0.2878
 7905SOL    HW135693   8.657   9.592   9.750 -0.3896 -1.2459  1.6476
 7905SOL    HW235694   8.797   9.648   9.755 -1.0147  0.3665  1.9326
 7906SOL     OW35695   3.018   4.868   2.433 -0.2970  0.1486 -0.6137
 7906SOL    HW135696   3.057   4.794   2.387  0.1236 -0.3420  0.4971
 7906SOL    HW235697   3.083   4.891   2.500 -0.6356  1.2216 -0.6348
 7907SOL     OW35698   1.174   8.904   8.503  0.3212 -0.4067  0.9420
 7907SOL    HW135699   1.235   8.909   8.429  1.9323  0.7421  2.2830
 7907SOL    HW235700   1.143   8.814   8.503  1.5610 -0.8605 -0.1293
 7908SOL     OW35701   1.806   4.297   4.563  0.5955  0.3863  0.2723
 7908SOL    HW135702   1.757   4.357   4.507 -2.6608 -1.9960  0.2476
 7908SOL    HW235703   1.828   4.224   4.505  1.3578 -0.0285  1.0663
 7909SOL     OW35704   3.321   2.673   5.225  0.3237 -0.1587 -0.0003
 7909SOL    HW135705   3.305   2.581   5.245  2.0796 -0.4394  0.2353
 7909SOL    HW235706   3.359   2.709   5.305 -0.2981  0.7648 -0.1065
 7910SOL     OW35707   2.059   1.522   7.179  0.1122  0.0622 -0.0734
 7910SOL    HW135708   2.048   1.596   7.120  1.3641 -0.6533 -1.2541
 7910SOL    HW235709   1.978   1.520   7.229 -1.0325  0.6735 -1.7995
 7911SOL     OW35710   6.873   1.693   2.634  0.1213  0.5583 -0.1008
 7911SOL    HW135711   6.783   1.722   2.646  0.2268  0.2813  1.6044
 7911SOL    HW235712   6.867   1.598   2.624  0.3612  0.1760  2.6703
 7912SOL     OW35713   3.945   8.446   1.014 -0.5713 -0.1300  0.2690
 7912SOL    HW135714   3.851   8.444   0.997 -0.1617 -0.4233 -2.3205
 7912SOL    HW235715   3.963   8.362   1.057 -1.4052 -0.3237  0.2510
 7913SOL     OW35716   3.597   5.221   5.495  0.5390 -0.6170 -0.4435
 7913SOL    HW135717   3.564   5.286   5.434  1.9804  0.2638 -0.3208
 7913SOL    HW235718   3.631   5.151   5.439  0.6632 -0.4169 -0.6191
 7914SOL     OW35719   2.330   6.150   4.662  0.2329  0.4637 -0.4807
 7914SOL    HW135720   2.384   6.179   4.589  0.8568  0.4091 -0.0452
 7914SOL    HW235721   2.392   6.120   4.729 -0.3385 -2.0082 -0.9330
 7915SOL     OW35722   0.915   1.131  10.265  0.8355 -0.4233  0.1151
 7915SOL    HW135723   0.916   1.060  10.330  1.2176 -0.1115  0.4565
 7915SOL    HW235724   1.007   1.139  10.238  0.5619 -1.0909 -1.0692
 7916SOL     OW35725   8.447   8.325   4.959  0.3870 -0.3617  0.1156
 7916SOL    HW135726   8.460   8.255   5.023 -1.5972  0.4805  1.5373
 7916SOL    HW235727   8.352   8.334   4.951  0.5006  2.7385  0.7119
 7917SOL     OW35728   1.945   8.800   6.575  0.5776 -0.2034  0.3380
 7917SOL    HW135729   1.979   8.803   6.664  0.8246  0.9469  0.2198
 7917SOL    HW235730   1.925   8.708   6.560 -0.0450 -0.3291  1.7924
 7918SOL     OW35731   1.005   7.433   7.259 -0.4054 -0.1289 -0.0853
 7918SOL    HW135732   0.982   7.487   7.183  2.0478  0.8523 -0.2229
 7918SOL    HW235733   1.096   7.456   7.278 -0.7600 -0.7607  2.8259
 7919SOL     OW35734   7.048   0.925   8.309  0.3837  0.5167 -0.6544
 7919SOL    HW135735   7.029   0.959   8.397  1.2266  2.1577 -1.0656
 7919SOL    HW235736   7.056   1.003   8.254  0.0351 -0.4735 -2.1745
 7920SOL     OW35737   6.387   0.529   9.199  0.4164 -0.2726 -0.1102
 7920SOL    HW135738   6.303   0.500   9.164  0.7446 -0.9621 -0.3501
 7920SOL    HW235739   6.423   0.586   9.131  0.6905 -0.9723 -0.5737
 7921SOL     OW35740   9.608   7.787   8.521  0.0854  0.1107  0.3517
 7921SOL    HW135741   9.603   7.692   8.524  0.3527  0.0657 -0.3782
 7921SOL    HW235742   9.595   7.815   8.612  0.0759 -0.6205  0.5801
 7922SOL     OW35743   1.870   3.084   6.046  0.2474  0.9462  0.3532
 7922SOL    HW135744   1.819   3.025   5.991  0.9860  0.7017 -0.0839
 7922SOL    HW235745   1.960   3.051   6.039  0.3488  0.8806  1.7438
 7923SOL     OW35746   7.514   4.305   0.840 -0.4345  0.3909 -0.5294
 7923SOL    HW135747   7.517   4.251   0.919 -1.6568  0.3080 -0.5216
 7923SOL    HW235748   7.425   4.340   0.838 -0.1383  1.1378 -1.3778
 7924SOL     OW35749   0.258   3.634   6.225 -0.1351 -0.1721  0.0586
 7924SOL    HW135750   0.312   3.669   6.153 -0.3587  0.0850  0.0115
 7924SOL    HW235751   0.175   3.681   6.217  0.1956  0.6346  1.1291
 7925SOL     OW35752  10.203   9.235   7.878 -0.1666  0.3525  0.1672
 7925SOL    HW135753  10.141   9.199   7.814 -0.1540 -1.2039  0.9844
 7925SOL    HW235754  10.289   9.220   7.839  0.0558 -3.3512  1.7172
 7926SOL     OW35755   6.100   2.631   5.389 -0.1198  0.3821  0.0183
 7926SOL    HW135756   6.167   2.658   5.453  2.0830 -1.1048 -1.5062
 7926SOL    HW235757   6.029   2.694   5.401  2.5133  3.5996  0.1623
 7927SOL     OW35758   5.828   9.109   0.599  0.2196 -0.2848  0.3128
 7927SOL    HW135759   5.861   9.031   0.646 -0.0864  0.5427  1.9824
 7927SOL    HW235760   5.733   9.105   0.611  0.2052  0.3345  0.4133
 7928SOL     OW35761   5.950   4.867   7.490 -0.5269 -0.8468 -0.6212
 7928SOL    HW135762   5.888   4.814   7.440 -1.1124 -0.7993  0.0490
 7928SOL    HW235763   5.975   4.937   7.430 -0.5468 -1.2849 -1.1524
 7929SOL     OW35764   3.242   5.477   6.045 -0.0682 -0.1637 -0.5309
 7929SOL    HW135765   3.235   5.477   5.949  1.4982  0.7152 -0.6700
 7929SOL    HW235766   3.156   5.509   6.074 -0.8368 -1.1556 -1.5854
 7930SOL     OW35767   8.087   8.620   4.858 -0.6033 -0.6193 -0.1967
 7930SOL    HW135768   8.004   8.653   4.821 -0.3024  0.3649 -0.0290
 7930SOL    HW235769   8.086   8.650   4.949  1.4327  2.4581 -1.0301
 7931SOL     OW35770   7.363   0.931   1.630 -0.3656  0.0562 -0.2459
 7931SOL    HW135771   7.310   0.985   1.688 -1.1990 -1.4157  0.4285
 7931SOL    HW235772   7.312   0.925   1.549 -1.2511 -1.3129  0.3828
 7932SOL     OW35773   7.287   0.738   7.178  0.7751 -0.0596 -0.5293
 7932SOL    HW135774   7.333   0.704   7.254 -0.4795 -0.6443 -0.0039
 7932SOL    HW235775   7.319   0.827   7.168 -0.4472  0.7223  1.8716
 7933SOL     OW35776   7.130   7.371   9.440 -0.3207  0.4902 -0.0555
 7933SOL    HW135777   7.123   7.433   9.512 -1.5306  0.1666  0.1251
 7933SOL    HW235778   7.056   7.311   9.452  1.1525 -1.3903  0.1479
 7934SOL     OW35779   9.189   4.912   6.864 -0.2744 -0.1822 -0.1040
 7934SOL    HW135780   9.263   4.855   6.886  0.3904  0.8215  0.3641
 7934SOL    HW235781   9.230   4.994   6.836 -1.1602 -0.4760 -2.4685
 7935SOL     OW35782   1.174   7.949   0.952  0.0430  0.4875  0.0924
 7935SOL    HW135783   1.249   7.995   0.913 -0.5257  0.9946 -0.4216
 7935SOL    HW235784   1.112   8.019   0.973 -0.6282  0.0053 -0.2503
 7936SOL     OW35785   8.025   6.938   2.267 -0.0401 -0.3941 -0.3443
 7936SOL    HW135786   8.045   6.856   2.221  1.8386  0.3208 -0.8997
 7936SOL    HW235787   8.092   6.945   2.335 -1.1663 -0.0931  0.7750
 7937SOL     OW35788   4.703   0.522  10.127 -0.2165  0.2837 -0.6981
 7937SOL    HW135789   4.648   0.565  10.062 -1.3383 -0.0797 -0.0233
 7937SOL    HW235790   4.790   0.522  10.089 -0.3790  2.2036 -1.1693
 7938SOL     OW35791   3.857   7.229   1.928  0.3673 -0.6311 -0.1113
 7938SOL    HW135792   3.861   7.134   1.919  0.6586 -0.8269  1.6973
 7938SOL    HW235793   3.893   7.247   2.015 -3.4378  0.7421  1.4263
 7939SOL     OW35794   1.680   8.452   1.024 -0.6475  0.3253 -0.4564
 7939SOL    HW135795   1.754   8.406   0.984  1.1909  0.5243  2.3806
 7939SOL    HW235796   1.678   8.536   0.979  1.6695  0.7562  0.0778
 7940SOL     OW35797   4.669   4.454   1.423  0.0935 -0.0753 -0.2686
 7940SOL    HW135798   4.646   4.505   1.500 -0.2682 -0.8821  0.1688
 7940SOL    HW235799   4.685   4.520   1.355 -0.9269  0.6044  0.1161
 7941SOL     OW35800   7.186   1.962   9.196 -0.6276 -0.4856  0.1352
 7941SOL    HW135801   7.268   1.958   9.147  0.4833 -0.3993  1.9093
 7941SOL    HW235802   7.119   1.939   9.132  0.8856 -1.7009 -1.1060
 7942SOL     OW35803   1.526   6.995   5.618 -0.6408  0.1352 -0.0576
 7942SOL    HW135804   1.570   6.995   5.703 -0.4343 -0.8066 -0.1553
 7942SOL    HW235805   1.434   7.009   5.639 -0.4747  0.8542  0.2404
 7943SOL     OW35806   8.733   0.538   7.832  0.6189  0.1239 -0.5930
 7943SOL    HW135807   8.723   0.492   7.749  0.1513 -0.9476  0.0459
 7943SOL    HW235808   8.716   0.630   7.810 -0.2741 -0.2469 -1.5408
 7944SOL     OW35809   2.479   5.176   5.828 -0.0323  0.3894 -0.1309
 7944SOL    HW135810   2.553   5.128   5.791  0.9349  0.0122  2.1405
 7944SOL    HW235811   2.416   5.109   5.853 -0.0910  0.5270  0.0990
 7945SOL     OW35812   6.418   8.212   4.823 -0.0045 -0.0569  0.7220
 7945SOL    HW135813   6.335   8.221   4.870 -0.0018  1.7197  0.4642
 7945SOL    HW235814   6.485   8.228   4.889  0.0891 -0.3052  0.6855
 7946SOL     OW35815   3.562   3.142   8.333 -0.1971 -0.1071  0.2770
 7946SOL    HW135816   3.581   3.050   8.315  1.4904  0.2665  0.0378
 7946SOL    HW235817   3.619   3.165   8.407 -1.3782  0.4812  1.0519
 7947SOL     OW35818   3.854   4.719   1.918 -0.3444 -0.1103 -0.3340
 7947SOL    HW135819   3.904   4.801   1.918 -1.3235  0.5348  1.2781
 7947SOL    HW235820   3.776   4.739   1.866  1.2760 -1.3632 -3.5705
 7948SOL     OW35821   5.000   1.333   6.143  0.5704 -0.3486  0.0141
 7948SOL    HW135822   4.930   1.289   6.191 -1.9849  1.3857 -1.8367
 7948SOL    HW235823   5.002   1.422   6.179  2.1185 -0.4798  0.2913
 7949SOL     OW35824   6.769   7.343   3.651 -0.0609  0.4508  0.3767
 7949SOL    HW135825   6.699   7.332   3.587  0.2467 -0.1949  0.1444
 7949SOL    HW235826   6.849   7.335   3.599  0.2004 -0.6385  0.9177
 7950SOL     OW35827   0.177   9.736   3.707  0.0839 -0.5849 -0.2726
 7950SOL    HW135828   0.099   9.717   3.654 -0.0457  0.2823 -0.3988
 7950SOL    HW235829   0.227   9.654   3.705 -0.3214 -0.8226 -1.0457
 7951SOL     OW35830   7.236   0.332   3.489 -0.7164  0.2644 -0.1115
 7951SOL    HW135831   7.197   0.418   3.475 -0.0472  0.8428  1.3652
 7951SOL    HW235832   7.330   0.349   3.492 -0.5157 -0.6768 -0.7990
 7952SOL     OW35833   5.781   2.971   2.584 -0.0552  0.5841 -0.4790
 7952SOL    HW135834   5.725   3.043   2.614  0.2828  0.3824  0.6731
 7952SOL    HW235835   5.765   2.900   2.646  0.5903  0.1119 -0.8404
 7953SOL     OW35836   8.709   7.110   6.279 -0.1338 -0.0441 -0.5125
 7953SOL    HW135837   8.644   7.043   6.299  0.1590 -0.6050 -1.3729
 7953SOL    HW235838   8.785   7.061   6.249 -0.1950  0.6943 -1.9581
 7954SOL     OW35839   5.685   8.932   6.524 -0.5143  0.5174 -0.0108
 7954SOL    HW135840   5.696   8.920   6.429 -1.9982  0.2159 -0.1590
 7954SOL    HW235841   5.664   9.025   6.533 -2.0570  0.2035 -0.1647
 7955SOL     OW35842  10.199   5.846   6.677  0.1497  0.1116  0.0108
 7955SOL    HW135843  10.142   5.783   6.721  1.0975  0.3553  1.6801
 7955SOL    HW235844  10.138   5.911   6.640 -0.7020  0.0351  1.2004
 7956SOL     OW35845   9.290   4.922   4.479  0.4544 -0.3354 -0.1331
 7956SOL    HW135846   9.378   4.956   4.471  0.2807  0.3534  0.7924
 7956SOL    HW235847   9.285   4.853   4.413  2.2895 -1.6825  1.0606
 7957SOL     OW35848   8.828   9.989   0.249 -0.5873  0.7426  0.2120
 7957SOL    HW135849   8.870   9.921   0.301 -1.6856 -1.0525 -1.1506
 7957SOL    HW235850   8.898  10.052   0.231  1.0273 -1.1014 -0.2664
 7958SOL     OW35851   7.270   0.740   5.680  0.2723  0.1294  0.4105
 7958SOL    HW135852   7.360   0.742   5.649  0.1003  0.5569 -0.0797
 7958SOL    HW235853   7.226   0.809   5.631 -0.6339 -0.9297 -0.3341
 7959SOL     OW35854   9.222   9.108   9.121  0.9001  0.3967  0.0261
 7959SOL    HW135855   9.265   9.070   9.044  2.0119  1.8488 -0.1139
 7959SOL    HW235856   9.164   9.175   9.085 -0.7877 -0.8523  0.2905
 7960SOL     OW35857   2.063   2.121   0.593  0.1083  0.0293  0.1907
 7960SOL    HW135858   1.976   2.113   0.555  1.1563  0.3765 -2.5062
 7960SOL    HW235859   2.063   2.206   0.637 -1.1269 -0.3470  0.9613
 7961SOL     OW35860   4.058   9.567   5.882 -0.2205 -0.1875  1.0073
 7961SOL    HW135861   3.966   9.569   5.860  0.2199  1.2243 -0.9476
 7961SOL    HW235862   4.082   9.659   5.893  1.0839 -0.4836  0.8262
 7962SOL     OW35863   2.930   1.102   5.884  0.8429  0.6932  0.4927
 7962SOL    HW135864   2.886   1.145   5.810 -0.1493 -0.0830  0.6013
 7962SOL    HW235865   2.948   1.172   5.946  0.6895  1.1882 -0.0194
 7963SOL     OW35866   8.219   6.666   5.945  0.6568  0.1320  0.0758
 7963SOL    HW135867   8.135   6.644   5.986  0.5970 -0.8730 -0.5556
 7963SOL    HW235868   8.240   6.590   5.891  1.5224  0.7634 -0.5014
 7964SOL     OW35869   9.583   9.143   4.397  0.3795  0.1082  0.2144
 7964SOL    HW135870   9.664   9.123   4.349 -0.6516 -1.3781 -1.0154
 7964SOL    HW235871   9.594   9.100   4.482  0.7615 -0.3784 -0.0760
 7965SOL     OW35872   9.908   9.029   5.723 -0.0421 -0.5232  0.4004
 7965SOL    HW135873   9.898   9.050   5.630  1.3245 -0.4016  0.2591
 7965SOL    HW235874   9.970   9.094   5.756  1.5860 -2.1741  0.7644
 7966SOL     OW35875   1.016   6.590   3.830  0.0837 -0.1150  0.3689
 7966SOL    HW135876   1.098   6.598   3.781  0.5991 -2.1297  0.7894
 7966SOL    HW235877   0.967   6.670   3.810  0.9108 -0.1742 -2.1957
 7967SOL     OW35878  10.133   7.750   5.921  0.3724 -0.0858  0.0787
 7967SOL    HW135879  10.097   7.826   5.875  0.7000 -0.2200 -0.4059
 7967SOL    HW235880  10.093   7.675   5.878  0.4828 -0.2039  0.1831
 7968SOL     OW35881   8.682   8.220   0.917  0.3891  0.2231 -0.0448
 7968SOL    HW135882   8.622   8.182   0.981  1.7356 -2.1003 -0.0597
 7968SOL    HW235883   8.698   8.309   0.950  0.7586 -0.7539  2.7192
 7969SOL     OW35884   0.207   5.292   9.382 -0.3591 -0.0739  0.0032
 7969SOL    HW135885   0.199   5.251   9.468  0.9786  1.0707  0.7046
 7969SOL    HW235886   0.171   5.227   9.322 -0.2054 -1.4023  1.2780
 7970SOL     OW35887   9.599   3.325   8.868  0.1291  0.4911  0.0538
 7970SOL    HW135888   9.608   3.295   8.777 -0.3207  0.7293 -0.0717
 7970SOL    HW235889   9.674   3.287   8.913  0.8161  1.0421 -0.5923
 7971SOL     OW35890   5.251   4.137   0.926 -0.0462 -0.1566  0.2234
 7971SOL    HW135891   5.316   4.099   0.868  0.3874  2.0988 -0.8863
 7971SOL    HW235892   5.297   4.152   1.008  0.1214 -0.8250  0.2564
 7972SOL     OW35893   9.435   9.685   7.237  0.8746  0.0958  0.4012
 7972SOL    HW135894   9.488   9.620   7.284  0.8931  0.0100  0.2653
 7972SOL    HW235895   9.486   9.703   7.157 -0.3487 -1.6861 -0.8605
 7973SOL     OW35896   9.183   6.967   7.146  0.0055 -0.0420 -0.4434
 7973SOL    HW135897   9.160   7.059   7.152 -1.1701 -0.1533 -2.3438
 7973SOL    HW235898   9.165   6.932   7.233 -1.9002  1.0419 -0.3385
 7974SOL     OW35899   6.603   3.794   7.526 -0.3367  0.3335  0.3072
 7974SOL    HW135900   6.533   3.764   7.585 -0.6849  0.2615 -0.1343
 7974SOL    HW235901   6.668   3.723   7.528 -1.1324 -0.4551 -0.6949
 7975SOL     OW35902   9.879   7.533   2.588  0.3953 -0.3587 -0.2433
 7975SOL    HW135903   9.900   7.596   2.656 -0.1872 -0.8372  0.4057
 7975SOL    HW235904   9.796   7.564   2.551 -0.4415 -1.2475  0.7778
 7976SOL     OW35905   4.474   2.936   9.477  0.4866  0.5371  0.1118
 7976SOL    HW135906   4.446   3.008   9.419  0.9357 -0.3550 -1.2622
 7976SOL    HW235907   4.415   2.942   9.552 -1.0047  0.9307 -1.0398
 7977SOL     OW35908   8.883   7.519   8.006 -0.1465  0.0368  0.0555
 7977SOL    HW135909   8.805   7.555   8.047 -0.4549 -1.3554  0.7395
 7977SOL    HW235910   8.868   7.529   7.912 -0.8666  0.3338  0.1962
 7978SOL     OW35911   3.147   4.435   3.691  0.3129  0.3535  0.6840
 7978SOL    HW135912   3.146   4.347   3.653  0.7000  0.4704  0.3955
 7978SOL    HW235913   3.157   4.420   3.785 -2.9190 -0.0267  1.0866
 7979SOL     OW35914   2.585  10.271   9.701  0.2134  0.5626 -0.1691
 7979SOL    HW135915   2.593  10.185   9.660  0.5339  0.5558 -0.0891
 7979SOL    HW235916   2.495  10.272   9.735 -0.0180  0.5223 -0.7606
 7980SOL     OW35917   9.482   9.023   6.073  0.2526 -0.1021 -0.2853
 7980SOL    HW135918   9.559   9.002   6.021  0.5058 -0.3265  0.1771
 7980SOL    HW235919   9.477   8.954   6.138 -1.4842 -1.2591 -1.5229
 7981SOL     OW35920   8.916   6.211   9.975  0.0665  0.2144 -0.3946
 7981SOL    HW135921   8.880   6.217  10.064  1.4119 -0.4019  0.2218
 7981SOL    HW235922   8.890   6.124   9.945 -0.2501  0.3605 -0.5453
 7982SOL     OW35923   7.246   2.291   8.113 -0.4666 -0.5383  0.3367
 7982SOL    HW135924   7.268   2.232   8.041 -0.7583 -1.0820  0.6852
 7982SOL    HW235925   7.221   2.373   8.070  1.1454 -0.2555 -0.1001
 7983SOL     OW35926   5.649   4.399   4.215  0.4644 -0.6069 -0.1875
 7983SOL    HW135927   5.673   4.359   4.299  1.6531  0.1196 -0.1558
 7983SOL    HW235928   5.566   4.444   4.233  0.1506 -1.3553  0.3004
 7984SOL     OW35929   9.023   1.582   1.903 -0.4988 -0.3683  0.1332
 7984SOL    HW135930   8.988   1.514   1.845 -1.7296  0.7607 -0.5051
 7984SOL    HW235931   9.118   1.573   1.895 -0.6411 -1.6690 -0.3392
 7985SOL     OW35932   1.829   1.513   5.241 -0.0050  0.5145 -0.1112
 7985SOL    HW135933   1.785   1.540   5.322  0.5897  0.6594  0.1743
 7985SOL    HW235934   1.922   1.522   5.261  0.2624 -2.2498  0.1824
 7986SOL     OW35935   2.552   1.118   6.364 -0.7322 -0.3903  0.1431
 7986SOL    HW135936   2.616   1.049   6.381  0.7018  1.1150  1.1389
 7986SOL    HW235937   2.573   1.186   6.427 -0.7493  1.8539 -2.0965
 7987SOL     OW35938   5.149   4.019   3.283  1.0141  0.8863  0.0671
 7987SOL    HW135939   5.230   3.987   3.242  0.1192 -0.5609 -0.6569
 7987SOL    HW235940   5.103   4.063   3.212  0.6731  0.7478  0.2031
 7988SOL     OW35941   7.865   3.116   9.448 -0.0336  0.1151 -0.1512
 7988SOL    HW135942   7.859   3.139   9.355 -2.8079  1.2714  0.2154
 7988SOL    HW235943   7.853   3.021   9.450 -0.2349  0.1103 -0.9727
 7989SOL     OW35944   2.851   4.065  10.237 -0.7238  0.1308  0.1489
 7989SOL    HW135945   2.813   4.022  10.160  0.2284 -0.6648  0.1020
 7989SOL    HW235946   2.777   4.075  10.297 -0.9215 -2.1248  0.3962
 7990SOL     OW35947   3.691   1.016   3.337  0.0189  0.0926 -0.1813
 7990SOL    HW135948   3.691   0.971   3.253 -0.1189  1.3312 -0.8766
 7990SOL    HW235949   3.683   1.109   3.315  0.9219  0.5278  1.1652
 7991SOL     OW35950   9.468   5.627   7.959 -0.0094  0.3111 -0.0626
 7991SOL    HW135951   9.444   5.639   7.867  1.2642 -0.0631 -0.4613
 7991SOL    HW235952   9.438   5.708   8.002  0.0702  0.8251 -0.9460
 7992SOL     OW35953   6.021   3.205   3.363 -0.9090 -0.8288 -0.2900
 7992SOL    HW135954   6.065   3.158   3.434 -0.4370 -2.5355 -1.6614
 7992SOL    HW235955   6.067   3.289   3.358 -0.7808 -0.7717  1.2053
 7993SOL     OW35956   2.120   9.586   1.120  0.1164 -0.2460  0.2209
 7993SOL    HW135957   2.044   9.627   1.161 -0.1648 -2.1245  1.7216
 7993SOL    HW235958   2.125   9.626   1.033 -2.2653  0.2899  0.2630
 7994SOL     OW35959   7.332   8.744   7.798  0.4398  0.2279 -0.2033
 7994SOL    HW135960   7.310   8.675   7.861 -1.4333  1.5291  0.6343
 7994SOL    HW235961   7.256   8.801   7.797  1.1141  1.1947 -2.4165
 7995SOL     OW35962   6.756   5.828   9.032  0.3951  0.4601  0.7005
 7995SOL    HW135963   6.792   5.780   8.956  1.7573  1.8513  0.4152
 7995SOL    HW235964   6.670   5.858   9.003  0.3118 -0.1979  0.2229
 7996SOL     OW35965   8.833   3.902   2.538  0.4617  0.0363  0.0624
 7996SOL    HW135966   8.804   3.819   2.575 -0.7215 -0.5001 -1.9297
 7996SOL    HW235967   8.926   3.889   2.520  0.0331 -1.3557 -1.3619
 7997SOL     OW35968   8.034   3.102   5.159  0.1787 -0.4562  0.0698
 7997SOL    HW135969   8.058   3.186   5.199 -1.4073  0.4147 -0.7277
 7997SOL    HW235970   8.095   3.092   5.086  2.1701 -1.3810  1.7484
 7998SOL     OW35971   1.708   4.842   3.702 -0.0355 -0.0170 -0.0683
 7998SOL    HW135972   1.733   4.933   3.720  0.3063 -0.1561  0.1590
 7998SOL    HW235973   1.678   4.809   3.786 -0.1733 -0.1100 -0.1554
 7999SOL     OW35974   3.874   0.485   3.179  0.3893  0.1551 -0.1335
 7999SOL    HW135975   3.807   0.488   3.111  0.9263  0.5841 -0.6536
 7999SOL    HW235976   3.957   0.485   3.131  0.7802  0.7348  0.5247
 8000SOL     OW35977   5.521   2.972   6.985  0.1319 -0.0517  0.2216
 8000SOL    HW135978   5.434   2.932   6.979 -0.4070  1.1951 -0.5095
 8000SOL    HW235979   5.580   2.904   6.951 -0.4727 -1.0954  1.1727
 8001SOL     OW35980   3.040   9.673   0.531 -0.1841  0.4061  0.0595
 8001SOL    HW135981   3.092   9.697   0.454  0.1101 -1.4952 -0.3743
 8001SOL    HW235982   2.966   9.734   0.529  0.6297  1.4204 -0.8138
 8002SOL     OW35983   8.341   9.835   6.693  0.1196 -0.3451 -0.3237
 8002SOL    HW135984   8.247   9.842   6.676  0.2946  2.9961 -0.4783
 8002SOL    HW235985   8.375   9.924   6.680  2.9554 -0.9585  1.9167
 8003SOL     OW35986   9.951   8.397   3.597  0.4157 -0.4235 -0.1702
 8003SOL    HW135987   9.957   8.302   3.588  1.7602 -0.4821  1.0044
 8003SOL    HW235988   9.981   8.414   3.687 -0.1197  1.0782 -0.2614
 8004SOL     OW35989   0.686   8.738   8.040 -0.3820 -0.6540  0.4462
 8004SOL    HW135990   0.751   8.806   8.058  1.1881 -2.1045  0.5274
 8004SOL    HW235991   0.621   8.781   7.984  1.1783  0.5943 -0.4883
 8005SOL     OW35992   9.273   9.460   2.255 -0.6782 -0.4920  0.6158
 8005SOL    HW135993   9.294   9.542   2.211  1.0482 -0.6281  1.0825
 8005SOL    HW235994   9.323   9.465   2.337  0.6565 -2.5920  0.0163
 8006SOL     OW35995   7.760   9.209   2.503 -0.4946 -0.3145  0.3212
 8006SOL    HW135996   7.825   9.278   2.492  0.9450 -1.8446 -1.5415
 8006SOL    HW235997   7.796   9.152   2.571 -0.3924 -0.5993  0.0327
 8007SOL     OW35998   2.500   8.098   5.515 -0.2393 -0.8319 -0.5266
 8007SOL    HW135999   2.421   8.117   5.564  0.9401  0.3639  1.0075
 8007SOL    HW236000   2.526   8.010   5.544 -0.4907 -0.8482 -0.3545
 8008SOL     OW36001   1.007  10.238   0.166  0.3498 -0.1399 -0.7081
 8008SOL    HW136002   0.926  10.264   0.122  0.4991 -0.5110 -1.2093
 8008SOL    HW236003   1.021  10.147   0.139  0.5952 -0.2833 -0.1145
 8009SOL     OW36004   2.115   9.495   3.624 -0.0218 -0.2806 -0.3069
 8009SOL    HW136005   2.085   9.419   3.575  0.3592 -1.7035  1.5745
 8009SOL    HW236006   2.036   9.547   3.638 -0.8815 -1.8145  0.8510
 8010SOL     OW36007   7.820   0.498   5.038  0.3832 -0.0830  0.1387
 8010SOL    HW136008   7.873   0.546   5.102  0.3607  0.5038 -0.2723
 8010SOL    HW236009   7.846   0.534   4.953 -0.6938  0.2512 -0.0704
 8011SOL     OW36010   6.586   4.973   9.354 -0.2418  0.0352  0.3131
 8011SOL    HW136011   6.656   5.036   9.340  0.7487 -1.0132  0.3491
 8011SOL    HW236012   6.562   4.943   9.267  0.3514 -0.6312  0.3680
 8012SOL     OW36013   5.121   1.962   1.471 -0.7853 -0.2286  0.2945
 8012SOL    HW136014   5.179   2.030   1.504 -2.0725  0.8756  0.3676
 8012SOL    HW236015   5.179   1.900   1.427  0.4552  0.7561  0.4920
 8013SOL     OW36016   4.348   0.454   0.765 -0.3569  0.5383 -0.1832
 8013SOL    HW136017   4.296   0.459   0.845  0.0275 -0.6305  0.1548
 8013SOL    HW236018   4.433   0.490   0.789 -0.0551 -0.3509  0.1057
 8014SOL     OW36019   8.772   8.466   4.565  0.8395  0.3018  0.1243
 8014SOL    HW136020   8.710   8.522   4.613 -1.8104 -0.9512 -1.5875
 8014SOL    HW236021   8.857   8.508   4.577 -0.5726  3.0669  1.2848
 8015SOL     OW36022   1.159   7.216   9.501  0.4415  0.3119 -0.3740
 8015SOL    HW136023   1.190   7.179   9.583 -0.4523 -1.4228 -0.7501
 8015SOL    HW236024   1.067   7.239   9.518  0.3740  0.3348 -0.7524
 8016SOL     OW36025   0.052  10.239   0.518 -0.2643 -0.2314 -0.0078
 8016SOL    HW136026  -0.018  10.184   0.485 -0.9801  0.0579  0.9693
 8016SOL    HW236027   0.042  10.322   0.472  0.3024 -0.6341 -0.8740
 8017SOL     OW36028   9.005   7.947   5.301 -0.1119  0.3691  0.0269
 8017SOL    HW136029   9.067   7.905   5.241 -0.1193 -1.1595  1.0353
 8017SOL    HW236030   8.996   8.036   5.267  1.1520  0.0509 -1.2623
 8018SOL     OW36031   6.822   3.284   9.914 -0.2003 -0.3700  0.4449
 8018SOL    HW136032   6.785   3.373   9.913  0.7931  0.1435  2.5111
 8018SOL    HW236033   6.761   3.232   9.863 -1.2366  1.3523 -0.1635
 8019SOL     OW36034   2.823   1.940   8.053  0.1826  0.4764 -0.5254
 8019SOL    HW136035   2.852   1.859   8.012  0.9696  1.3567 -1.7709
 8019SOL    HW236036   2.814   1.917   8.146 -0.8114 -1.3338 -1.0186
 8020SOL     OW36037   2.488   2.992  10.034 -0.3693  0.1969  0.0021
 8020SOL    HW136038   2.546   2.923  10.066  0.0272  0.8337  0.6673
 8020SOL    HW236039   2.437   2.949   9.965  0.5692 -0.4963 -0.2886
 8021SOL     OW36040   8.216   9.289   3.297  0.3193  0.1073 -0.3309
 8021SOL    HW136041   8.285   9.333   3.247 -1.7060  1.5926 -2.0138
 8021SOL    HW236042   8.185   9.356   3.358 -0.2539 -0.2290 -0.2455
 8022SOL     OW36043   8.763   6.748   9.267  0.5024  0.3691  0.5361
 8022SOL    HW136044   8.759   6.793   9.183 -0.7271  0.6070  0.6984
 8022SOL    HW236045   8.855   6.727   9.279  0.6855  0.2724 -0.8964
 8023SOL     OW36046   9.099   9.522   0.083  0.5296 -0.4380 -0.0145
 8023SOL    HW136047   9.174   9.475   0.047  1.0851 -0.2957  0.9344
 8023SOL    HW236048   9.103   9.505   0.177 -1.2069 -1.2732 -0.0392
 8024SOL     OW36049   3.088   4.598  10.095 -0.4610 -0.4409 -0.0962
 8024SOL    HW136050   3.102   4.518  10.044  0.0953 -0.4638  0.0811
 8024SOL    HW236051   3.022   4.574  10.160 -1.1781 -0.4090 -0.8044
 8025SOL     OW36052   6.131   8.460   2.096 -0.5040  0.3748  0.3042
 8025SOL    HW136053   6.118   8.375   2.138  0.8244 -0.1002 -0.1791
 8025SOL    HW236054   6.197   8.503   2.151  0.6373  0.0748 -0.7810
 8026SOL     OW36055   3.085   5.323   6.495 -0.4091  0.6304  0.0663
 8026SOL    HW136056   3.124   5.301   6.410 -1.7246  0.4545 -0.5198
 8026SOL    HW236057   3.117   5.411   6.514 -1.5670  1.4798 -1.5660
 8027SOL     OW36058   1.255   7.174   4.683  0.4110  0.3831 -0.4461
 8027SOL    HW136059   1.212   7.231   4.747 -1.4222 -0.6064 -0.7089
 8027SOL    HW236060   1.183   7.136   4.633  1.6929 -0.4948 -1.7081
 8028SOL     OW36061   6.149   3.577   8.415  0.5512  0.3671  0.5500
 8028SOL    HW136062   6.130   3.611   8.327 -0.9178 -0.1776  0.6352
 8028SOL    HW236063   6.116   3.644   8.475  1.7518  0.8406  0.7088
 8029SOL     OW36064  10.093   1.535   6.998 -0.1128  0.1121 -0.0215
 8029SOL    HW136065  10.101   1.477   7.074  1.2056  0.2884 -0.0087
 8029SOL    HW236066  10.142   1.492   6.929  1.1697  1.3337  0.0812
 8030SOL     OW36067   1.411   9.265   8.295  0.0946 -0.4130  0.1683
 8030SOL    HW136068   1.323   9.234   8.272 -0.4347  0.6880  0.6557
 8030SOL    HW236069   1.424   9.238   8.385 -0.2830  0.5445  0.5256
 8031SOL     OW36070   6.543   9.520   5.290  0.4718 -0.0157  0.4421
 8031SOL    HW136071   6.509   9.610   5.294 -3.5867 -1.2833 -0.2164
 8031SOL    HW236072   6.492   9.473   5.356  1.3283 -2.1257 -0.3383
 8032SOL     OW36073   9.567   3.978   3.331 -0.6337  0.2168 -0.2867
 8032SOL    HW136074   9.520   3.955   3.411 -0.5829 -2.0206 -0.8493
 8032SOL    HW236075   9.543   3.910   3.269 -1.6005  2.5205 -2.6030
 8033SOL     OW36076   2.532   4.635   4.128 -0.5767 -0.6693 -0.0863
 8033SOL    HW136077   2.567   4.573   4.193  0.5011  0.1532  0.1406
 8033SOL    HW236078   2.605   4.694   4.110 -1.4346  0.2211 -0.6888
 8034SOL     OW36079  10.312   0.096   6.841  0.1165  0.1833  0.3477
 8034SOL    HW136080  10.255   0.165   6.805  0.0603  0.2385  0.5441
 8034SOL    HW236081  10.340   0.046   6.764 -1.4545 -0.8125  0.3832
 8035SOL     OW36082   2.380   4.575   6.014 -0.0071 -0.2060 -0.7834
 8035SOL    HW136083   2.307   4.562   5.953  0.7081  1.5692 -2.1016
 8035SOL    HW236084   2.338   4.580   6.100 -1.7788  2.7429 -1.6629
 8036SOL     OW36085   2.358   1.981   3.894  0.2405  0.4115  0.1661
 8036SOL    HW136086   2.373   1.887   3.882  0.8750  0.8169 -3.0257
 8036SOL    HW236087   2.410   2.003   3.971 -1.6397 -2.1626  2.3725
 8037SOL     OW36088   5.688   0.298   3.946 -0.4085  0.3579  0.1302
 8037SOL    HW136089   5.774   0.272   3.980 -0.2096  0.8851  0.0290
 8037SOL    HW236090   5.707   0.342   3.864 -0.6614  1.6996  0.7630
 8038SOL     OW36091   6.002   0.663   6.095  0.1736  0.4329 -0.2588
 8038SOL    HW136092   5.941   0.713   6.042  0.0489  0.8133  0.2369
 8038SOL    HW236093   5.983   0.572   6.074 -0.4166  0.5573 -0.2698
 8039SOL     OW36094   0.977   2.722   0.865 -0.7960  0.3307  0.1975
 8039SOL    HW136095   0.986   2.633   0.831 -0.5688  0.5382 -0.2945
 8039SOL    HW236096   1.066   2.749   0.888 -0.6588  0.9254 -0.9442
 8040SOL     OW36097   9.262   7.461   6.122 -0.2942  0.3728 -0.2018
 8040SOL    HW136098   9.178   7.434   6.158 -0.3980 -0.9825 -1.3941
 8040SOL    HW236099   9.240   7.524   6.053 -0.5618 -1.5838 -2.0208
 8041SOL     OW36100   4.993   0.278   8.863 -0.2537  0.3257  0.3205
 8041SOL    HW136101   4.955   0.193   8.884  0.2848 -0.2609 -0.9693
 8041SOL    HW236102   5.064   0.288   8.926 -0.5468 -0.0059  0.7146
 8042SOL     OW36103   2.499   2.321   2.023  0.3311  0.3803 -0.4736
 8042SOL    HW136104   2.499   2.412   2.054 -0.1083 -0.0665  0.8584
 8042SOL    HW236105   2.591   2.303   2.002  0.4022  1.1642 -0.8746
 8043SOL     OW36106   9.653   3.443   3.110 -0.5745 -0.8566 -0.2185
 8043SOL    HW136107   9.734   3.478   3.073 -0.1946  1.5847  2.5999
 8043SOL    HW236108   9.669   3.349   3.117  1.3634 -0.6492 -1.2339
 8044SOL     OW36109   0.262   3.957   0.318  0.1280  0.2864 -0.3080
 8044SOL    HW136110   0.353   3.974   0.293  0.2827  1.1694  0.7390
 8044SOL    HW236111   0.268   3.889   0.385  0.2395  1.6318  1.1315
 8045SOL     OW36112   6.627   7.420   4.846 -0.3551 -0.0679 -0.5018
 8045SOL    HW136113   6.703   7.476   4.829 -0.6895  1.0407  1.2917
 8045SOL    HW236114   6.650   7.372   4.925 -1.2039 -0.2984 -0.3834
 8046SOL     OW36115   1.393   1.940   1.464 -0.0684 -0.4014  0.2266
 8046SOL    HW136116   1.421   1.860   1.417  0.3582 -1.1503  1.7032
 8046SOL    HW236117   1.301   1.924   1.485 -1.7464  1.8013 -4.0803
 8047SOL     OW36118   5.916   8.731   4.034  0.4747  0.5065 -0.0680
 8047SOL    HW136119   5.990   8.671   4.025  1.4682  1.8631 -1.3515
 8047SOL    HW236120   5.895   8.757   3.944 -1.1393  0.6697  0.3242
 8048SOL     OW36121   0.032   6.445   7.517 -0.0747  0.1662  0.0662
 8048SOL    HW136122  -0.023   6.523   7.522  0.2075  0.3820 -0.1429
 8048SOL    HW236123   0.089   6.451   7.594  0.2242  0.3831 -0.1679
 8049SOL     OW36124   8.972   5.890   0.551 -0.7237  0.3534  0.0665
 8049SOL    HW136125   8.922   5.878   0.632  1.4152 -0.2031  1.3872
 8049SOL    HW236126   8.986   5.984   0.546 -0.8516  0.3924  0.3639
 8050SOL     OW36127   6.588   6.305   3.330  0.3811  0.2418 -0.3973
 8050SOL    HW136128   6.506   6.268   3.362  0.0601  1.0486 -0.2719
 8050SOL    HW236129   6.561   6.379   3.276  0.9965 -0.0030 -1.0453
 8051SOL     OW36130   8.463   2.678   2.149  0.1086  0.2421  0.0961
 8051SOL    HW136131   8.492   2.662   2.059  1.4473  0.1368  0.5115
 8051SOL    HW236132   8.544   2.673   2.201 -0.3924  1.7749  1.1117
 8052SOL     OW36133   0.711  10.316   5.415  0.1326 -0.2599  0.1000
 8052SOL    HW136134   0.643  10.297   5.479 -0.4664 -0.3683 -0.5674
 8052SOL    HW236135   0.679  10.392   5.367  0.9302  0.3052  0.4239
 8053SOL     OW36136   2.766   0.523   1.233 -0.1325  0.0673 -0.0980
 8053SOL    HW136137   2.851   0.481   1.246 -0.9360 -2.0980 -1.2779
 8053SOL    HW236138   2.787   0.611   1.204  1.7815 -0.8412 -1.7481
 8054SOL     OW36139   7.689   5.205   9.352 -0.3675  0.3113 -1.1725
 8054SOL    HW136140   7.725   5.264   9.418  0.2986 -0.2436 -1.0248
 8054SOL    HW236141   7.766   5.163   9.312 -0.7207  0.9760 -2.6399
 8055SOL     OW36142   0.410   3.020   6.146 -0.0251  0.1213 -0.2917
 8055SOL    HW136143   0.497   2.985   6.166  0.0931  0.1512 -0.7344
 8055SOL    HW236144   0.397   3.000   6.053 -0.2201  0.6815 -0.3911
 8056SOL     OW36145   5.645   2.772  10.284  0.0246 -0.3019 -0.3486
 8056SOL    HW136146   5.597   2.786  10.202 -1.8648 -0.4039  0.6881
 8056SOL    HW236147   5.713   2.840  10.284 -1.4065  1.1984 -0.9517
 8057SOL     OW36148   3.033   7.867   3.873  0.0137  0.2343 -0.4058
 8057SOL    HW136149   3.069   7.952   3.850  0.0418  0.6098  0.9396
 8057SOL    HW236150   3.061   7.809   3.802  0.2300  1.2791 -1.1943
 8058SOL     OW36151   8.453   3.276   5.410  0.6180  0.7319 -0.5057
 8058SOL    HW136152   8.498   3.361   5.402  1.7850  0.0215 -2.3293
 8058SOL    HW236153   8.518   3.218   5.449  0.1373  0.4546 -0.1091
 8059SOL     OW36154   8.684   6.507   5.587 -0.2288  0.3190 -0.5989
 8059SOL    HW136155   8.762   6.458   5.614 -0.7724  0.4929  1.4482
 8059SOL    HW236156   8.717   6.578   5.532  1.0109  0.1594 -0.0837
 8060SOL     OW36157   2.953   2.604   4.417  0.1462  0.0907 -0.4199
 8060SOL    HW136158   2.997   2.596   4.502  0.7619 -3.4064 -0.9360
 8060SOL    HW236159   2.864   2.629   4.439 -0.1775 -2.3445  1.5146
 8061SOL     OW36160   1.023   2.974   3.120 -0.0645 -0.3436  0.2819
 8061SOL    HW136161   1.009   2.905   3.186 -0.1132  0.1398  0.7870
 8061SOL    HW236162   0.947   3.031   3.130 -0.4978 -0.7109 -0.7752
 8062SOL     OW36163   4.802  10.211   1.471 -0.7302  0.0082  0.5606
 8062SOL    HW136164   4.793  10.163   1.554 -0.9225 -1.5080 -0.2989
 8062SOL    HW236165   4.766  10.152   1.405 -1.4509  1.5747 -0.5014
 8063SOL     OW36166   9.425   2.373   4.192  0.0259  0.4136  0.7356
 8063SOL    HW136167   9.409   2.385   4.099  0.6788  0.5112  0.6298
 8063SOL    HW236168   9.411   2.280   4.207  1.5028  0.0788  0.2010
 8064SOL     OW36169   5.830   3.908   1.833  0.2435 -0.2236  0.6418
 8064SOL    HW136170   5.770   3.902   1.907 -0.2743  1.3033  0.3887
 8064SOL    HW236171   5.804   3.837   1.775 -1.4319  0.4915  0.4742
 8065SOL     OW36172   7.146  10.105   5.462  0.2020 -0.5003  0.1643
 8065SOL    HW136173   7.132  10.108   5.367  0.1941  1.0656  0.2006
 8065SOL    HW236174   7.177  10.015   5.478 -1.8776 -1.4964 -1.0015
 8066SOL     OW36175   6.067   5.091   6.049 -0.0339 -0.3515  0.2759
 8066SOL    HW136176   5.979   5.122   6.070 -0.1147  0.3089 -0.9622
 8066SOL    HW236177   6.063   5.067   5.957  1.2387  0.2952  0.0302
 8067SOL     OW36178   0.900   2.707   4.252  0.0525 -0.1091  0.2152
 8067SOL    HW136179   0.897   2.618   4.287 -0.1728  0.4142  1.5774
 8067SOL    HW236180   0.984   2.742   4.280  0.7508 -0.3245 -1.4908
 8068SOL     OW36181   0.635   4.554   4.093  0.2403 -0.7161 -0.1415
 8068SOL    HW136182   0.692   4.630   4.108  0.3431 -0.6551 -0.7839
 8068SOL    HW236183   0.686   4.479   4.122  0.1188 -0.5371  0.5458
 8069SOL     OW36184   0.176   0.251  10.355  0.1167 -0.0200  0.8527
 8069SOL    HW136185   0.190   0.298  10.437 -4.0557  0.9946  1.2018
 8069SOL    HW236186   0.162   0.320  10.290 -1.7736 -0.7019  0.4599
 8070SOL     OW36187   6.029   0.583   3.335  0.6734 -0.7613  0.1179
 8070SOL    HW136188   6.019   0.511   3.272 -1.6844 -1.0545  0.7311
 8070SOL    HW236189   6.024   0.541   3.421  0.2071  0.0248  0.4831
 8071SOL     OW36190   5.498   8.559   5.415  0.6166  0.3610 -0.0374
 8071SOL    HW136191   5.447   8.499   5.361  1.5878  0.6020 -1.2628
 8071SOL    HW236192   5.559   8.504   5.464  0.8417  0.2708 -0.4203
 8072SOL     OW36193   4.879   7.793   1.202  0.7317  0.6659 -0.5099
 8072SOL    HW136194   4.893   7.855   1.131 -2.0583 -0.0698 -1.8198
 8072SOL    HW236195   4.813   7.834   1.258  1.3071  0.2871  0.4857
 8073SOL     OW36196   5.531   7.667   2.373 -0.1856  0.2737 -0.0124
 8073SOL    HW136197   5.555   7.676   2.281  0.6334  0.4522  0.2079
 8073SOL    HW236198   5.448   7.713   2.381 -0.6926 -0.4574 -0.8275
 8074SOL     OW36199   7.138   0.280   9.628  0.1249  0.0303  0.1936
 8074SOL    HW136200   7.090   0.345   9.680 -0.9759 -0.0785 -0.6616
 8074SOL    HW236201   7.071   0.218   9.600  0.7026  0.0463 -1.2936
 8075SOL     OW36202   1.142   5.444   7.303 -0.0628 -0.5560 -0.5050
 8075SOL    HW136203   1.164   5.351   7.299 -0.1612 -0.5482 -1.6782
 8075SOL    HW236204   1.210   5.486   7.250  0.1721  0.0857  0.2854
 8076SOL     OW36205   0.844   4.945   3.861 -0.6034 -0.1999  0.1814
 8076SOL    HW136206   0.763   4.896   3.843 -1.9766  1.8257  0.5013
 8076SOL    HW236207   0.906   4.878   3.890 -1.8464 -1.9670 -0.9906
 8077SOL     OW36208  10.196   2.854   2.465  0.1513  0.2338 -0.0952
 8077SOL    HW136209  10.198   2.824   2.556 -0.2573 -0.8548 -0.4313
 8077SOL    HW236210  10.187   2.949   2.472 -0.2348  0.1366  1.0031
 8078SOL     OW36211   3.634   8.386   4.262 -0.0503 -0.1983  0.3426
 8078SOL    HW136212   3.690   8.310   4.279  0.9026  0.4818  0.2910
 8078SOL    HW236213   3.581   8.360   4.187  0.2716 -0.8109  0.3213
 8079SOL     OW36214   4.666   9.831   7.309 -0.2525 -0.0342  0.1717
 8079SOL    HW136215   4.595   9.774   7.277  0.1781 -0.0327 -0.8435
 8079SOL    HW236216   4.676   9.807   7.401 -2.1287  0.5558  0.5873
 8080SOL     OW36217   9.371   5.040   7.182 -0.6704 -0.0725 -0.3974
 8080SOL    HW136218   9.395   4.959   7.137  2.4598  0.2065  0.5000
 8080SOL    HW236219   9.356   5.014   7.273  1.2552  0.3518  0.1044
 8081SOL     OW36220   3.602   2.534   7.190  0.0836  0.2630 -0.2370
 8081SOL    HW136221   3.551   2.461   7.224  0.1627 -0.0558 -0.7929
 8081SOL    HW236222   3.620   2.589   7.267 -0.5379  0.0434  0.0694
 8082SOL     OW36223   0.860   8.476   4.744 -0.1826 -0.4071  0.1524
 8082SOL    HW136224   0.834   8.446   4.831  0.6829 -0.1986  0.4875
 8082SOL    HW236225   0.937   8.530   4.759  0.1304 -0.5791 -0.7754
 8083SOL     OW36226   0.366   1.278   3.433 -0.1042 -0.4852 -0.3149
 8083SOL    HW136227   0.299   1.339   3.465  0.7845  0.3886 -0.0545
 8083SOL    HW236228   0.338   1.256   3.344  0.1695  1.2922 -0.8891
 8084SOL     OW36229   6.271   6.501   8.934  0.0565 -0.0783  0.3803
 8084SOL    HW136230   6.302   6.562   8.867  1.4552 -0.1237  0.9448
 8084SOL    HW236231   6.293   6.544   9.017 -0.0058 -0.8256  0.7933
 8085SOL     OW36232   9.982   5.968   3.008 -0.2652  0.2967  0.1558
 8085SOL    HW136233  10.021   6.052   3.029 -0.9572  1.0039 -1.2157
 8085SOL    HW236234  10.006   5.910   3.081 -0.3902  1.8601  1.4832
 8086SOL     OW36235  10.234   2.164   8.328 -0.1578 -0.0797  0.0280
 8086SOL    HW136236  10.223   2.220   8.252 -0.5132  2.3034  1.7264
 8086SOL    HW236237  10.326   2.175   8.353 -0.0415 -0.8522 -0.0189
 8087SOL     OW36238   8.614   5.131   4.971 -0.4641 -0.0857 -0.5579
 8087SOL    HW136239   8.551   5.145   5.042  1.3963  0.2615  1.1094
 8087SOL    HW236240   8.683   5.195   4.988 -0.0539  0.1590 -2.8494
 8088SOL     OW36241   0.211   4.735   8.002 -0.3838  0.2028 -0.8443
 8088SOL    HW136242   0.123   4.735   7.963 -0.9337  3.9900  0.0103
 8088SOL    HW236243   0.204   4.793   8.078  2.2693 -1.6008  0.9826
 8089SOL     OW36244   5.690   7.568   0.407 -0.4509  0.4959  0.2278
 8089SOL    HW136245   5.738   7.608   0.479 -0.1408  1.4090 -0.4625
 8089SOL    HW236246   5.739   7.592   0.328  0.3184 -2.0979 -0.1864
 8090SOL     OW36247   8.110   8.118   2.750  0.0662 -0.6069 -0.2129
 8090SOL    HW136248   8.133   8.158   2.834 -0.2129 -1.0281  0.0599
 8090SOL    HW236249   8.192   8.120   2.700  0.8213 -2.4457  0.8960
 8091SOL     OW36250   6.278   6.582  10.332 -0.2205 -0.3774  0.4840
 8091SOL    HW136251   6.277   6.573  10.427 -1.3339  1.6722  0.7247
 8091SOL    HW236252   6.361   6.626  10.312  0.4980 -1.7320  0.3567
 8092SOL     OW36253   6.802   1.393   6.491  0.9568 -0.1684 -0.1947
 8092SOL    HW136254   6.766   1.315   6.448  0.4118 -1.3529  2.2357
 8092SOL    HW236255   6.879   1.362   6.537  1.8630  1.1829 -0.7334
 8093SOL     OW36256   6.754   6.577   9.145  0.3783 -0.3694  0.4018
 8093SOL    HW136257   6.713   6.661   9.124 -2.0782 -1.0008  2.2192
 8093SOL    HW236258   6.818   6.599   9.213  0.4481  0.1674  0.1708
 8094SOL     OW36259   2.022   5.939   5.549 -0.6485  0.0495 -0.5465
 8094SOL    HW136260   1.969   6.018   5.548  0.4906  0.9304  2.0901
 8094SOL    HW236261   2.106   5.966   5.513 -0.8095 -0.4705 -1.3573
 8095SOL     OW36262   1.505   8.527   5.891  0.4701 -0.7919  0.4566
 8095SOL    HW136263   1.492   8.618   5.917 -0.7978 -1.0468  0.7640
 8095SOL    HW236264   1.567   8.532   5.818  0.8220  0.2602  0.7997
 8096SOL     OW36265   7.627   8.723   4.985 -0.3760  0.0832 -0.1464
 8096SOL    HW136266   7.604   8.734   5.077  1.1192 -0.0605  0.2669
 8096SOL    HW236267   7.657   8.633   4.978 -0.2458  0.1679 -0.7363
 8097SOL     OW36268   3.168   0.444   6.449  0.7506 -0.5225 -0.0513
 8097SOL    HW136269   3.164   0.538   6.430  3.1491 -0.5995 -1.3295
 8097SOL    HW236270   3.131   0.403   6.370 -0.4461 -0.6976  0.5725
 8098SOL     OW36271   1.482   1.898   0.858 -0.4784 -0.0754 -0.2089
 8098SOL    HW136272   1.564   1.935   0.893 -1.0815  1.7918 -0.6625
 8098SOL    HW236273   1.431   1.876   0.936 -0.4204  0.8289  0.1000
 8099SOL     OW36274   9.117   4.588   4.107 -0.8045  0.0106 -0.5023
 8099SOL    HW136275   9.189   4.544   4.152  2.1125  2.7398 -2.1604
 8099SOL    HW236276   9.106   4.671   4.154 -1.0796  0.7526 -1.8455
 8100SOL     OW36277   7.637   5.410   6.700 -0.5985  0.1709  0.1026
 8100SOL    HW136278   7.551   5.394   6.739 -0.7304 -0.4897 -0.4494
 8100SOL    HW236279   7.699   5.375   6.763 -0.4546  3.9032  2.3283
 8101SOL     OW36280   0.291   2.163   2.135  0.0711 -0.2969 -0.2383
 8101SOL    HW136281   0.346   2.100   2.088 -0.3012 -2.2584  1.7666
 8101SOL    HW236282   0.230   2.109   2.184 -0.0736  1.6224  1.8519
 8102SOL     OW36283   0.716   9.794   2.201  0.4028 -0.4635 -0.2405
 8102SOL    HW136284   0.765   9.876   2.196  0.4993 -0.4938  0.1618
 8102SOL    HW236285   0.635   9.811   2.153  0.2356  0.0045  0.2005
 8103SOL     OW36286   3.263   3.993   1.511 -0.4139 -0.0348  0.1772
 8103SOL    HW136287   3.233   3.957   1.595 -1.4770 -0.2153 -0.2646
 8103SOL    HW236288   3.325   4.062   1.535  0.3509 -0.9950  1.0804
 8104SOL     OW36289   2.284   2.996   3.564 -0.0513 -0.0391  0.2797
 8104SOL    HW136290   2.227   3.032   3.632 -0.8482  0.4438 -0.6257
 8104SOL    HW236291   2.366   2.978   3.609 -0.5459  0.3234  1.3593
 8105SOL     OW36292   4.612   1.763   7.453 -0.0262  0.0730 -0.0783
 8105SOL    HW136293   4.653   1.678   7.467  0.9914  0.4220 -0.7930
 8105SOL    HW236294   4.637   1.815   7.529  0.9481  0.2976 -0.5308
 8106SOL     OW36295   5.423   9.583   2.757  0.2726 -0.1064 -0.6181
 8106SOL    HW136296   5.344   9.543   2.794 -0.4308 -1.0032 -2.9066
 8106SOL    HW236297   5.393   9.664   2.717  0.1642 -1.1342 -2.7422
 8107SOL     OW36298   1.097   3.481   2.744  0.1731 -0.5005  0.1693
 8107SOL    HW136299   1.048   3.457   2.666 -0.5488 -2.3775  1.1400
 8107SOL    HW236300   1.042   3.454   2.817  0.7021  1.4479  1.3748
 8108SOL     OW36301   9.594   7.052  10.379 -0.2948 -0.3173  0.2181
 8108SOL    HW136302   9.560   7.122  10.435  1.5407 -0.2176  1.2962
 8108SOL    HW236303   9.532   6.980  10.392 -0.7390  0.2140  1.2171
 8109SOL     OW36304   1.189   5.579   8.177 -0.2826 -0.2499 -0.4555
 8109SOL    HW136305   1.211   5.571   8.270 -2.0089 -1.0322 -0.0737
 8109SOL    HW236306   1.271   5.559   8.131  0.6549  0.3575  0.8693
 8110SOL     OW36307   4.047   4.612   2.309 -0.3696 -0.0650 -0.6546
 8110SOL    HW136308   4.091   4.688   2.270  0.2358  0.2861  0.6403
 8110SOL    HW236309   3.957   4.618   2.278 -0.1672  0.8163 -1.1122
 8111SOL     OW36310   2.420   0.695   5.632  0.3507  0.3444 -0.2342
 8111SOL    HW136311   2.394   0.687   5.540 -1.1125 -0.4021  0.2279
 8111SOL    HW236312   2.397   0.611   5.671 -3.1812  2.0293  1.7846
 8112SOL     OW36313   9.657   8.732   3.303 -0.1973 -0.1600  0.0284
 8112SOL    HW136314   9.637   8.800   3.368 -2.9562 -0.2595 -0.5901
 8112SOL    HW236315   9.672   8.653   3.355 -1.7927 -0.1124  0.6115
 8113SOL     OW36316   7.872   2.185   1.117  0.5704 -0.5786 -0.1696
 8113SOL    HW136317   7.880   2.211   1.208 -0.9494  0.1210 -0.1969
 8113SOL    HW236318   7.862   2.268   1.069 -1.9390 -0.9937 -0.5348
 8114SOL     OW36319   7.256   0.547   9.537 -0.6792 -0.4689  0.1325
 8114SOL    HW136320   7.297   0.573   9.619 -0.7298  0.2329 -0.0631
 8114SOL    HW236321   7.229   0.456   9.552 -0.0723 -0.5726  0.6481
 8115SOL     OW36322  10.131   4.503   8.250  0.7552 -0.0591  0.1644
 8115SOL    HW136323  10.045   4.460   8.247  0.5390  0.3890 -0.0870
 8115SOL    HW236324  10.193   4.435   8.226  0.3279  0.0094 -1.2121
 8116SOL     OW36325   2.216   4.273   4.929  0.3993 -0.3310  0.3832
 8116SOL    HW136326   2.206   4.363   4.898 -3.0456 -0.5146  0.4690
 8116SOL    HW236327   2.237   4.281   5.021  3.5136  0.2720 -0.2866
 8117SOL     OW36328   9.705   5.508   0.961  0.5247  0.2479 -0.2204
 8117SOL    HW136329   9.797   5.535   0.963  0.8130 -0.7686  0.7063
 8117SOL    HW236330   9.707   5.419   0.926  0.0836 -0.4788  1.5288
 8118SOL     OW36331   0.067   8.299   4.250  0.0515 -0.1455  0.2913
 8118SOL    HW136332   0.075   8.323   4.158  0.8227  1.2069  0.6853
 8118SOL    HW236333   0.148   8.252   4.269 -0.8853 -2.0251 -0.1425
 8119SOL     OW36334   5.767   7.770   7.306 -0.3591 -0.1223  0.3118
 8119SOL    HW136335   5.828   7.710   7.263 -1.3778 -1.9715  1.3471
 8119SOL    HW236336   5.769   7.849   7.251  3.0143 -0.0219  0.3651
 8120SOL     OW36337   4.047   6.832   4.115  0.0796  0.1511  0.4326
 8120SOL    HW136338   4.110   6.900   4.091  0.5106 -0.3553  0.1145
 8120SOL    HW236339   3.994   6.820   4.036 -1.2700  1.4697  1.0789
 8121SOL     OW36340   3.130   4.157   3.639  0.5461  0.1486 -0.5471
 8121SOL    HW136341   3.180   4.115   3.709  1.3226  1.5187 -0.2275
 8121SOL    HW236342   3.113   4.087   3.576  1.0076 -0.8166  0.3688
 8122SOL     OW36343   3.099   3.808   0.958 -0.4967  0.1853  0.1859
 8122SOL    HW136344   3.020   3.845   0.917 -0.4775  1.3439  1.1650
 8122SOL    HW236345   3.080   3.810   1.052 -0.9991 -3.4462  0.3254
 8123SOL     OW36346   4.941  10.090   5.685 -0.8452  0.4573 -0.3552
 8123SOL    HW136347   5.035  10.070   5.688 -1.4310 -3.2336 -1.8554
 8123SOL    HW236348   4.936  10.183   5.706  3.0664  0.6482  0.4928
 8124SOL     OW36349   6.691   4.199   5.979  0.1042 -0.2795  0.2709
 8124SOL    HW136350   6.748   4.182   6.054  1.6919 -0.1866 -0.8815
 8124SOL    HW236351   6.748   4.191   5.903 -1.1534  1.0060 -0.8536
 8125SOL     OW36352   8.361   6.298   5.493 -0.0053  0.0330 -0.2663
 8125SOL    HW136353   8.268   6.313   5.514 -0.4321 -1.2451 -1.1529
 8125SOL    HW236354   8.383   6.218   5.540  0.3031 -0.3258 -1.0089
 8126SOL     OW36355   2.977   0.218   0.002  0.8265 -0.1088 -0.4754
 8126SOL    HW136356   2.956   0.200  -0.090  1.0257  1.5618 -0.8812
 8126SOL    HW236357   3.063   0.260  -0.001  0.6734  0.2904  0.4427
 8127SOL     OW36358   5.697   3.826   2.521 -0.4498  0.1384 -0.3927
 8127SOL    HW136359   5.632   3.806   2.589 -0.7647  1.1618 -0.3750
 8127SOL    HW236360   5.709   3.921   2.527  0.6146  0.0388 -0.7935
 8128SOL     OW36361   3.535   3.360   0.615  0.1111 -0.9022 -0.0211
 8128SOL    HW136362   3.556   3.413   0.538 -0.9583 -0.3436  0.0590
 8128SOL    HW236363   3.462   3.406   0.657  1.6258 -0.3435  2.1820
 8129SOL     OW36364   2.266   6.912   7.798  0.2421 -0.2477 -0.5961
 8129SOL    HW136365   2.303   6.877   7.879  1.0408  0.3999 -0.6634
 8129SOL    HW236366   2.340   6.952   7.753 -0.6135  1.6026 -0.4718
 8130SOL     OW36367   9.285   1.712   9.571  0.0927 -0.1675 -0.2240
 8130SOL    HW136368   9.294   1.780   9.638 -1.0465 -0.0246 -0.1881
 8130SOL    HW236369   9.265   1.760   9.491 -3.4967 -0.4589  0.3120
 8131SOL     OW36370   1.735   4.802   4.750  0.0475 -0.0092  0.1169
 8131SOL    HW136371   1.726   4.864   4.822 -1.1778  1.2336 -1.0510
 8131SOL    HW236372   1.699   4.720   4.784  1.0620  0.0694  1.4547
 8132SOL     OW36373   3.939   9.963   3.082  0.3839 -0.0833 -0.1264
 8132SOL    HW136374   3.893   9.907   3.144 -1.2318  0.4887 -0.7534
 8132SOL    HW236375   3.964  10.040   3.133 -1.9066  0.8924 -0.3203
 8133SOL     OW36376   4.894   4.009   0.419  0.1967 -0.7325  0.5573
 8133SOL    HW136377   4.942   4.090   0.437  2.8670 -2.0594 -0.1188
 8133SOL    HW236378   4.904   3.957   0.499 -0.6158 -0.8103  0.6122
 8134SOL     OW36379   5.276   3.370   6.177 -0.2463  0.1793 -0.2604
 8134SOL    HW136380   5.183   3.389   6.190  0.0634  0.9347  1.0513
 8134SOL    HW236381   5.287   3.372   6.082 -1.5921 -0.0910 -0.4529
 8135SOL     OW36382   0.414   5.054   6.927  0.5035 -0.2309  0.0728
 8135SOL    HW136383   0.322   5.033   6.911  0.4084  0.6322 -0.5828
 8135SOL    HW236384   0.411   5.137   6.976  0.8943 -1.1390  1.7362
 8136SOL     OW36385   4.145   6.625   3.520  0.2182 -0.3702 -0.7925
 8136SOL    HW136386   4.092   6.560   3.472  0.2310 -0.1170 -1.1560
 8136SOL    HW236387   4.231   6.621   3.477  0.3484 -0.4238 -0.5284
 8137SOL     OW36388   8.973   2.296   8.540  0.2839 -0.3839  0.0638
 8137SOL    HW136389   9.029   2.318   8.614  2.7711 -1.7801 -1.2958
 8137SOL    HW236390   8.952   2.380   8.500  0.6554  0.2233  1.1025
 8138SOL     OW36391   1.117   6.682   5.913  0.4148 -0.4152 -0.4094
 8138SOL    HW136392   1.137   6.616   5.847  2.4663 -1.6884  1.3634
 8138SOL    HW236393   1.201   6.702   5.954 -0.3750  2.2495  0.1237
 8139SOL     OW36394   1.467   7.604   9.723 -0.1637 -0.1448  0.3307
 8139SOL    HW136395   1.488   7.695   9.748 -1.3652  0.7281 -1.6245
 8139SOL    HW236396   1.372   7.603   9.715 -0.0428 -1.0502 -1.5237
 8140SOL     OW36397   8.870   2.427   2.895 -0.5040  0.0179  0.0396
 8140SOL    HW136398   8.877   2.473   2.812 -0.9542  1.8196  0.9542
 8140SOL    HW236399   8.960   2.413   2.923 -0.3070 -1.6480 -1.2465
 8141SOL     OW36400   9.828   5.056   6.014  0.5060 -0.6027  0.0068
 8141SOL    HW136401   9.863   5.114   5.946  0.2164 -0.7951 -0.3035
 8141SOL    HW236402   9.830   4.969   5.975 -0.4880 -0.5956 -0.0812
 8142SOL     OW36403   4.545   5.550   8.508 -0.4700 -0.3340 -0.5262
 8142SOL    HW136404   4.594   5.482   8.462  0.3538 -0.1915  0.1161
 8142SOL    HW236405   4.502   5.600   8.439  1.3404  0.3379 -1.2052
 8143SOL     OW36406   2.459   7.068   1.579 -0.9680 -0.3683  0.0025
 8143SOL    HW136407   2.519   6.998   1.551 -0.5662  0.8376 -2.4438
 8143SOL    HW236408   2.412   7.031   1.654 -2.0182 -3.9284 -2.1666
 8144SOL     OW36409   5.109   6.550   5.731  0.4002 -0.5359 -0.2631
 8144SOL    HW136410   5.069   6.472   5.694 -1.8197  0.3446  0.1207
 8144SOL    HW236411   5.059   6.566   5.812  1.8023  0.4304  0.4542
 8145SOL     OW36412   7.173   9.366   1.857  0.7142 -0.7572 -0.0381
 8145SOL    HW136413   7.111   9.419   1.907  0.7491  0.3662 -1.1333
 8145SOL    HW236414   7.258   9.384   1.898  0.5527 -1.0038  0.4132
 8146SOL     OW36415   6.963   7.082   7.308 -0.2216 -0.2809 -0.1389
 8146SOL    HW136416   6.940   7.103   7.217 -1.3447  1.0394  0.4210
 8146SOL    HW236417   7.059   7.093   7.311 -0.2283  0.1013 -1.0563
 8147SOL     OW36418   0.809   0.848   1.040  0.5841 -0.0865  0.1211
 8147SOL    HW136419   0.851   0.901   0.972  0.9895  0.6582  0.9390
 8147SOL    HW236420   0.778   0.912   1.104  1.3666 -0.8488  1.2866
 8148SOL     OW36421   2.462   0.567   1.841  0.3636 -0.0687  0.1647
 8148SOL    HW136422   2.467   0.651   1.795 -1.1676  0.6221  1.1699
 8148SOL    HW236423   2.393   0.580   1.907 -1.4079 -2.7611 -0.9962
 8149SOL     OW36424   1.401   7.128   3.599 -0.1322  0.1921 -0.0288
 8149SOL    HW136425   1.396   7.218   3.567 -1.3054  0.4760  0.9073
 8149SOL    HW236426   1.347   7.078   3.537  2.1905 -0.2922 -1.8016
 8150SOL     OW36427   5.281   4.976   9.114  0.0589  0.0544 -0.4486
 8150SOL    HW136428   5.199   4.954   9.158  0.5063  1.3125  1.0928
 8150SOL    HW236429   5.347   4.926   9.161  0.4233  0.6600 -0.3103
 8151SOL     OW36430   7.058   4.242   8.796 -0.2797 -0.0823  0.0036
 8151SOL    HW136431   7.138   4.202   8.829 -0.4635 -1.6629 -1.3334
 8151SOL    HW236432   7.088   4.313   8.740  0.1228  0.2983  0.6824
 8152SOL     OW36433  10.134   5.524   6.282 -0.2012 -0.6075  0.0350
 8152SOL    HW136434  10.149   5.599   6.224 -0.8248  0.0734  0.7159
 8152SOL    HW236435  10.094   5.458   6.225 -2.0524  0.5337 -0.0748
 8153SOL     OW36436   5.093   8.095   6.799  0.3709 -0.1086 -0.4110
 8153SOL    HW136437   5.069   8.145   6.721  2.1387  0.8958 -0.3475
 8153SOL    HW236438   5.077   8.154   6.872  0.6227 -0.3282 -0.1766
 8154SOL     OW36439   6.486  10.049   0.089 -0.2230  0.4073 -0.2179
 8154SOL    HW136440   6.568  10.096   0.076  0.0949  0.0425  0.4181
 8154SOL    HW236441   6.425  10.089   0.027  0.0430  1.6631  0.2960
 8155SOL     OW36442   7.546   6.198   8.359  0.5257 -0.3710  0.0231
 8155SOL    HW136443   7.626   6.223   8.404  0.9235 -1.1563 -0.2214
 8155SOL    HW236444   7.577   6.156   8.278 -0.1542  0.3091 -0.6014
 8156SOL     OW36445   4.614   3.901   6.572  0.6134 -0.1664 -0.3600
 8156SOL    HW136446   4.576   3.982   6.604 -1.3501 -0.4132 -1.8807
 8156SOL    HW236447   4.647   3.857   6.651 -1.3228  0.5834  0.9407
 8157SOL     OW36448   6.025   9.885   9.577 -0.0142 -0.3811  0.2428
 8157SOL    HW136449   6.004   9.798   9.544  0.5208 -0.1987 -0.6076
 8157SOL    HW236450   6.113   9.876   9.614 -0.1833 -0.3330  0.6586
 8158SOL     OW36451   6.037   3.224   5.576 -0.3430  0.0001  0.1218
 8158SOL    HW136452   5.980   3.199   5.504 -0.3190 -0.9364  0.4124
 8158SOL    HW236453   6.054   3.142   5.623 -2.6730  0.9505  2.9013
 8159SOL     OW36454   0.017   6.557   8.591 -0.6376  0.4360 -0.2621
 8159SOL    HW136455  -0.021   6.475   8.559  0.1944  0.5057 -1.4818
 8159SOL    HW236456   0.086   6.578   8.528 -0.0667  1.4759  0.6747
 8160SOL     OW36457   1.042   1.984   6.970  0.3577  0.1369  0.0678
 8160SOL    HW136458   0.950   1.971   6.950  0.3097 -2.3274  1.4640
 8160SOL    HW236459   1.088   1.950   6.893  0.0858 -0.8318  0.3136
 8161SOL     OW36460   2.206   8.046   6.117  0.0531 -0.0019 -0.1779
 8161SOL    HW136461   2.172   8.104   6.186  0.6381  1.2171 -0.8764
 8161SOL    HW236462   2.241   8.106   6.051 -1.0977 -1.1276 -1.8627
 8162SOL     OW36463   0.107  10.033   4.263  0.4286  0.4618  0.1515
 8162SOL    HW136464   0.186   9.982   4.278  1.7124  1.8117 -1.5598
 8162SOL    HW236465   0.096  10.083   4.344 -0.7677 -2.2449  1.7946
 8163SOL     OW36466   6.917   2.032   8.580 -0.2263  0.4721  0.3662
 8163SOL    HW136467   6.946   2.072   8.497 -0.2623 -0.5511 -0.1511
 8163SOL    HW236468   6.823   2.049   8.583 -0.1814  0.7306  0.3178
 8164SOL     OW36469   3.130   3.013   5.016  0.0447 -0.0076  0.1222
 8164SOL    HW136470   3.072   2.989   4.944 -1.8577 -0.4731  1.7360
 8164SOL    HW236471   3.166   2.929   5.046  0.2995  0.1140  0.1578
 8165SOL     OW36472   7.831   0.863   1.718  0.5684  0.2533 -0.0157
 8165SOL    HW136473   7.767   0.794   1.735  1.2194 -0.5060 -0.6185
 8165SOL    HW236474   7.778   0.937   1.686 -0.3126  0.6330  2.1621
 8166SOL     OW36475   3.358   0.234   4.122 -0.5008  0.3533 -0.2736
 8166SOL    HW136476   3.339   0.192   4.206 -0.6536 -1.3255 -1.0956
 8166SOL    HW236477   3.376   0.325   4.144  1.1834 -0.3963  1.7793
 8167SOL     OW36478   0.779   1.412   3.160 -0.0370 -0.3622 -0.5823
 8167SOL    HW136479   0.809   1.323   3.180  0.1928 -0.2204 -0.2797
 8167SOL    HW236480   0.684   1.408   3.169 -0.0182 -0.5522 -0.4603
 8168SOL     OW36481   6.968   3.949   3.342  0.2124  0.3997  1.0331
 8168SOL    HW136482   6.962   4.030   3.292 -0.6034 -0.3899 -0.2214
 8168SOL    HW236483   7.010   3.887   3.282 -0.0801 -0.3738  1.6078
 8169SOL     OW36484   7.455   2.035   1.936  0.1071  0.6510  0.2254
 8169SOL    HW136485   7.515   2.053   1.864 -0.9855 -0.2871 -0.9868
 8169SOL    HW236486   7.451   1.939   1.940  0.4522  0.6785  1.8161
 8170SOL     OW36487   4.655   4.737   6.528  0.5908 -0.4663  0.2690
 8170SOL    HW136488   4.646   4.698   6.615  1.0958 -0.1284  0.4797
 8170SOL    HW236489   4.584   4.801   6.523  1.3887  0.4961  0.9783
 8171SOL     OW36490   2.121   2.195   6.194  0.8704  0.3278  0.6284
 8171SOL    HW136491   2.065   2.138   6.247  0.9990 -1.4124 -1.0184
 8171SOL    HW236492   2.118   2.279   6.239 -3.1605  0.3981  0.6297
 8172SOL     OW36493   8.470   2.781   9.521  0.5661 -0.3909 -0.3820
 8172SOL    HW136494   8.409   2.851   9.544 -0.9317 -2.0397  0.9844
 8172SOL    HW236495   8.549   2.802   9.571  0.5022  0.8028 -0.7372
 8173SOL     OW36496   6.129   0.718   6.935 -0.0536 -0.3399 -0.0891
 8173SOL    HW136497   6.204   0.722   6.876 -0.3282  0.5197 -0.3951
 8173SOL    HW236498   6.157   0.661   7.007 -0.1084 -2.3919 -1.6092
 8174SOL     OW36499   3.797   9.548   2.832 -0.7177 -0.0516 -0.5539
 8174SOL    HW136500   3.801   9.582   2.743  1.0676  0.3114 -0.3805
 8174SOL    HW236501   3.824   9.622   2.887 -1.0656 -0.4879  0.2269
 8175SOL     OW36502   7.020   0.057   9.914 -0.0673 -0.1594  0.6144
 8175SOL    HW136503   7.017   0.138   9.963 -1.7883 -0.5279  1.1979
 8175SOL    HW236504   6.943   0.008   9.944 -1.1220 -0.4683 -2.3144
 8176SOL     OW36505   0.421   2.209   9.539  0.3900 -0.4872 -0.2529
 8176SOL    HW136506   0.348   2.155   9.509 -0.7683  1.6310 -1.5895
 8176SOL    HW236507   0.383   2.264   9.608  1.3665 -0.9629  0.6782
 8177SOL     OW36508   3.435   1.611   6.833  0.0284  0.0100  0.0984
 8177SOL    HW136509   3.463   1.660   6.910 -1.7163  1.0918  0.0957
 8177SOL    HW236510   3.468   1.662   6.759 -0.5163  0.3869  0.1118
 8178SOL     OW36511   1.710   1.820   5.774  0.3522 -0.5772 -0.0094
 8178SOL    HW136512   1.772   1.893   5.776  1.2445 -1.3255  0.0900
 8178SOL    HW236513   1.755   1.751   5.726 -0.5135 -1.0471 -0.1703
 8179SOL     OW36514   5.004   0.969   2.215 -0.0132  0.4106 -0.2767
 8179SOL    HW136515   5.015   1.005   2.303  0.6573 -1.6671  0.5600
 8179SOL    HW236516   5.088   0.985   2.172  0.3170 -0.1817  0.1261
 8180SOL     OW36517   0.745   6.166   4.862 -0.1679  0.4538 -0.1016
 8180SOL    HW136518   0.670   6.107   4.857  1.0127 -1.0292 -1.5039
 8180SOL    HW236519   0.728   6.232   4.795  0.1257 -0.3370 -0.9729
 8181SOL     OW36520   9.623   8.307  10.022  0.6788 -0.0948 -0.2130
 8181SOL    HW136521   9.660   8.244   9.961  2.4999  0.0843  0.6339
 8181SOL    HW236522   9.692   8.319  10.089  0.2599  2.4699 -0.1482
 8182SOL     OW36523  10.345   4.367   5.385 -0.2323 -0.3930  0.0226
 8182SOL    HW136524  10.315   4.276   5.393 -1.0414  0.0446  2.7354
 8182SOL    HW236525  10.265   4.418   5.376  0.2428  0.0769 -2.1307
 8183SOL     OW36526   6.493   6.784   6.844  0.3522 -0.6204 -0.0744
 8183SOL    HW136527   6.496   6.807   6.937 -2.5759  1.9816 -0.4729
 8183SOL    HW236528   6.585   6.783   6.818  1.1824  0.7857  2.3934
 8184SOL     OW36529   0.823   5.793   4.588  0.1148  0.1740  0.1416
 8184SOL    HW136530   0.746   5.850   4.579  1.1158  1.6717  0.7213
 8184SOL    HW236531   0.788   5.713   4.628 -1.1645  0.7760  0.2896
 8185SOL     OW36532   5.232   2.280   0.320  0.2819  0.0132  0.5734
 8185SOL    HW136533   5.249   2.207   0.379 -0.3265 -0.0537  0.6744
 8185SOL    HW236534   5.290   2.265   0.245  1.2350  0.2321  1.2498
 8186SOL     OW36535  10.231   8.277   5.851 -0.1468  0.2300  0.9155
 8186SOL    HW136536  10.206   8.235   5.934 -0.5971 -0.0477  0.6474
 8186SOL    HW236537  10.319   8.243   5.833 -0.6837 -0.9713  0.4765
 8187SOL     OW36538   9.639   4.320   2.916 -0.2605 -0.5244  0.3701
 8187SOL    HW136539   9.588   4.396   2.889 -0.1698 -0.4573  0.3871
 8187SOL    HW236540   9.730   4.350   2.914  0.0913 -1.4658 -2.4894
 8188SOL     OW36541   6.078   8.925   8.287  0.1891  0.4642 -0.0258
 8188SOL    HW136542   6.106   8.876   8.209 -1.0686  0.0205 -0.2224
 8188SOL    HW236543   6.131   9.005   8.285 -0.3378  0.8272 -1.7627
 8189SOL     OW36544   5.254   9.015   7.165  0.1465 -0.1723  0.1399
 8189SOL    HW136545   5.285   8.969   7.087  2.0302  1.4393 -0.1093
 8189SOL    HW236546   5.309   9.093   7.171  0.4503 -0.5201  3.4105
 8190SOL     OW36547   8.733   6.933   0.375 -0.0215  0.6911  0.3592
 8190SOL    HW136548   8.662   6.943   0.311  0.3281 -1.1811 -0.3617
 8190SOL    HW236549   8.810   6.968   0.331 -0.1701  1.3047  0.5677
 8191SOL     OW36550   6.755   2.684   1.011  0.3810 -0.2550 -0.0265
 8191SOL    HW136551   6.689   2.653   0.949 -0.9167 -1.3683  1.8207
 8191SOL    HW236552   6.727   2.773   1.033 -0.9071 -0.9253  1.1879
 8192SOL     OW36553   5.561   5.529   0.922  0.2478 -0.0639 -0.2134
 8192SOL    HW136554   5.543   5.436   0.937  1.0453 -0.4922 -1.7034
 8192SOL    HW236555   5.477   5.567   0.900 -0.3329 -0.1187  1.6927
 8193SOL     OW36556   2.832   4.644   0.180 -0.0928  0.2269 -0.1412
 8193SOL    HW136557   2.752   4.627   0.229  0.9677 -1.7091  1.0404
 8193SOL    HW236558   2.883   4.564   0.188  1.3039  0.8103 -2.2194
 8194SOL     OW36559   4.322   6.863   7.809  0.3419 -0.3251 -0.6127
 8194SOL    HW136560   4.389   6.899   7.868 -0.1464 -0.6818  0.1799
 8194SOL    HW236561   4.285   6.940   7.766 -0.9084  0.2025  1.2995
 8195SOL     OW36562   1.046   6.059   2.876  0.6627 -0.4357 -0.4084
 8195SOL    HW136563   1.098   5.987   2.841  1.3216 -0.2477  0.1511
 8195SOL    HW236564   0.961   6.020   2.896  0.7701 -0.8799 -0.8203
 8196SOL     OW36565   7.263   7.302   9.049 -0.4842 -0.7963  0.1592
 8196SOL    HW136566   7.204   7.227   9.054  2.2666 -3.0550  2.1480
 8196SOL    HW236567   7.319   7.293   9.126 -0.8591  4.2066  1.3798
 8197SOL     OW36568   0.126   3.634   2.770 -0.2656 -0.8179  1.0028
 8197SOL    HW136569   0.117   3.648   2.864  0.3863 -3.4826  1.5349
 8197SOL    HW236570   0.072   3.556   2.752 -1.3775  0.3389 -1.0898
 8198SOL     OW36571   3.177   6.084   8.136 -0.1935  0.1062  0.4275
 8198SOL    HW136572   3.211   6.102   8.223  2.2012 -2.1054  0.0599
 8198SOL    HW236573   3.130   6.164   8.112 -0.8782  0.8091  3.6576
 8199SOL     OW36574   0.067   5.369   5.816 -0.0109 -0.4906  0.1595
 8199SOL    HW136575   0.018   5.298   5.858 -0.7174  0.3461  0.7853
 8199SOL    HW236576   0.148   5.376   5.867 -0.9858  0.7091  1.6141
 8200SOL     OW36577   2.286   8.534   9.464 -0.3002 -0.4558 -0.5704
 8200SOL    HW136578   2.320   8.444   9.470  1.3596 -0.0645 -3.0385
 8200SOL    HW236579   2.360   8.589   9.488 -1.6741  0.3413  2.2585
 8201SOL     OW36580   6.892   8.244   3.776  0.1359  0.2469 -0.6525
 8201SOL    HW136581   6.809   8.288   3.754  0.7087  0.9781 -1.3869
 8201SOL    HW236582   6.959   8.297   3.734  1.0390  0.0280  0.4713
 8202SOL     OW36583   7.007   6.439   4.752 -0.0742 -0.3419  0.0775
 8202SOL    HW136584   6.969   6.363   4.795 -1.7600 -0.3185 -1.2968
 8202SOL    HW236585   7.071   6.472   4.815 -0.0838 -2.2334  1.1484
 8203SOL     OW36586   8.945   7.364   2.323  0.0476 -0.4761 -0.1355
 8203SOL    HW136587   8.863   7.315   2.320 -0.6050  0.3770  2.0466
 8203SOL    HW236588   8.939   7.425   2.249 -1.2901 -0.4362 -0.0193
 8204SOL     OW36589   0.103   3.466   6.390 -0.3836  0.0465 -0.1952
 8204SOL    HW136590   0.149   3.393   6.430 -0.7339  0.4859  1.0392
 8204SOL    HW236591   0.144   3.476   6.304  0.6295 -0.6811  0.1908
 8205SOL     OW36592   2.770   4.246   1.190 -0.1481  0.2437  0.7494
 8205SOL    HW136593   2.724   4.163   1.181 -0.4423  0.4954 -0.3363
 8205SOL    HW236594   2.767   4.267   1.283 -0.6767 -0.6200  0.9285
 8206SOL     OW36595   8.762   7.895   0.041  0.0287  0.2716  0.4164
 8206SOL    HW136596   8.810   7.900   0.124  1.3593 -1.2297 -0.2086
 8206SOL    HW236597   8.770   7.983   0.004  0.6665  0.5695  1.2114
 8207SOL     OW36598   2.792   2.458   6.109  0.1553  0.5961  0.6216
 8207SOL    HW136599   2.830   2.506   6.182  0.6398 -0.0905  0.8309
 8207SOL    HW236600   2.847   2.480   6.034  1.0613 -0.4816  0.9466
 8208SOL     OW36601   4.615   0.819   6.270 -0.5818  0.2941 -0.1224
 8208SOL    HW136602   4.550   0.882   6.239  0.6339  1.4660 -0.3676
 8208SOL    HW236603   4.687   0.872   6.301  0.9537 -0.9858 -1.3216
 8209SOL     OW36604   0.821   0.730   5.103  0.4737  0.6854 -0.4829
 8209SOL    HW136605   0.808   0.700   5.013 -1.2566 -3.8918  1.0126
 8209SOL    HW236606   0.737   0.770   5.127 -0.2325 -0.9932 -0.0336
 8210SOL     OW36607  10.036   5.813   1.178 -0.0737 -0.1643  0.0263
 8210SOL    HW136608  10.127   5.806   1.205 -0.2235 -1.3174  0.2926
 8210SOL    HW236609  10.029   5.756   1.101 -0.2402  1.0775 -0.9073
 8211SOL     OW36610   5.754   5.722   6.071 -0.0273 -0.7437  0.0946
 8211SOL    HW136611   5.710   5.681   5.997 -0.7852  0.7899 -0.3476
 8211SOL    HW236612   5.845   5.690   6.065 -0.5634 -2.2926 -0.2141
 8212SOL     OW36613   7.212   6.806   1.945  0.2845 -0.0735  0.1550
 8212SOL    HW136614   7.275   6.876   1.933  0.8590 -0.7441 -0.9590
 8212SOL    HW236615   7.240   6.738   1.883 -0.2925 -1.2525  1.1448
 8213SOL     OW36616   6.662   4.789  10.353 -0.7694 -0.0263  0.1425
 8213SOL    HW136617   6.682   4.763  10.443 -0.2230 -1.0506 -0.2539
 8213SOL    HW236618   6.748   4.797  10.311 -1.0022 -3.4953 -1.3308
 8214SOL     OW36619  10.310   4.948   0.527  0.3075 -0.4573 -0.0552
 8214SOL    HW136620  10.300   4.878   0.462 -0.9853  0.1067 -0.4907
 8214SOL    HW236621  10.248   4.926   0.596  0.0061  0.1832 -0.1233
 8215SOL     OW36622   7.117   8.467   5.318 -0.1014  0.6543 -0.2402
 8215SOL    HW136623   7.177   8.404   5.357 -0.0023 -0.8641 -2.6320
 8215SOL    HW236624   7.172   8.544   5.302  1.0116 -0.3216 -1.3924
 8216SOL     OW36625   8.971   3.174   3.704 -0.0436  0.0588 -0.1449
 8216SOL    HW136626   9.004   3.264   3.695  1.7141 -0.5663 -0.3612
 8216SOL    HW236627   8.975   3.139   3.615 -1.0179 -0.1695 -0.1158
 8217SOL     OW36628   7.610   4.794   9.387  0.0268 -0.1136 -0.3874
 8217SOL    HW136629   7.653   4.745   9.316 -1.3624  0.6139 -1.7915
 8217SOL    HW236630   7.599   4.882   9.352 -0.8427  0.2280  0.6861
 8218SOL     OW36631   0.404   3.672   9.792 -0.6281  0.1096  0.5967
 8218SOL    HW136632   0.347   3.604   9.756 -0.7228  1.2163 -1.4986
 8218SOL    HW236633   0.489   3.629   9.801 -0.9625 -0.6063  0.4482
 8219SOL     OW36634   7.966   9.004   5.662 -0.0488  0.3121  0.3349
 8219SOL    HW136635   7.920   9.055   5.730 -1.3043 -1.7675  1.1316
 8219SOL    HW236636   7.899   8.989   5.595  1.0195  1.8239 -1.1407
 8220SOL     OW36637   4.673   0.952   1.344 -0.5723 -0.4792 -0.3373
 8220SOL    HW136638   4.688   0.888   1.413 -1.0135 -1.6854 -1.3189
 8220SOL    HW236639   4.758   0.962   1.301  0.3770  2.2076  1.8843
 8221SOL     OW36640   0.687   4.059   0.242 -0.7523  0.8310  0.3687
 8221SOL    HW136641   0.637   3.990   0.197 -0.4048  1.4227 -0.9912
 8221SOL    HW236642   0.651   4.062   0.330 -2.3896  0.5122 -0.2611
 8222SOL     OW36643   8.508   9.531   3.895 -0.3257  0.5865  0.0142
 8222SOL    HW136644   8.440   9.565   3.837 -1.8579  1.5815  2.2415
 8222SOL    HW236645   8.580   9.594   3.887  0.0440  0.0119 -1.6862
 8223SOL     OW36646   4.711   6.516   4.466  0.1402 -0.0991 -0.1246
 8223SOL    HW136647   4.688   6.598   4.511  1.3871  0.2609 -0.0996
 8223SOL    HW236648   4.628   6.482   4.434 -0.2718  1.9208 -1.3960
 8224SOL     OW36649   9.148   0.041   8.317  0.0292  0.5603 -0.2734
 8224SOL    HW136650   9.106   0.094   8.384 -0.9695  0.6149 -0.9061
 8224SOL    HW236651   9.230   0.012   8.356 -0.5059  0.6254  0.9471
 8225SOL     OW36652   7.478  10.073   1.279 -0.3533 -0.0351 -0.6923
 8225SOL    HW136653   7.399  10.021   1.262  0.3409 -0.6474 -2.2113
 8225SOL    HW236654   7.541  10.010   1.313 -0.0790  0.1675 -0.8221
 8226SOL     OW36655   3.067  10.311   3.027 -0.2881 -0.1030  0.2314
 8226SOL    HW136656   3.052  10.219   3.005 -1.5045 -0.1633  1.2000
 8226SOL    HW236657   3.008  10.328   3.101 -0.4336  1.5813 -0.2248
 8227SOL     OW36658   0.453   8.878   7.503 -0.4682  0.0696 -0.0991
 8227SOL    HW136659   0.383   8.900   7.442 -0.5943 -0.0287  0.0106
 8227SOL    HW236660   0.428   8.793   7.539 -0.1266 -0.1188 -0.3080
 8228SOL     OW36661   0.060   0.741   8.050  0.3448 -0.0372 -0.1009
 8228SOL    HW136662   0.051   0.754   8.145 -2.0573  0.2409 -0.3320
 8228SOL    HW236663   0.066   0.646   8.040  0.4792 -0.0750  0.3089
 8229SOL     OW36664   5.183   6.318   7.897  0.0075  0.0692 -0.6345
 8229SOL    HW136665   5.231   6.300   7.978  2.9460  0.5923 -2.1278
 8229SOL    HW236666   5.166   6.232   7.860  0.2317 -0.1065 -0.3351
 8230SOL     OW36667   7.012   5.780   6.491  0.3109 -0.5196  0.3482
 8230SOL    HW136668   7.042   5.759   6.579  0.2251  1.6891  0.9756
 8230SOL    HW236669   7.084   5.757   6.433  1.9934  1.5962  1.4644
 8231SOL     OW36670   1.415   8.373   4.507  0.0623 -0.0599 -0.0062
 8231SOL    HW136671   1.475   8.398   4.437  0.6437 -0.4041  0.3610
 8231SOL    HW236672   1.456   8.405   4.587 -1.0994  1.2461  0.0991
 8232SOL     OW36673   1.968  10.097   0.558 -0.7172  0.3495 -0.0522
 8232SOL    HW136674   2.061  10.085   0.577 -0.3000  1.5826 -1.1506
 8232SOL    HW236675   1.949  10.031   0.492 -0.5527  0.2359  0.0135
 8233SOL     OW36676   4.600   9.318   3.255  0.1477 -0.2130 -0.0828
 8233SOL    HW136677   4.606   9.345   3.163 -0.3768  0.7479  0.1570
 8233SOL    HW236678   4.686   9.283   3.276  0.1829 -0.7354 -1.0303
 8234SOL     OW36679   2.602   4.697   1.569  0.7218  0.4120  0.0994
 8234SOL    HW136680   2.691   4.700   1.535 -0.2537  0.7295 -2.7121
 8234SOL    HW236681   2.547   4.682   1.492 -1.7992  1.8024  1.4807
 8235SOL     OW36682   7.756   9.712   7.301 -0.0494 -0.1857  0.7084
 8235SOL    HW136683   7.842   9.718   7.261 -0.4659  0.2569 -0.1643
 8235SOL    HW236684   7.730   9.803   7.315  0.1181 -0.3309  2.0967
 8236SOL     OW36685   7.388   6.261   5.064  0.2897  0.1136  0.3380
 8236SOL    HW136686   7.364   6.312   4.986  1.4702 -0.4506 -0.4152
 8236SOL    HW236687   7.326   6.189   5.066  1.5855 -1.1443 -1.4047
 8237SOL     OW36688   0.911   4.378   9.480  0.7083  0.4408  0.3534
 8237SOL    HW136689   0.824   4.418   9.490  0.9966  0.6517  2.3753
 8237SOL    HW236690   0.962   4.412   9.553  2.2022 -0.4909 -0.2055
 8238SOL     OW36691   3.781   6.543   7.865  0.4835  0.2053  0.1578
 8238SOL    HW136692   3.738   6.616   7.818 -0.7878 -0.5738  0.0670
 8238SOL    HW236693   3.749   6.465   7.821  1.5831 -0.4375  0.4736
 8239SOL     OW36694   3.341   1.642   5.572  0.4232 -0.1190 -0.6700
 8239SOL    HW136695   3.365   1.549   5.573 -1.2880 -0.5837 -0.4458
 8239SOL    HW236696   3.424   1.688   5.590  0.9572 -1.6814  1.2626
 8240SOL     OW36697   1.835   7.501   9.890 -0.3578 -0.0476 -0.1510
 8240SOL    HW136698   1.779   7.439   9.936  1.3264 -1.5172 -0.0049
 8240SOL    HW236699   1.805   7.498   9.799 -0.3442 -1.0359 -0.1308
 8241SOL     OW36700   9.843   1.138   9.201  0.0982 -0.1973  0.3096
 8241SOL    HW136701   9.769   1.086   9.233 -0.4626  0.5607  0.2657
 8241SOL    HW236702   9.869   1.191   9.276  0.7457 -0.6106  0.3872
 8242SOL     OW36703   3.177  10.054   4.441  0.0696  0.0911 -0.2422
 8242SOL    HW136704   3.160  10.136   4.488 -0.8126  0.4367 -1.1243
 8242SOL    HW236705   3.220  10.082   4.360  0.0989 -0.3490 -0.3789
 8243SOL     OW36706   9.584   7.733   8.871  0.1333  1.1351  0.3816
 8243SOL    HW136707   9.497   7.773   8.871  0.0166  0.8841  0.5499
 8243SOL    HW236708   9.641   7.800   8.910  0.0582  1.3870  0.0622
 8244SOL     OW36709   5.575   4.283   5.649  0.3546 -0.6335  0.4429
 8244SOL    HW136710   5.535   4.317   5.729  0.8158  0.0030  0.4150
 8244SOL    HW236711   5.659   4.328   5.643  0.3120 -0.6435 -0.4212
 8245SOL     OW36712   7.459   1.286   7.871  0.3406 -0.0054  0.1625
 8245SOL    HW136713   7.449   1.196   7.839  0.8600 -0.3952  1.0708
 8245SOL    HW236714   7.551   1.307   7.854 -0.0039  0.7324 -0.9548
 8246SOL     OW36715   7.540   2.883   8.688 -0.0662 -0.5816 -0.0902
 8246SOL    HW136716   7.475   2.882   8.759 -0.0603 -0.4250 -0.0824
 8246SOL    HW236717   7.562   2.791   8.674  0.8774 -0.5338  0.9657
 8247SOL     OW36718   5.461   8.791   6.055 -0.9850  0.1775  0.3803
 8247SOL    HW136719   5.412   8.709   6.046  0.3063 -0.4096 -2.9267
 8247SOL    HW236720   5.548   8.763   6.086 -0.7265  0.3385 -0.1848
 8248SOL     OW36721   3.089   9.814   1.087  0.0438  0.2127  0.2916
 8248SOL    HW136722   3.129   9.747   1.143  1.4161  2.0756  1.6830
 8248SOL    HW236723   3.058   9.881   1.149 -1.2836  0.8780 -1.0440
 8249SOL     OW36724   4.221   3.630   6.559 -0.1010 -0.4265 -0.2060
 8249SOL    HW136725   4.173   3.677   6.628  1.6838 -0.1470  0.8994
 8249SOL    HW236726   4.307   3.672   6.557  0.0470 -0.7158 -2.3425
 8250SOL     OW36727   2.318   7.328   2.289 -0.2265  0.3167 -0.2834
 8250SOL    HW136728   2.389   7.391   2.278 -0.8764  1.2213  0.5794
 8250SOL    HW236729   2.362   7.245   2.307  0.6237  0.7722 -0.2375
 8251SOL     OW36730   6.699   4.168   6.691 -0.2042 -0.0972  0.0162
 8251SOL    HW136731   6.674   4.248   6.645  1.5596  0.0161 -0.8362
 8251SOL    HW236732   6.641   4.101   6.657 -0.9773  0.6037 -0.0633
 8252SOL     OW36733   1.621   8.746   3.626  0.1442 -0.5436  0.0194
 8252SOL    HW136734   1.561   8.676   3.653 -0.0328 -0.2406  0.4172
 8252SOL    HW236735   1.707   8.718   3.657 -0.4367  1.2567  3.9300
 8253SOL     OW36736   3.866   6.015  10.241  0.1349  0.1323  0.3339
 8253SOL    HW136737   3.903   6.086  10.190  0.0022 -1.1223 -1.6019
 8253SOL    HW236738   3.774   6.012  10.217  0.4724 -1.7394 -0.9951
 8254SOL     OW36739   4.479   4.470   3.725  0.0302  0.7430  0.5278
 8254SOL    HW136740   4.423   4.445   3.651 -0.2086  0.8107  0.6844
 8254SOL    HW236741   4.435   4.433   3.802 -1.0468  2.7160  0.9368
 8255SOL     OW36742   3.455   8.680   8.468  0.2242 -0.4968 -0.0470
 8255SOL    HW136743   3.436   8.591   8.500 -1.9529 -0.2606 -0.5136
 8255SOL    HW236744   3.437   8.676   8.374 -3.0058  1.1054  0.3728
 8256SOL     OW36745   0.359   5.284   2.191  0.5336  0.0859  0.1404
 8256SOL    HW136746   0.312   5.350   2.140 -0.6210 -1.6790 -1.2097
 8256SOL    HW236747   0.410   5.236   2.127  0.8796 -0.7144  0.9876
 8257SOL     OW36748   3.104  10.065   8.461 -0.3729 -0.2796 -0.7305
 8257SOL    HW136749   3.155   9.995   8.420 -0.6243 -0.1796 -1.2209
 8257SOL    HW236750   3.168  10.135   8.476  0.6506 -1.7404  2.7410
 8258SOL     OW36751   1.133   9.630   6.500 -0.4382  0.0726  0.1490
 8258SOL    HW136752   1.046   9.593   6.510 -1.3975  2.3714  1.0345
 8258SOL    HW236753   1.169   9.587   6.422 -2.1026 -1.3432  0.1140
 8259SOL     OW36754   8.503   7.482   2.642  0.1987  0.3019  0.1010
 8259SOL    HW136755   8.592   7.501   2.670  1.2986 -1.2943 -2.0605
 8259SOL    HW236756   8.512   7.437   2.558 -2.3987 -3.3942  1.5053
 8260SOL     OW36757   5.844   2.294   5.746 -0.3910  0.3280 -0.2657
 8260SOL    HW136758   5.887   2.332   5.670 -1.2224  4.0913  0.9342
 8260SOL    HW236759   5.914   2.254   5.797  1.2572  3.2319 -0.0581
 8261SOL     OW36760   8.884   7.539   4.038  0.3317 -0.2605  0.0758
 8261SOL    HW136761   8.828   7.472   3.998  0.1484  0.4278 -0.8361
 8261SOL    HW236762   8.847   7.622   4.009  0.2643  0.2743  1.5870
 8262SOL     OW36763   8.435   0.376   5.925  0.0623 -0.3302 -0.3463
 8262SOL    HW136764   8.456   0.451   5.868  1.0547  0.8352  1.4673
 8262SOL    HW236765   8.411   0.415   6.009 -0.2064 -2.0372  0.4139
 8263SOL     OW36766   3.174   0.474   8.059  0.2309  0.3666  0.1906
 8263SOL    HW136767   3.096   0.431   8.094 -0.0777 -0.1035 -0.9965
 8263SOL    HW236768   3.248   0.427   8.097 -0.0551  0.6237  1.0913
 8264SOL     OW36769   6.105   3.207   9.604 -0.3408  0.7317 -0.1094
 8264SOL    HW136770   6.120   3.273   9.537 -1.4948 -0.1860 -1.3212
 8264SOL    HW236771   6.066   3.133   9.557  0.7652 -0.7736  1.2175
 8265SOL     OW36772   1.389   0.669   7.680  0.3336 -0.0916 -0.2917
 8265SOL    HW136773   1.425   0.757   7.667  0.4098  0.1256  1.2667
 8265SOL    HW236774   1.457   0.611   7.647  0.1189  0.4117 -1.7186
 8266SOL     OW36775   5.299   4.594   6.920 -0.1445  0.8262 -0.3514
 8266SOL    HW136776   5.264   4.515   6.878  0.6111 -0.0185  0.5550
 8266SOL    HW236777   5.304   4.571   7.013  4.3347  0.2331 -0.5359
 8267SOL     OW36778   5.388   7.816   2.989 -0.6166  0.0322 -0.6438
 8267SOL    HW136779   5.412   7.725   2.971  1.8734  0.5466 -0.2993
 8267SOL    HW236780   5.434   7.866   2.920 -3.3877  0.9664 -1.9576
 8268SOL     OW36781   8.580   6.691   6.120 -0.1681 -0.0766 -0.0849
 8268SOL    HW136782   8.533   6.753   6.176  0.3100  1.2915 -1.1375
 8268SOL    HW236783   8.668   6.728   6.112 -0.2865 -0.0924 -1.9118
 8269SOL     OW36784   4.623   2.121   2.382  0.6916 -0.1749 -0.3170
 8269SOL    HW136785   4.530   2.108   2.400  0.4595 -0.7688 -1.8249
 8269SOL    HW236786   4.652   2.184   2.448 -0.3670 -1.2738  1.2608
 8270SOL     OW36787   6.007   4.131   2.757  0.2380 -0.3072 -0.2517
 8270SOL    HW136788   5.994   4.038   2.741  0.2042 -0.1746 -1.0328
 8270SOL    HW236789   6.013   4.170   2.669 -0.1315  0.4764  0.0599
 8271SOL     OW36790   9.804   1.690   7.069  0.1864 -0.1298  0.6051
 8271SOL    HW136791   9.730   1.699   7.010  1.7427 -0.4249 -1.4963
 8271SOL    HW236792   9.778   1.738   7.148 -1.4739  1.3626 -0.7860
 8272SOL     OW36793   4.089   0.953   5.030  0.2398 -0.3024 -0.2450
 8272SOL    HW136794   4.182   0.946   5.053  0.6816  1.3913 -1.3045
 8272SOL    HW236795   4.058   1.028   5.081 -0.0639  0.2571 -1.2232
 8273SOL     OW36796   3.167   2.327   7.143  0.2142 -0.2002  0.3206
 8273SOL    HW136797   3.101   2.298   7.081  0.7725 -0.0834 -0.3374
 8273SOL    HW236798   3.124   2.321   7.229 -1.0825  1.0880 -0.1910
 8274SOL     OW36799   5.932   1.500   0.914  0.2966  0.7066  0.5002
 8274SOL    HW136800   6.003   1.542   0.865  2.0306 -0.4837  1.8571
 8274SOL    HW236801   5.877   1.459   0.847  0.8213  1.7291 -0.5945
 8275SOL     OW36802   6.336   8.030   9.298  0.1450 -0.2772  0.5043
 8275SOL    HW136803   6.364   7.959   9.239  1.2562 -0.7633  1.5798
 8275SOL    HW236804   6.322   8.105   9.240 -0.5763 -1.2147 -0.6013
 8276SOL     OW36805   7.611   6.597   2.467 -0.6951 -0.0631 -0.3687
 8276SOL    HW136806   7.707   6.599   2.468 -0.5874 -2.1094  1.7049
 8276SOL    HW236807   7.587   6.631   2.381  1.9057 -0.1092 -1.1976
 8277SOL     OW36808   1.199   2.500   6.101 -0.3701 -0.5403  0.1952
 8277SOL    HW136809   1.289   2.513   6.071 -0.8235  0.6023 -0.7560
 8277SOL    HW236810   1.208   2.459   6.187  1.1406  1.5571  1.1342
 8278SOL     OW36811   7.485   2.249   8.492  0.8889 -0.6998 -0.8030
 8278SOL    HW136812   7.504   2.197   8.569  0.2558  1.2312  0.7559
 8278SOL    HW236813   7.403   2.213   8.458  0.4021 -0.6749  0.3001
 8279SOL     OW36814   5.563   1.265   5.646  0.2423  0.1657 -0.2184
 8279SOL    HW136815   5.543   1.197   5.582  2.1985  0.0018 -0.7223
 8279SOL    HW236816   5.647   1.239   5.683  1.0148  2.2721 -0.3611
 8280SOL     OW36817   4.248   6.984   2.398  1.2877  0.2552 -1.2933
 8280SOL    HW136818   4.310   7.049   2.431 -0.5427  1.0650  0.8225
 8280SOL    HW236819   4.171   7.035   2.375  0.2968 -1.0071 -0.9042
 8281SOL     OW36820   0.759   3.141   7.826  0.3453 -0.0047  0.2424
 8281SOL    HW136821   0.684   3.108   7.874  0.9322 -0.3275  0.9571
 8281SOL    HW236822   0.749   3.106   7.738 -0.0328 -0.5389  0.4952
 8282SOL     OW36823   5.426   2.340   9.604  0.1192  0.1064  0.5013
 8282SOL    HW136824   5.425   2.276   9.533  0.3781  0.9377 -0.2842
 8282SOL    HW236825   5.503   2.318   9.656  0.6431  0.2260 -0.2026
 8283SOL     OW36826  10.098   6.158   6.609  0.7024 -0.2631  0.4176
 8283SOL    HW136827  10.011   6.193   6.627  0.8067  0.0340  0.3446
 8283SOL    HW236828  10.145   6.167   6.692  0.7582 -0.1451  0.3733
 8284SOL     OW36829   1.085   6.722   4.319  0.1607 -0.1574  0.2144
 8284SOL    HW136830   1.180   6.721   4.305  0.4196  1.1181  1.6555
 8284SOL    HW236831   1.051   6.664   4.251  2.0272 -1.2467  0.1240
 8285SOL     OW36832   8.396   6.471  10.008  0.9122 -0.4639 -0.0337
 8285SOL    HW136833   8.372   6.534   9.940  0.4636 -0.7135 -0.1162
 8285SOL    HW236834   8.327   6.404  10.003 -0.4583  0.6708  2.1727
 8286SOL     OW36835   7.225   0.592  10.367  0.0742  0.3786 -0.1669
 8286SOL    HW136836   7.226   0.591  10.271 -1.7466  1.9809 -0.2748
 8286SOL    HW236837   7.184   0.675  10.389  0.7896  0.2069  2.0419
 8287SOL     OW36838   7.451   3.309   9.506  0.4505 -0.4816  1.1208
 8287SOL    HW136839   7.436   3.295   9.413 -0.4324  0.3143  1.1177
 8287SOL    HW236840   7.540   3.344   9.512  0.4015 -0.2588  0.5408
 8288SOL     OW36841   3.352   1.685   6.186  0.6866 -0.1847 -0.2030
 8288SOL    HW136842   3.428   1.736   6.214  1.2135 -0.8041 -0.4961
 8288SOL    HW236843   3.322   1.640   6.265 -0.8656  1.8852  0.5065
 8289SOL     OW36844   1.645   1.351   9.216 -0.1688  1.1854 -0.5617
 8289SOL    HW136845   1.669   1.329   9.126 -1.4908  0.1062 -0.6672
 8289SOL    HW236846   1.669   1.274   9.266  1.0800  1.9911  0.1378
 8290SOL     OW36847   6.393   6.067   1.893 -0.5287 -0.2889 -0.0745
 8290SOL    HW136848   6.426   5.993   1.842 -0.3604  0.4476 -1.0816
 8290SOL    HW236849   6.354   6.125   1.827 -1.0579  0.3112  0.7453
 8291SOL     OW36850   8.846   0.482   5.070  0.0556 -0.3304  0.2291
 8291SOL    HW136851   8.834   0.526   4.986  1.8982 -1.0055 -0.4366
 8291SOL    HW236852   8.758   0.468   5.102 -0.6606  2.2084 -0.3676
 8292SOL     OW36853   0.341   7.785   5.046  0.3840 -0.2774  0.1892
 8292SOL    HW136854   0.389   7.794   4.964  0.6076  0.6725  0.4087
 8292SOL    HW236855   0.385   7.846   5.105 -1.3556  0.9375  0.2761
 8293SOL     OW36856   9.688   1.956   1.162  0.2596  0.4650 -0.1162
 8293SOL    HW136857   9.774   1.917   1.147  1.0333  1.8606  0.5364
 8293SOL    HW236858   9.651   1.905   1.234  0.7779  0.2114 -0.0244
 8294SOL     OW36859   0.903   9.191   5.336 -0.0559 -0.6222 -0.8905
 8294SOL    HW136860   0.937   9.102   5.344 -0.0227 -0.4792  1.0344
 8294SOL    HW236861   0.809   9.179   5.320  0.0799 -0.9956 -1.4362
 8295SOL     OW36862   8.724  10.219   7.436  0.1480  0.4027  0.4478
 8295SOL    HW136863   8.809  10.189   7.469 -0.1677  0.0457  0.9610
 8295SOL    HW236864   8.712  10.171   7.354  0.8519  1.1435 -0.0987
 8296SOL     OW36865   7.788   2.505   5.267  0.1097  0.6040  0.5600
 8296SOL    HW136866   7.783   2.472   5.177 -1.5642 -2.6352  1.6953
 8296SOL    HW236867   7.703   2.547   5.282 -0.1701 -0.1219  1.0432
 8297SOL     OW36868   1.896   4.870   6.580  0.0521 -0.1395 -0.0309
 8297SOL    HW136869   1.853   4.874   6.665  2.4242 -0.7486  1.2638
 8297SOL    HW236870   1.944   4.788   6.580  0.4897  0.0705 -1.7777
 8298SOL     OW36871   1.366   8.692  10.220  0.3291 -0.3781 -0.1925
 8298SOL    HW136872   1.339   8.736  10.139 -0.1254  0.9367  0.6380
 8298SOL    HW236873   1.461   8.685  10.212  0.4504  1.0249 -0.2453
 8299SOL     OW36874   1.290   1.184   7.101 -0.1811 -0.1149  0.0890
 8299SOL    HW136875   1.347   1.130   7.047 -0.3606  0.9887 -1.2569
 8299SOL    HW236876   1.210   1.193   7.049 -0.7976  0.0546  1.0480
 8300SOL     OW36877   3.748   3.657   9.293  0.3978 -0.7395 -0.1618
 8300SOL    HW136878   3.655   3.634   9.297  0.0603  0.5729 -0.1040
 8300SOL    HW236879   3.749   3.753   9.291  1.6450 -0.7419 -2.8591
 8301SOL     OW36880  10.280   1.514   4.051 -0.0225 -0.4753 -0.0058
 8301SOL    HW136881  10.187   1.496   4.055 -0.2238  0.5520  0.4029
 8301SOL    HW236882  10.293   1.556   3.966 -0.2036  0.6615  0.5002
 8302SOL     OW36883  10.346   4.048   1.063 -0.1153 -0.2095 -0.7401
 8302SOL    HW136884  10.351   3.993   0.985 -0.9677  0.5109 -1.3251
 8302SOL    HW236885  10.273   4.012   1.113  0.0054 -0.2675 -0.6078
 8303SOL     OW36886   0.104   7.379   2.349 -0.5014  0.4977  0.3959
 8303SOL    HW136887   0.082   7.293   2.384 -0.0576 -0.2643 -1.0898
 8303SOL    HW236888   0.181   7.406   2.398 -0.7615  0.1509  1.0116
 8304SOL     OW36889   3.431  10.328   0.640 -0.0747  0.0227  0.3945
 8304SOL    HW136890   3.510  10.297   0.595 -1.0237  0.9319 -2.0486
 8304SOL    HW236891   3.441  10.423   0.645 -0.9139  0.1289  0.2530
 8305SOL     OW36892   8.298   5.510   7.885  1.0534  0.7334 -0.4920
 8305SOL    HW136893   8.303   5.414   7.880 -0.8310  0.6204 -1.2133
 8305SOL    HW236894   8.228   5.533   7.824 -2.2774  2.1186  3.3914
 8306SOL     OW36895   7.012   5.465   9.114 -0.1024 -0.1815 -0.4525
 8306SOL    HW136896   7.101   5.451   9.082  0.4224  0.9406  0.4641
 8306SOL    HW236897   6.969   5.515   9.045 -0.2130 -1.2100 -1.1477
 8307SOL     OW36898   9.977   0.699   8.910  0.2578 -0.1583 -0.1082
 8307SOL    HW136899   9.971   0.719   8.816  0.1756  0.4595  0.0232
 8307SOL    HW236900   9.915   0.759   8.951  2.3206  1.6132  0.6125
 8308SOL     OW36901   1.689   6.016   5.395 -0.1517  0.8437 -0.2382
 8308SOL    HW136902   1.604   6.009   5.439 -0.2159  0.5269 -0.4092
 8308SOL    HW236903   1.742   6.070   5.454 -0.1092  0.1013  0.4387
 8309SOL     OW36904   9.903   2.690   4.347 -0.0808  0.6617  0.0281
 8309SOL    HW136905   9.819   2.676   4.391 -0.9612  0.7064 -1.5521
 8309SOL    HW236906   9.883   2.681   4.254  1.7603  0.2685 -0.3731
 8310SOL     OW36907   6.560   0.632   4.367 -0.7144  0.8166  0.1667
 8310SOL    HW136908   6.646   0.672   4.357 -0.0226 -0.4543  0.8262
 8310SOL    HW236909   6.555   0.568   4.296 -0.8549  0.4454  0.5068
 8311SOL     OW36910   5.946   4.904   9.375 -0.0625 -0.0286  0.2960
 8311SOL    HW136911   5.853   4.891   9.394  0.0247  0.4862  1.1291
 8311SOL    HW236912   5.947   4.967   9.303 -0.3530  1.1997  1.3282
 8312SOL     OW36913   5.931  10.288   3.310  0.0926 -0.1231 -0.2446
 8312SOL    HW136914   5.963  10.349   3.244  1.0213 -0.2053  0.1056
 8312SOL    HW236915   5.838  10.309   3.320 -0.3803 -0.9473 -2.4694
 8313SOL     OW36916   3.986   3.869   7.803 -0.2132 -0.1348  0.1133
 8313SOL    HW136917   3.951   3.832   7.884  0.3073 -0.2422  0.2961
 8313SOL    HW236918   3.933   3.831   7.733  0.6047 -1.5869  0.2575
 8314SOL     OW36919   0.174   8.985   1.017 -0.1296 -0.3568 -0.4985
 8314SOL    HW136920   0.130   8.905   1.047  0.1279  0.0898  1.1225
 8314SOL    HW236921   0.189   8.970   0.923  0.0279 -2.2662 -0.2033
 8315SOL     OW36922   7.757   5.927   6.069 -0.0103  0.7421  0.1815
 8315SOL    HW136923   7.807   5.968   6.140 -1.5712 -0.0975  1.8445
 8315SOL    HW236924   7.782   5.834   6.073 -1.3429  0.3836  0.7883
 8316SOL     OW36925   0.391  10.011   4.363  0.1439  0.1210 -0.7066
 8316SOL    HW136926   0.413   9.937   4.420 -0.6319 -0.8759 -1.6603
 8316SOL    HW236927   0.408  10.088   4.417  0.5918 -0.7518  0.4556
 8317SOL     OW36928   4.105   1.026   7.545  0.5074  0.0480 -0.2260
 8317SOL    HW136929   4.041   1.059   7.482 -0.3831  1.7396  1.4701
 8317SOL    HW236930   4.060   1.027   7.629  2.4454  0.4194  0.8848
 8318SOL     OW36931   8.648   6.365   9.119  0.2183 -0.1500 -0.3333
 8318SOL    HW136932   8.632   6.427   9.048  1.8233 -0.6619 -1.1864
 8318SOL    HW236933   8.598   6.287   9.096  0.8686 -0.3755 -0.9976
 8319SOL     OW36934  10.086   2.119   9.582 -0.0891  0.1508 -0.8136
 8319SOL    HW136935  10.160   2.159   9.537 -0.5130  1.0536 -0.7283
 8319SOL    HW236936  10.028   2.090   9.511  0.7666 -1.4199 -0.9052
 8320SOL     OW36937   9.070   8.839   8.571  0.2083  0.3951 -0.1265
 8320SOL    HW136938   8.997   8.900   8.581  0.3750  0.4515  0.8237
 8320SOL    HW236939   9.139   8.891   8.531  0.2056  0.7226  0.2875
 8321SOL     OW36940   9.391   3.092   3.199  0.3430 -0.0159  0.1895
 8321SOL    HW136941   9.444   3.166   3.170  2.9270 -1.1239  1.7754
 8321SOL    HW236942   9.354   3.120   3.283  0.8490 -0.3004  0.5104
 8322SOL     OW36943   0.531   2.294  10.235 -0.5533 -0.0606  0.7145
 8322SOL    HW136944   0.503   2.312  10.325 -0.7012  0.1146  0.6329
 8322SOL    HW236945   0.607   2.236  10.246 -0.6251 -0.1133  0.9495
 8323SOL     OW36946   8.368   9.160   4.058 -1.0364 -0.2371  0.2566
 8323SOL    HW136947   8.406   9.183   3.974 -0.1403 -0.7279  0.5133
 8323SOL    HW236948   8.366   9.242   4.108  0.3633 -0.3139  0.4871
 8324SOL     OW36949   9.175   1.983   5.470 -0.3854  0.1278 -0.2733
 8324SOL    HW136950   9.213   1.976   5.557 -2.9669 -1.2585  0.8485
 8324SOL    HW236951   9.141   2.072   5.465 -1.5718 -0.2396  0.7912
 8325SOL     OW36952   4.246   9.811  10.230 -0.1068  0.5383 -0.0064
 8325SOL    HW136953   4.324   9.762  10.256 -0.7649 -0.2790  0.4614
 8325SOL    HW236954   4.265   9.841  10.141  0.4805 -0.1894 -0.1338
 8326SOL     OW36955   3.225   7.956   6.085 -0.1109 -0.4105 -0.4199
 8326SOL    HW136956   3.307   7.930   6.126 -1.0952 -2.5108  0.3507
 8326SOL    HW236957   3.217   8.049   6.105  1.7481 -0.3048  0.0393
 8327SOL     OW36958   4.637   4.351   6.691 -0.8178  0.0107 -0.1028
 8327SOL    HW136959   4.644   4.425   6.751 -3.0641  0.5292 -0.4075
 8327SOL    HW236960   4.722   4.348   6.647 -0.7957  2.6819 -0.3954
 8328SOL     OW36961   1.190   3.683   7.367 -0.3749  0.5312 -0.4042
 8328SOL    HW136962   1.276   3.679   7.408 -0.0174 -0.8188 -1.2353
 8328SOL    HW236963   1.153   3.595   7.378 -1.0802  0.7047 -1.2573
 8329SOL     OW36964   0.296   5.228   3.720  0.5883  0.1920  0.3621
 8329SOL    HW136965   0.240   5.252   3.793  1.4793  0.8691  0.8371
 8329SOL    HW236966   0.275   5.136   3.703 -0.3548  0.3164  0.7889
 8330SOL     OW36967   3.616   9.274   1.452  0.2898  0.3288  0.3263
 8330SOL    HW136968   3.609   9.323   1.370 -2.9149  1.9565  1.3566
 8330SOL    HW236969   3.648   9.339   1.515  0.1489 -0.1368  0.8796
 8331SOL     OW36970   2.875   1.684   2.461  0.1902 -0.2213  0.1016
 8331SOL    HW136971   2.783   1.698   2.437  0.5285  0.5589 -0.8154
 8331SOL    HW236972   2.877   1.596   2.498 -1.3334  0.6067  2.3625
 8332SOL     OW36973   9.055   5.355   8.484  0.2160  0.1646  0.3729
 8332SOL    HW136974   9.143   5.349   8.522  0.2560 -1.1192  0.1043
 8332SOL    HW236975   9.068   5.398   8.399  0.6049 -0.1853  0.2562
 8333SOL     OW36976   2.459   0.821   0.963 -0.1494 -0.2509  0.5426
 8333SOL    HW136977   2.452   0.912   0.937  1.0285 -0.5260 -0.8740
 8333SOL    HW236978   2.485   0.824   1.055  1.3548  0.8946  0.1272
 8334SOL     OW36979   8.965   8.468   8.145 -0.0495  0.6253  0.2169
 8334SOL    HW136980   8.880   8.496   8.110  0.4983  2.7512  0.4775
 8334SOL    HW236981   9.004   8.417   8.073 -1.3352  0.0079 -0.0703
 8335SOL     OW36982   9.654   3.831   0.405  0.6798  0.2272  0.1303
 8335SOL    HW136983   9.647   3.736   0.412  2.0170  0.0021 -1.1647
 8335SOL    HW236984   9.731   3.854   0.456 -0.7140  0.9044  2.0671
 8336SOL     OW36985   8.701   8.277   8.389  0.0678 -0.1795 -0.2099
 8336SOL    HW136986   8.712   8.368   8.414 -0.0063 -0.7936  2.3119
 8336SOL    HW236987   8.629   8.277   8.326  0.2849  1.5184 -0.4841
 8337SOL     OW36988   9.044   3.125   5.259  0.4811  0.1853  0.2466
 8337SOL    HW136989   8.954   3.153   5.277  0.6008  0.1689  0.8959
 8337SOL    HW236990   9.094   3.206   5.254  0.3289  0.2296 -0.7333
 8338SOL     OW36991   7.301   5.049   0.480  0.1322 -0.4060  0.5425
 8338SOL    HW136992   7.231   5.016   0.423  0.1527 -2.5117  1.6438
 8338SOL    HW236993   7.378   4.997   0.457  0.8259  0.4989  0.7457
 8339SOL     OW36994   6.973   4.332   2.635  0.7190 -0.0599  0.5984
 8339SOL    HW136995   6.991   4.322   2.541 -1.0260  1.7909 -0.0110
 8339SOL    HW236996   6.883   4.364   2.638  0.7309 -0.1288  2.9342
 8340SOL     OW36997   7.907   1.419   8.917 -0.4760  0.0123 -0.1526
 8340SOL    HW136998   7.982   1.432   8.975 -1.3932 -2.4675  1.7760
 8340SOL    HW236999   7.943   1.372   8.842  0.0575 -0.4978  0.4090
 8341SOL     OW37000   0.476   4.202   2.158  0.0106  0.2475  0.0674
 8341SOL    HW137001   0.483   4.129   2.220  1.6623  0.9293  0.7472
 8341SOL    HW237002   0.424   4.268   2.204  0.8842  0.5856  0.6059
 8342SOL     OW37003   8.309   1.580   4.117 -0.6638  0.4004  0.0367
 8342SOL    HW137004   8.357   1.633   4.182  0.1927 -0.8007  0.4070
 8342SOL    HW237005   8.325   1.625   4.034  2.0574 -0.5290 -0.0342
 8343SOL     OW37006   9.345   0.101   0.410  0.6564  0.2839 -0.9697
 8343SOL    HW137007   9.372   0.022   0.459  0.5007  0.0561 -1.2523
 8343SOL    HW237008   9.427   0.148   0.394  0.8467 -0.2177 -1.4879
 8344SOL     OW37009   0.918   1.240   3.640  0.6431 -0.3371  0.4110
 8344SOL    HW137010   1.010   1.218   3.655  0.7307 -1.5903 -1.6870
 8344SOL    HW237011   0.917   1.336   3.636  1.8888 -0.3151  0.2911
 8345SOL     OW37012   5.615   3.737   7.619  0.1040 -0.7036  0.6706
 8345SOL    HW137013   5.526   3.727   7.653  0.4342 -1.4338  1.3647
 8345SOL    HW237014   5.667   3.761   7.696  0.6435 -1.1061  0.4413
 8346SOL     OW37015   2.403   6.414   6.714  0.1646  0.5184  0.0933
 8346SOL    HW137016   2.397   6.337   6.771 -1.4560  1.2346  0.9482
 8346SOL    HW237017   2.369   6.486   6.767 -0.7864  1.3466 -1.5595
 8347SOL     OW37018   3.028   0.814   0.245  0.1780 -0.1044  0.0947
 8347SOL    HW137019   3.102   0.828   0.187 -0.7422 -0.4123 -1.1987
 8347SOL    HW237020   2.976   0.894   0.238 -0.1405 -0.3001  0.1762
 8348SOL     OW37021   9.438   9.798   5.663  0.1490 -0.4452 -0.0711
 8348SOL    HW137022   9.526   9.823   5.637  0.5873  0.1395  1.8422
 8348SOL    HW237023   9.407   9.743   5.591  1.4609  0.5995 -1.5076
 8349SOL     OW37024   0.242   4.578   7.067  0.4855  0.2198  0.0228
 8349SOL    HW137025   0.182   4.652   7.060  0.5740  0.2445 -0.4446
 8349SOL    HW237026   0.298   4.600   7.142 -0.1767  0.1294  0.5634
 8350SOL     OW37027   7.967   1.421   4.988 -0.4865  0.7665  0.1493
 8350SOL    HW137028   7.902   1.462   4.931 -0.4484 -2.3109 -2.4152
 8350SOL    HW237029   8.049   1.429   4.939 -0.3351 -1.4114 -0.0649
 8351SOL     OW37030   5.709  10.056   5.930  0.6270  0.1461 -0.3548
 8351SOL    HW137031   5.629  10.059   5.878 -0.2049  0.9229  0.8884
 8351SOL    HW237032   5.733  10.148   5.943  1.0159 -0.0415  0.3127
 8352SOL     OW37033   7.412   6.776   3.039 -0.0266 -0.0874  0.0989
 8352SOL    HW137034   7.480   6.794   2.974 -1.0797 -1.4979 -1.4563
 8352SOL    HW237035   7.460   6.767   3.122  1.3948  1.2332 -0.5283
 8353SOL     OW37036   9.317   0.060   9.896  0.5021  0.5840  0.2684
 8353SOL    HW137037   9.277   0.007   9.965  0.9673  1.7209  1.4558
 8353SOL    HW237038   9.344  -0.004   9.830 -2.5304 -0.2965 -0.2582
 8354SOL     OW37039   9.234  10.060   4.630 -0.0124  0.0697  0.0649
 8354SOL    HW137040   9.245   9.989   4.693  0.3874 -0.4989 -0.6367
 8354SOL    HW237041   9.143  10.088   4.640 -0.0709 -0.3093  0.5870
 8355SOL     OW37042   4.964   7.808   4.950  0.3436 -0.1867 -0.0036
 8355SOL    HW137043   5.046   7.765   4.974  0.2134 -0.2883  0.2571
 8355SOL    HW237044   4.945   7.775   4.862  0.7789  0.1299 -0.2160
 8356SOL     OW37045   0.884   9.672   0.160  0.1203  0.2510 -0.7236
 8356SOL    HW137046   0.899   9.579   0.177 -0.2095  0.1599 -0.9284
 8356SOL    HW237047   0.789   9.682   0.161  0.1822  0.9132  0.9880
 8357SOL     OW37048   5.566   8.099   7.339  0.4550 -0.1001 -0.0048
 8357SOL    HW137049   5.493   8.159   7.349  0.8562  0.1712  1.6148
 8357SOL    HW237050   5.588   8.102   7.246 -0.9351  0.5652 -0.3279
 8358SOL     OW37051   6.323   6.840   0.805 -1.0056  0.0105 -0.2098
 8358SOL    HW137052   6.270   6.780   0.858  0.1396 -0.4295  0.4773
 8358SOL    HW237053   6.294   6.927   0.834 -1.1683 -0.2195  0.3488
 8359SOL     OW37054   5.812   7.987   7.114  0.3237  0.5589 -0.0636
 8359SOL    HW137055   5.834   8.070   7.157  0.8345  0.9368 -1.0395
 8359SOL    HW237056   5.895   7.954   7.081  0.3676 -1.0910  1.5523
 8360SOL     OW37057   5.160   8.265  10.041 -0.1124 -0.2930  0.4784
 8360SOL    HW137058   5.231   8.324  10.013  0.6324 -1.5129 -0.2728
 8360SOL    HW237059   5.150   8.284  10.134 -0.4520  1.5765  0.1197
 8361SOL     OW37060   0.629   0.513   2.853 -0.6605 -0.2032 -0.5094
 8361SOL    HW137061   0.652   0.557   2.772  1.4011  0.4666  0.3723
 8361SOL    HW237062   0.662   0.424   2.843  0.7998  0.2482  0.0566
 8362SOL     OW37063   5.333   2.637   1.978 -0.6828 -0.1898  0.2270
 8362SOL    HW137064   5.322   2.730   2.000  1.4156  0.3112 -0.5395
 8362SOL    HW237065   5.342   2.594   2.063 -1.4596  0.3341  0.5873
 8363SOL     OW37066  10.122   6.621   7.121 -0.5416  0.4924 -0.2561
 8363SOL    HW137067  10.054   6.602   7.057  0.2297  0.9353 -1.2167
 8363SOL    HW237068  10.197   6.652   7.070  1.1877 -2.0140  0.5507
 8364SOL     OW37069   9.640   4.820   7.669  0.3089 -0.5597  0.5287
 8364SOL    HW137070   9.623   4.912   7.689  1.9061 -0.4083  1.4498
 8364SOL    HW237071   9.558   4.787   7.633 -0.0416  1.4365 -0.6414
 8365SOL     OW37072   9.282   5.655   8.581  0.4714  0.2373 -0.4143
 8365SOL    HW137073   9.188   5.636   8.583  0.4978  0.0257 -1.0099
 8365SOL    HW237074   9.324   5.569   8.585  0.6285  0.3028 -0.6205
 8366SOL     OW37075   3.865   8.038   0.162  0.4435  0.1255 -0.3168
 8366SOL    HW137076   3.919   8.085   0.099  0.0974 -0.7649 -1.3107
 8366SOL    HW237077   3.822   7.970   0.110 -0.4387 -0.1493  0.7434
 8367SOL     OW37078   8.560   7.687   9.677 -0.1882  0.3989  0.3562
 8367SOL    HW137079   8.622   7.748   9.636  0.5282 -0.2028  0.5120
 8367SOL    HW237080   8.589   7.601   9.647 -0.5484  0.0640  0.9651
 8368SOL     OW37081   2.092   9.964   4.449  0.2820  0.4276  0.1463
 8368SOL    HW137082   2.109   9.911   4.527  1.9300  1.6364  0.6443
 8368SOL    HW237083   2.175  10.006   4.430 -0.0427  0.0681 -2.3669
 8369SOL     OW37084   4.611   5.546   4.829  0.0205  0.7304  0.1477
 8369SOL    HW137085   4.643   5.636   4.831 -0.2217  0.8232 -0.0271
 8369SOL    HW237086   4.612   5.518   4.921  1.1018  0.5425  0.0873
 8370SOL     OW37087   0.742   9.101   9.569 -0.2450 -0.5403  0.2617
 8370SOL    HW137088   0.775   9.130   9.654  0.1371  0.0453 -0.0762
 8370SOL    HW237089   0.649   9.120   9.572 -0.6792 -2.5482  1.3672
 8371SOL     OW37090   3.843   2.022   0.388 -0.6384  0.3287 -0.4261
 8371SOL    HW137091   3.922   2.027   0.335  1.4123  2.4054  2.4991
 8371SOL    HW237092   3.790   2.097   0.359 -0.7025 -0.0077 -1.1864
 8372SOL     OW37093   3.135   2.015   1.350 -0.8809  0.0961  0.3640
 8372SOL    HW137094   3.107   1.925   1.366  0.2011 -0.0107  1.8487
 8372SOL    HW237095   3.177   2.011   1.264 -0.3818 -0.9499  0.6394
 8373SOL     OW37096   3.329   9.285   4.073 -0.0378  0.1256  0.7321
 8373SOL    HW137097   3.366   9.220   4.132  2.0619 -0.8423 -1.4614
 8373SOL    HW237098   3.400   9.348   4.059 -1.5788  2.1956  1.7317
 8374SOL     OW37099   4.450   6.366   3.264 -0.5571  0.3695 -0.0049
 8374SOL    HW137100   4.475   6.303   3.333 -3.0761 -0.8802 -0.1006
 8374SOL    HW237101   4.418   6.442   3.312  0.5906  0.7690  0.1436
 8375SOL     OW37102   1.262   6.138   1.148  0.1985 -0.6149  0.0461
 8375SOL    HW137103   1.232   6.138   1.057  0.2777 -0.7450  0.0199
 8375SOL    HW237104   1.347   6.094   1.145  1.2541  1.3082 -0.1534
 8376SOL     OW37105   7.893   2.820   9.400  0.1772 -0.1659  0.2570
 8376SOL    HW137106   7.958   2.819   9.330 -0.6752 -0.1014 -0.5406
 8376SOL    HW237107   7.907   2.738   9.448  0.3533 -0.4957 -0.3570
 8377SOL     OW37108   8.864   9.051   4.518 -0.5710 -0.2092  0.0897
 8377SOL    HW137109   8.919   8.973   4.514 -0.5942 -0.2313  0.1940
 8377SOL    HW237110   8.782   9.025   4.476  0.3904  0.5821 -2.5083
 8378SOL     OW37111   5.669   1.952  10.116  0.0619  0.6780  0.6385
 8378SOL    HW137112   5.672   1.971  10.209 -0.3126  1.5804  0.4783
 8378SOL    HW237113   5.591   1.898  10.104 -0.2216  1.0526  0.7717
 8379SOL     OW37114   0.673   3.130   2.495  0.3758 -0.3140  0.2641
 8379SOL    HW137115   0.616   3.171   2.430  0.7188 -0.5232 -0.1767
 8379SOL    HW237116   0.620   3.059   2.532  0.0093  0.1103  0.5665
 8380SOL     OW37117   1.262  10.151   4.988 -0.7128 -0.2475  0.6345
 8380SOL    HW137118   1.288  10.155   4.896 -0.4694 -0.7860  0.6793
 8380SOL    HW237119   1.324  10.208   5.033  0.1533 -1.2159  0.6853
 8381SOL     OW37120   4.924   2.516   2.187  0.2904  0.4629 -0.0330
 8381SOL    HW137121   5.015   2.545   2.196  0.5370 -0.2001 -0.2952
 8381SOL    HW237122   4.925   2.426   2.218  0.4279 -0.6812 -3.0158
 8382SOL     OW37123   7.837   0.574   2.866  0.9589 -0.4268 -0.0090
 8382SOL    HW137124   7.918   0.624   2.862  1.0632 -0.6510 -1.1117
 8382SOL    HW237125   7.865   0.483   2.867  0.7488 -0.5813 -2.2224
 8383SOL     OW37126   7.992  10.117  10.127  0.4754  0.2554 -0.0060
 8383SOL    HW137127   8.021  10.167  10.051  0.5301  1.7533  0.9519
 8383SOL    HW237128   8.066  10.119  10.187  0.2799 -0.5452  0.2774
 8384SOL     OW37129   3.948   6.168   4.903  0.4221 -0.7074  0.3749
 8384SOL    HW137130   3.905   6.180   4.988  2.1368 -0.0868  1.2163
 8384SOL    HW237131   4.006   6.093   4.916  2.6583  0.9603  0.6579
 8385SOL     OW37132   4.804   9.974   2.184  0.0457  0.2730  0.3496
 8385SOL    HW137133   4.826  10.065   2.208  2.3652  0.3692 -1.7126
 8385SOL    HW237134   4.712   9.978   2.157 -1.1724  1.1018  3.9605
 8386SOL     OW37135   3.401   2.405   4.876  0.0836 -0.3856 -0.3269
 8386SOL    HW137136   3.338   2.449   4.934  1.0255  0.2071  0.2763
 8386SOL    HW237137   3.437   2.334   4.928  0.1920 -0.4950 -0.5484
 8387SOL     OW37138   9.844   5.067   9.412 -0.0264  0.0478 -0.2531
 8387SOL    HW137139   9.930   5.038   9.381 -0.0147  0.4463 -0.6011
 8387SOL    HW237140   9.792   4.987   9.417 -0.0379 -0.0320 -1.3334
 8388SOL     OW37141   5.798   5.310   5.410 -0.3868  0.0920  0.6554
 8388SOL    HW137142   5.867   5.355   5.361 -0.0511 -2.4037 -1.3320
 8388SOL    HW237143   5.845   5.252   5.470 -0.8211  2.0005  3.0263
 8389SOL     OW37144   1.320   1.160   5.145  0.4663 -0.6793  0.3244
 8389SOL    HW137145   1.346   1.214   5.220  0.0515 -0.8681  0.6040
 8389SOL    HW237146   1.312   1.072   5.180 -1.2732 -0.5163  0.4180
 8390SOL     OW37147   4.459   9.173   9.497 -0.1172 -0.1774  0.6282
 8390SOL    HW137148   4.483   9.262   9.524  0.8876 -0.3489  0.3256
 8390SOL    HW237149   4.371   9.161   9.532  0.7384 -0.0406  3.0435
 8391SOL     OW37150   2.456   4.943   2.331 -0.2635  0.0214  0.0536
 8391SOL    HW137151   2.531   5.003   2.332 -0.1430 -0.0900 -0.9569
 8391SOL    HW237152   2.463   4.897   2.247 -1.1498 -0.3965  0.1933
 8392SOL     OW37153   4.279   1.261   3.997  0.7349  0.5885  0.0033
 8392SOL    HW137154   4.250   1.170   3.985  0.2255  0.9387 -1.7451
 8392SOL    HW237155   4.371   1.259   3.971  1.1623  0.2964  1.4662
 8393SOL     OW37156   6.061   0.104   4.190 -0.0232 -0.2097 -0.9241
 8393SOL    HW137157   6.126   0.091   4.258 -1.4798 -2.1131  0.2260
 8393SOL    HW237158   6.092   0.052   4.116 -0.4897 -1.6510 -0.1502
 8394SOL     OW37159   1.669   1.042   9.322  0.1367 -0.4172  0.1834
 8394SOL    HW137160   1.622   0.976   9.272 -2.4028  0.1740  1.6411
 8394SOL    HW237161   1.741   0.994   9.363  0.2874 -1.5707 -1.3373
 8395SOL     OW37162   3.897   2.033   7.952 -0.6653  0.2693 -0.1757
 8395SOL    HW137163   3.978   2.006   7.995  0.2358  0.9242 -1.4042
 8395SOL    HW237164   3.890   1.977   7.875 -0.1733  1.6937 -1.2972
 8396SOL     OW37165   6.806   9.050   4.937  0.5957 -0.3543 -0.4170
 8396SOL    HW137166   6.899   9.027   4.929  0.7073  0.5783 -2.1326
 8396SOL    HW237167   6.804   9.145   4.932 -0.3854 -0.2980  0.6358
 8397SOL     OW37168   5.617   0.666   6.264 -0.1648 -0.0506 -0.2418
 8397SOL    HW137169   5.672   0.687   6.339  0.5313  4.2369 -1.6849
 8397SOL    HW237170   5.674   0.616   6.206  0.2627 -0.7294  0.7372
 8398SOL     OW37171   8.934   2.292  10.280  0.5796 -0.5390 -0.2699
 8398SOL    HW137172   9.009   2.251  10.238 -0.6611 -2.2775 -0.9190
 8398SOL    HW237173   8.928   2.379  10.241  2.4847 -0.1976  0.1310
 8399SOL     OW37174   0.267   3.722   7.589  0.4664 -0.3517 -0.2731
 8399SOL    HW137175   0.248   3.640   7.634 -0.3706 -0.1717 -0.2743
 8399SOL    HW237176   0.208   3.722   7.513  0.5376  0.1994 -0.3339
 8400SOL     OW37177   9.796   2.694   0.057  0.0834 -0.2993 -0.6985
 8400SOL    HW137178   9.720   2.675   0.112  0.2017  1.1876  0.0338
 8400SOL    HW237179   9.785   2.786   0.032  2.0194  0.1778  0.0577
 8401SOL     OW37180   3.893   1.035   9.772 -0.6642  0.1670 -0.5978
 8401SOL    HW137181   3.886   0.978   9.849 -1.3394  1.9137  0.6977
 8401SOL    HW237182   3.868   1.122   9.804  2.9654  1.8560 -1.7449
 8402SOL     OW37183   0.196   2.357   1.744  0.6703 -0.6820 -0.1123
 8402SOL    HW137184   0.216   2.365   1.837 -1.9206 -3.0329  0.7995
 8402SOL    HW237185   0.231   2.271   1.719  1.5573  0.0230 -1.4263
 8403SOL     OW37186   0.227   8.087   6.731  0.5607 -0.3898 -0.2485
 8403SOL    HW137187   0.310   8.111   6.773  0.8413  2.0821 -1.9739
 8403SOL    HW237188   0.160   8.117   6.793  0.9364 -0.6270  0.2827
 8404SOL     OW37189   0.577   0.845   5.438  0.5028 -0.4732 -0.1537
 8404SOL    HW137190   0.581   0.863   5.343 -2.4839  0.5946 -0.1717
 8404SOL    HW237191   0.627   0.917   5.477  0.1016  0.2182 -0.8707
 8405SOL     OW37192   1.932   6.108   2.165  0.3459  0.6964  0.0736
 8405SOL    HW137193   1.879   6.034   2.136  0.4484  0.3967  0.6439
 8405SOL    HW237194   1.952   6.156   2.085  1.5896 -0.7399 -0.5381
 8406SOL     OW37195   5.066   0.134   8.049 -0.3580 -0.4180  0.5913
 8406SOL    HW137196   5.079   0.085   8.131  0.3969 -1.1794  0.0348
 8406SOL    HW237197   5.113   0.084   7.983 -1.4267 -0.1256 -0.4404
 8407SOL     OW37198   7.919   5.943   4.874  0.1758 -0.0173  0.5217
 8407SOL    HW137199   7.837   5.992   4.866  1.0121  1.4166  0.5017
 8407SOL    HW237200   7.891   5.856   4.904 -1.4023  0.2134 -0.1668
 8408SOL     OW37201   6.478   6.394   6.740 -0.6888 -0.3995 -1.0528
 8408SOL    HW137202   6.563   6.353   6.758 -1.1796 -1.3930 -0.9458
 8408SOL    HW237203   6.499   6.466   6.680  0.4883  0.6710  0.5767
 8409SOL     OW37204   4.400   2.031   9.979 -0.2961 -0.1154 -0.1507
 8409SOL    HW137205   4.476   2.005   9.926 -0.4204 -1.3585  0.2625
 8409SOL    HW237206   4.400   1.970  10.052  0.2931  1.9914  1.7245
 8410SOL     OW37207   2.194   9.842   0.248 -0.2246 -0.1736 -0.5680
 8410SOL    HW137208   2.263   9.776   0.241 -1.9003 -2.2232  0.9239
 8410SOL    HW237209   2.232   9.911   0.303  1.0073 -0.7023 -0.7284
 8411SOL     OW37210   4.170   0.968   7.885 -0.3588 -0.4937 -0.0904
 8411SOL    HW137211   4.091   0.967   7.831 -0.0951 -0.2561 -0.4884
 8411SOL    HW237212   4.182   1.060   7.909 -1.9577 -0.8837  2.6206
 8412SOL     OW37213   0.121   5.228   8.853 -0.5602  0.1428  0.3167
 8412SOL    HW137214   0.040   5.249   8.806 -0.1941  0.2879 -0.2611
 8412SOL    HW237215   0.153   5.149   8.810 -0.4500  0.0301  0.6130
 8413SOL     OW37216   9.484   0.778   1.407 -0.6295 -0.0625 -0.2826
 8413SOL    HW137217   9.457   0.736   1.489 -1.3378  0.8236 -0.0414
 8413SOL    HW237218   9.526   0.860   1.435 -0.4026 -0.0059 -0.7821
 8414SOL     OW37219   9.766   7.679   5.429 -0.6639  0.3359 -0.0723
 8414SOL    HW137220   9.699   7.723   5.376 -2.8942 -0.7116  1.7095
 8414SOL    HW237221   9.723   7.600   5.461  1.3963 -0.2999  1.3033
 8415SOL     OW37222   9.707   3.575   4.559  0.0776  0.3730  0.2379
 8415SOL    HW137223   9.676   3.657   4.520 -0.5835 -0.6754 -1.5725
 8415SOL    HW237224   9.732   3.599   4.648  1.7447  2.9446 -0.7870
 8416SOL     OW37225   0.669   5.603   2.248 -0.2801  0.0352 -0.7773
 8416SOL    HW137226   0.754   5.648   2.252  0.2988 -1.0614 -0.4449
 8416SOL    HW237227   0.614   5.662   2.197  0.3318  1.3276 -0.0026
 8417SOL     OW37228   1.415   0.450   2.993 -0.0174  0.3973  0.4068
 8417SOL    HW137229   1.422   0.521   3.058 -2.2487  1.3855 -0.3259
 8417SOL    HW237230   1.371   0.379   3.040  0.7005  0.1192  0.6712
 8418SOL     OW37231   0.697   0.837   8.850  0.1055 -0.0068 -0.4783
 8418SOL    HW137232   0.727   0.926   8.830  0.8401  0.0663  0.8180
 8418SOL    HW237233   0.777   0.791   8.877  0.1417 -1.6932 -3.0776
 8419SOL     OW37234   5.639   1.972   0.539 -0.0416 -0.4059 -0.7152
 8419SOL    HW137235   5.573   1.907   0.514  0.4447 -0.8475 -0.8786
 8419SOL    HW237236   5.612   2.002   0.625  1.3854 -3.1309  0.8245
 8420SOL     OW37237   4.390   6.753   3.135 -0.3334 -0.0870  0.3717
 8420SOL    HW137238   4.332   6.688   3.095  0.0494 -0.2556  0.0864
 8420SOL    HW237239   4.431   6.798   3.061 -1.9850  1.7901  0.5076
 8421SOL     OW37240   0.838   2.858   0.371  0.3710  0.2372 -0.3756
 8421SOL    HW137241   0.823   2.788   0.307 -1.9528  1.1665 -0.9577
 8421SOL    HW237242   0.775   2.927   0.346  0.4104  1.2325  2.0411
 8422SOL     OW37243   2.567   5.896   5.780  0.3430  0.1115  0.2751
 8422SOL    HW137244   2.633   5.952   5.739 -0.7519  0.4227 -1.1374
 8422SOL    HW237245   2.556   5.823   5.720 -1.6449  0.8137 -0.2942
 8423SOL     OW37246   7.093   8.571   3.001  0.1442  0.0137 -0.6730
 8423SOL    HW137247   7.029   8.591   3.069  0.9426  0.9361 -0.1614
 8423SOL    HW237248   7.042   8.531   2.930 -1.0876  1.2410 -0.5119
 8424SOL     OW37249   0.601   6.477   1.697  0.3437  0.5160  0.2777
 8424SOL    HW137250   0.602   6.384   1.719 -1.7401  0.4896  0.4187
 8424SOL    HW237251   0.691   6.496   1.671  0.8597 -1.4841  0.4383
 8425SOL     OW37252   9.324   5.695   9.787  0.2178  0.6616  0.2387
 8425SOL    HW137253   9.304   5.767   9.727 -0.0492 -0.2285 -0.7715
 8425SOL    HW237254   9.278   5.718   9.868 -1.0820  0.9120 -0.5387
 8426SOL     OW37255   6.785   0.040   4.035 -0.1533  0.1330 -0.0565
 8426SOL    HW137256   6.830   0.123   4.048  0.7641 -0.5350  1.1377
 8426SOL    HW237257   6.780   0.000   4.121 -0.3332 -1.1915 -0.6483
 8427SOL     OW37258   1.475   6.976   9.948 -0.0519 -0.4736 -0.4669
 8427SOL    HW137259   1.418   6.899   9.939  0.9626 -1.1880 -1.1324
 8427SOL    HW237260   1.452   7.014  10.032  0.2591 -2.2352  0.4679
 8428SOL     OW37261   3.059   5.033   8.590  0.0885  0.2065  0.4676
 8428SOL    HW137262   3.003   5.091   8.538  2.5330  2.7916  0.4258
 8428SOL    HW237263   3.133   5.013   8.533 -0.0009 -1.8581  1.0085
 8429SOL     OW37264   2.716   8.812   1.076 -0.1032 -0.8883  0.0363
 8429SOL    HW137265   2.632   8.775   1.051 -0.3349  1.3597 -3.1561
 8429SOL    HW237266   2.694   8.900   1.109  0.9412  1.6179 -5.0023
 8430SOL     OW37267   6.312   5.853   9.569 -0.1440 -0.3958  0.3607
 8430SOL    HW137268   6.373   5.857   9.642  1.6982 -1.5648 -1.0363
 8430SOL    HW237269   6.309   5.942   9.534 -0.0220 -0.1247  1.0288
 8431SOL     OW37270   8.205   4.570   9.544 -0.0467 -0.0517  0.0611
 8431SOL    HW137271   8.296   4.543   9.530  0.0259  0.0903  0.2481
 8431SOL    HW237272   8.153   4.504   9.499  0.1806  0.5034 -1.0618
 8432SOL     OW37273   3.280   9.107   9.849 -0.0341  0.4089  0.6177
 8432SOL    HW137274   3.320   9.119   9.763 -0.3315 -0.2840  0.3774
 8432SOL    HW237275   3.313   9.180   9.901  0.8762  0.3153  0.1847
 8433SOL     OW37276   8.752   2.338   7.618 -0.1505 -0.1798 -0.2775
 8433SOL    HW137277   8.801   2.257   7.603 -1.0630 -0.9944  0.8617
 8433SOL    HW237278   8.663   2.318   7.588 -0.4621  0.2922  0.3021
 8434SOL     OW37279   4.000   0.701   6.113  0.3796 -0.5653  0.0322
 8434SOL    HW137280   4.006   0.776   6.054 -2.1243 -0.3543 -0.0510
 8434SOL    HW237281   4.028   0.735   6.198 -0.3090  0.3400 -0.1007
 8435SOL     OW37282   4.036   0.370   6.450  0.0257  0.3082  0.0882
 8435SOL    HW137283   4.023   0.318   6.528 -1.4378  0.0368 -0.3073
 8435SOL    HW237284   4.078   0.311   6.388 -0.3240  0.0173  0.1246
 8436SOL     OW37285   4.302   5.862   6.265 -0.8869 -0.1997 -0.6550
 8436SOL    HW137286   4.388   5.822   6.254 -0.7457 -1.1956  2.8511
 8436SOL    HW237287   4.320   5.956   6.271 -0.3229 -0.2186 -1.7912
 8437SOL     OW37288   0.620   7.463   4.314 -0.3668 -0.1929  0.0550
 8437SOL    HW137289   0.674   7.390   4.343  0.7504 -0.2368 -1.9433
 8437SOL    HW237290   0.565   7.427   4.244 -2.5381  0.0345  1.5281
 8438SOL     OW37291   8.305   2.317   0.270  0.1512  0.0372 -0.0119
 8438SOL    HW137292   8.250   2.242   0.294 -1.3369  0.9561 -0.4959
 8438SOL    HW237293   8.356   2.286   0.195 -1.3148 -0.1365 -0.9645
 8439SOL     OW37294   4.524   8.521   7.798 -0.1563 -0.2179 -0.3286
 8439SOL    HW137295   4.601   8.516   7.741  0.4845  0.8292  0.4253
 8439SOL    HW237296   4.503   8.614   7.802  0.0814 -0.2230  1.5032
 8440SOL     OW37297   2.577   0.006   5.357  0.5223 -0.0497  0.4277
 8440SOL    HW137298   2.671   0.017   5.346  0.4953 -0.3171 -0.0820
 8440SOL    HW237299   2.544  -0.009   5.269  0.0035  0.0208  0.6069
 8441SOL     OW37300   9.863   0.113   1.417  0.1229  0.9652 -0.4141
 8441SOL    HW137301   9.954   0.142   1.420  0.0462  1.1762  1.3954
 8441SOL    HW237302   9.830   0.128   1.506 -0.8523 -1.7347 -0.2069
 8442SOL     OW37303   5.073   3.047   1.660 -0.4066 -0.3539  0.2659
 8442SOL    HW137304   5.162   3.036   1.628 -0.7094 -0.2463 -0.6280
 8442SOL    HW237305   5.083   3.099   1.740  0.4196 -1.2710  0.7896
 8443SOL     OW37306   2.581   7.324   9.332  0.0404  0.1337  0.3067
 8443SOL    HW137307   2.628   7.265   9.273  0.1086  1.9395 -1.5520
 8443SOL    HW237308   2.649   7.365   9.384  0.1406 -0.2082  0.4482
 8444SOL     OW37309   9.788   9.230   6.373  0.8466 -0.0819 -0.5615
 8444SOL    HW137310   9.697   9.215   6.399  0.8318 -0.8444 -1.0267
 8444SOL    HW237311   9.838   9.164   6.420  1.2153  0.5873 -0.0040
 8445SOL     OW37312   7.147   7.850   3.372  0.5522 -0.1086 -0.0169
 8445SOL    HW137313   7.110   7.930   3.409  0.6185  0.3383 -0.9047
 8445SOL    HW237314   7.134   7.784   3.440  1.2061  0.8355  1.0494
 8446SOL     OW37315  10.173   5.681   4.456  0.3308  0.2857  0.4694
 8446SOL    HW137316  10.116   5.736   4.403 -0.1782 -0.0769  0.6310
 8446SOL    HW237317  10.121   5.603   4.474  1.0077 -0.2069  0.3211
 8447SOL     OW37318   2.226   8.622   0.448 -0.2051 -0.6701  0.5716
 8447SOL    HW137319   2.165   8.567   0.399 -1.1112  1.4391 -0.7966
 8447SOL    HW237320   2.173   8.696   0.478  1.2096  0.0431  1.4076
 8448SOL     OW37321   5.005   7.203   9.222 -0.4522 -0.2656  0.6481
 8448SOL    HW137322   5.019   7.208   9.127  0.1694 -0.8124  0.7006
 8448SOL    HW237323   4.912   7.181   9.231 -1.1025  2.0664  0.2477
 8449SOL     OW37324   9.128   7.396   4.082 -0.1586 -0.5583  0.2442
 8449SOL    HW137325   9.046   7.439   4.056  0.8678  0.1443 -2.1384
 8449SOL    HW237326   9.101   7.307   4.106 -1.9250  0.4144  2.2022
 8450SOL     OW37327   0.252   4.723   5.993 -1.0231 -0.2716  0.1999
 8450SOL    HW137328   0.247   4.699   6.085  0.2678 -1.5931 -0.0452
 8450SOL    HW237329   0.345   4.736   5.976 -1.4280  2.3681 -0.3649
 8451SOL     OW37330   1.226   0.808   5.769  0.1115 -0.4216  0.0545
 8451SOL    HW137331   1.262   0.800   5.680  1.8177 -1.4111  0.7758
 8451SOL    HW237332   1.176   0.728   5.782  0.6288 -0.7172  0.2818
 8452SOL     OW37333   3.057   4.864   6.113 -0.1259 -0.3754 -0.3172
 8452SOL    HW137334   3.131   4.806   6.130 -1.3677 -1.6088  1.2044
 8452SOL    HW237335   3.093   4.952   6.125  0.6222 -0.9924  2.9180
 8453SOL     OW37336   9.128   1.719   7.992  0.0059 -0.4203 -0.7753
 8453SOL    HW137337   9.181   1.656   7.944 -0.5960 -2.2929  0.8744
 8453SOL    HW237338   9.079   1.766   7.925 -0.0603 -2.2121 -2.0488
 8454SOL     OW37339   9.901   1.653   3.885  0.0817 -0.0097 -0.0606
 8454SOL    HW137340   9.922   1.720   3.821  0.0289 -0.8252 -0.9477
 8454SOL    HW237341   9.943   1.574   3.852  1.3687 -0.1200  1.7104
 8455SOL     OW37342   4.890   0.091   6.163 -0.0682  0.3656  0.2726
 8455SOL    HW137343   4.827   0.026   6.130 -0.4881  0.5738  0.6579
 8455SOL    HW237344   4.840   0.173   6.167 -0.1606  0.2654  1.8218
 8456SOL     OW37345   5.913   2.719   0.341 -0.5921  0.1614  0.0493
 8456SOL    HW137346   5.821   2.702   0.362 -1.3626  0.8239 -2.4989
 8456SOL    HW237347   5.915   2.811   0.313  1.2687  0.8010  1.9861
 8457SOL     OW37348   9.733   2.153   8.910 -0.1843 -0.3506  0.3363
 8457SOL    HW137349   9.705   2.144   8.819  0.6938  0.5374 -0.0364
 8457SOL    HW237350   9.666   2.208   8.950 -1.7849 -2.5067  0.8452
 8458SOL     OW37351   0.774   1.194   3.425  0.3756 -0.2144 -0.3578
 8458SOL    HW137352   0.693   1.244   3.434 -0.3790 -1.2173 -1.2825
 8458SOL    HW237353   0.813   1.196   3.513 -1.1790 -0.5820  0.3886
 8459SOL     OW37354   2.316   5.324   5.429 -0.6247  0.1585  0.4872
 8459SOL    HW137355   2.407   5.308   5.453 -0.7527 -1.2202  0.1324
 8459SOL    HW237356   2.315   5.320   5.333 -0.7440  2.0711  0.3755
 8460SOL     OW37357   1.202  10.047   0.507  0.0750 -0.3260  0.0245
 8460SOL    HW137358   1.267  10.015   0.444  1.1024 -1.1232  1.4072
 8460SOL    HW237359   1.211  10.142   0.505  1.2546 -0.4189  0.1134
 8461SOL     OW37360   8.442   2.005   6.667 -0.5553 -0.1807 -0.1681
 8461SOL    HW137361   8.360   1.995   6.715 -2.0946  0.1965 -2.5404
 8461SOL    HW237362   8.429   1.955   6.586  1.0843  0.8710 -1.1521
 8462SOL     OW37363   9.761   0.847   7.565  0.2476  0.1127  0.5014
 8462SOL    HW137364   9.845   0.809   7.538 -0.4318 -0.8430 -0.3685
 8462SOL    HW237365   9.706   0.771   7.583 -0.4866  0.7285  0.8865
 8463SOL     OW37366   9.988   9.148   9.458 -0.0917  0.5538 -0.1860
 8463SOL    HW137367  10.060   9.184   9.406 -0.7372 -0.1933 -1.6462
 8463SOL    HW237368   9.925   9.220   9.465  1.0645  1.4522  1.7281
 8464SOL     OW37369   9.163   6.560   5.370  0.7996  0.5088  0.2748
 8464SOL    HW137370   9.184   6.648   5.337 -1.7384  2.6075  3.5084
 8464SOL    HW237371   9.231   6.543   5.435 -0.2544  1.5304  1.7202
 8465SOL     OW37372   1.649   0.028   2.175  0.6673  0.0774 -0.0924
 8465SOL    HW137373   1.598   0.042   2.095 -0.1428 -1.3467  0.1372
 8465SOL    HW237374   1.652  -0.067   2.185  4.9236 -0.0816 -1.0381
 8466SOL     OW37375   7.874   1.439   5.558  0.2748  0.3185  0.9215
 8466SOL    HW137376   7.884   1.347   5.535  2.9289  0.7018  0.2090
 8466SOL    HW237377   7.850   1.438   5.651  0.6352 -1.1038  1.0218
 8467SOL     OW37378   6.865   5.618   6.319 -0.2884  0.3087  0.2969
 8467SOL    HW137379   6.787   5.612   6.374 -0.7307  1.4722 -0.1538
 8467SOL    HW237380   6.920   5.683   6.362 -1.3250  2.4121 -1.3433
 8468SOL     OW37381   4.389   4.978   1.576 -0.2443  0.4778 -0.6098
 8468SOL    HW137382   4.338   4.908   1.617  0.6915  0.9177  1.4656
 8468SOL    HW237383   4.472   4.936   1.552  0.0430  0.6772 -0.0086
 8469SOL     OW37384   2.744   8.529   5.411  0.2129  0.0083 -0.1206
 8469SOL    HW137385   2.835   8.521   5.437 -0.2831  2.7803  3.0983
 8469SOL    HW237386   2.703   8.448   5.442  1.2084 -0.3764  0.2118
 8470SOL     OW37387   6.517   6.165   9.739 -0.3240  0.2749  0.0844
 8470SOL    HW137388   6.540   6.177   9.831  1.2538 -0.5806 -0.1658
 8470SOL    HW237389   6.552   6.079   9.716  0.3784  0.9542 -1.6260
 8471SOL     OW37390   2.244  10.257   5.019  0.0098 -0.1075  0.0579
 8471SOL    HW137391   2.207  10.212   4.944  2.8146 -0.7354 -1.0548
 8471SOL    HW237392   2.177  10.321   5.044 -1.2621 -0.3135 -2.5593
 8472SOL     OW37393   2.689   0.866   4.408  0.5460  0.0457  0.0483
 8472SOL    HW137394   2.778   0.871   4.372  1.1078 -1.6719  1.0575
 8472SOL    HW237395   2.703   0.862   4.503 -0.5271 -1.1386  0.1839
 8473SOL     OW37396   8.638   0.490   8.666 -0.5685  0.3504 -0.1613
 8473SOL    HW137397   8.657   0.412   8.614  0.0771 -0.0013  0.5811
 8473SOL    HW237398   8.711   0.549   8.647  1.4737 -1.0084  2.7050
 8474SOL     OW37399   4.051   3.589   5.896  0.6378 -0.2775  0.5791
 8474SOL    HW137400   4.141   3.611   5.920  1.3240 -0.5312 -1.5433
 8474SOL    HW237401   4.026   3.658   5.834 -0.5461 -0.3628  0.9447
 8475SOL     OW37402   2.604   3.400   1.950 -0.0040  0.0881 -0.8139
 8475SOL    HW137403   2.610   3.468   2.017  0.1962  0.6420 -1.3814
 8475SOL    HW237404   2.573   3.446   1.872  2.5775  0.0852 -1.9493
 8476SOL     OW37405   7.464   6.480   3.062 -0.6337 -0.7599  0.4218
 8476SOL    HW137406   7.385   6.527   3.089 -0.2557 -0.4413  0.9930
 8476SOL    HW237407   7.511   6.542   3.006 -1.2355 -1.2865 -0.6964
 8477SOL     OW37408   0.781   5.158   1.425 -0.3894 -0.0715 -0.1195
 8477SOL    HW137409   0.813   5.080   1.470  0.4728 -0.3610 -1.2100
 8477SOL    HW237410   0.753   5.127   1.339 -0.1173  0.8085 -0.5317
 8478SOL     OW37411   8.797   1.272   6.500  0.4697 -0.2464  1.0533
 8478SOL    HW137412   8.784   1.320   6.582 -0.7720  0.6472  0.3728
 8478SOL    HW237413   8.890   1.248   6.501  0.4198 -0.5638  2.8637
 8479SOL     OW37414   5.808   9.868   1.354 -0.4812 -0.7293 -0.8257
 8479SOL    HW137415   5.821   9.865   1.259 -1.2181  0.5920 -0.9947
 8479SOL    HW237416   5.783   9.959   1.372  2.8007 -0.0055  1.0594
 8480SOL     OW37417   9.198   4.461   1.119 -0.1099  0.1287 -0.3489
 8480SOL    HW137418   9.197   4.377   1.166  0.0139 -0.1156 -0.7736
 8480SOL    HW237419   9.248   4.520   1.175 -0.5874  0.0444  0.1689
 8481SOL     OW37420   7.217   2.087   3.530  0.8589 -0.0392  0.0029
 8481SOL    HW137421   7.154   2.040   3.584 -0.0973  0.5924 -0.5361
 8481SOL    HW237422   7.175   2.095   3.444  1.6320  0.4835 -0.3479
 8482SOL     OW37423  10.379   3.204   5.849  0.0855 -0.0465 -0.5400
 8482SOL    HW137424  10.443   3.139   5.821  1.2754  0.7063  0.3266
 8482SOL    HW237425  10.398   3.281   5.795  0.3782  0.4048  0.1935
 8483SOL     OW37426   3.569   8.040   7.533 -0.0347 -0.2541 -0.0451
 8483SOL    HW137427   3.633   7.978   7.498 -0.3531 -0.1040 -0.9160
 8483SOL    HW237428   3.559   8.015   7.625 -1.1651 -2.3748 -0.6682
 8484SOL     OW37429   9.312   0.407   5.612 -0.1053 -0.0176  0.4497
 8484SOL    HW137430   9.269   0.493   5.613 -1.3657 -0.6090  2.1562
 8484SOL    HW237431   9.404   0.426   5.630 -0.0063  1.1022 -1.0549
 8485SOL     OW37432   5.633   5.572   1.513  0.2939  0.1615 -0.0315
 8485SOL    HW137433   5.557   5.515   1.502  2.5312 -2.9009 -1.1268
 8485SOL    HW237434   5.638   5.620   1.431 -0.5843  0.5875  0.1547
 8486SOL     OW37435  10.002   0.289   8.101  0.2317  0.1274 -0.2178
 8486SOL    HW137436   9.994   0.300   8.006  0.3614 -0.2298 -0.2725
 8486SOL    HW237437   9.938   0.349   8.138  0.0743  0.1561 -0.5375
 8487SOL     OW37438   6.478   6.194   0.497 -1.0134 -0.3478  0.2301
 8487SOL    HW137439   6.426   6.191   0.417 -0.4193  1.0990 -0.2456
 8487SOL    HW237440   6.535   6.117   0.492  0.7425  0.9547 -2.0061
 8488SOL     OW37441   7.695   1.559   8.800  0.2216  0.2755  0.1013
 8488SOL    HW137442   7.650   1.584   8.881 -0.1362  0.4690 -0.1556
 8488SOL    HW237443   7.760   1.495   8.828  0.2742  0.5325  0.5816
 8489SOL     OW37444   3.995   1.444   4.369  0.0865  0.6536 -0.2693
 8489SOL    HW137445   3.965   1.521   4.417 -1.0235  0.2569 -0.2970
 8489SOL    HW237446   4.019   1.477   4.282 -0.3292  0.9797 -0.2609
 8490SOL     OW37447   5.647   1.155   9.890 -0.5654 -0.1847  0.1024
 8490SOL    HW137448   5.715   1.138   9.825 -1.1322  0.5557 -0.6886
 8490SOL    HW237449   5.590   1.078   9.885  0.3417 -0.9501  0.9729
 8491SOL     OW37450   8.666   9.444   4.441 -0.0944 -0.3838 -0.0066
 8491SOL    HW137451   8.756   9.445   4.410 -0.6881  1.9128 -1.9735
 8491SOL    HW237452   8.629   9.527   4.411 -3.3598 -1.9584 -0.8106
 8492SOL     OW37453  10.010   5.471   1.324 -0.0555 -0.0596 -0.1270
 8492SOL    HW137454   9.999   5.439   1.234 -1.1841 -0.1025  0.0118
 8492SOL    HW237455   9.950   5.546   1.329  0.7552  0.5754  0.2925
 8493SOL     OW37456   9.786   0.960   2.542  0.2353  0.1160 -1.0600
 8493SOL    HW137457   9.738   0.882   2.570  0.5441  0.1279 -0.4808
 8493SOL    HW237458   9.745   1.032   2.591 -1.1177  0.5888 -2.7614
 8494SOL     OW37459   9.543   4.953   5.841  0.7964  0.1234 -0.5296
 8494SOL    HW137460   9.492   5.032   5.856  1.1184  0.2117  0.1713
 8494SOL    HW237461   9.631   4.985   5.822  0.7259 -0.0423 -1.1456
 8495SOL     OW37462   9.659   6.820   1.209 -0.0751  0.0519  0.1903
 8495SOL    HW137463   9.718   6.845   1.280 -1.2839 -0.9083  1.5933
 8495SOL    HW237464   9.613   6.742   1.242 -0.0284 -0.9954 -2.0167
 8496SOL     OW37465   7.172  10.016   8.237  0.2294 -0.1607  0.1554
 8496SOL    HW137466   7.130   9.970   8.309  0.0666 -0.9028 -0.4039
 8496SOL    HW237467   7.250   9.964   8.217  0.6799  0.4474  0.2763
 8497SOL     OW37468   6.573   4.410   6.167 -0.0995 -0.6012  0.6043
 8497SOL    HW137469   6.557   4.381   6.257 -3.1737 -0.4818  0.2291
 8497SOL    HW237470   6.618   4.336   6.126 -0.9569 -1.7368  1.6197
 8498SOL     OW37471   1.782   7.064   1.339 -0.3715  0.2244  0.1570
 8498SOL    HW137472   1.836   7.140   1.358 -0.6219  0.2888  0.6383
 8498SOL    HW237473   1.824   6.992   1.387 -0.0602  0.0255 -0.4015
 8499SOL     OW37474   3.445   1.286   4.237  0.0310  0.0394  0.0658
 8499SOL    HW137475   3.358   1.246   4.241  0.3073 -0.7480 -1.2950
 8499SOL    HW237476   3.506   1.213   4.240  0.5816  0.4299 -0.8558
 8500SOL     OW37477   0.594   9.568   6.748  0.1078 -0.6377 -0.3861
 8500SOL    HW137478   0.627   9.567   6.659 -0.1024 -0.6196 -0.4661
 8500SOL    HW237479   0.514   9.514   6.744  1.3625 -2.6509  0.2880
 8501SOL     OW37480   6.945   9.222   7.590  0.1684 -0.2171  0.4391
 8501SOL    HW137481   6.950   9.318   7.584 -1.9967 -0.1261 -0.9358
 8501SOL    HW237482   6.996   9.191   7.515 -2.1081  0.0471 -1.3316
 8502SOL     OW37483   3.488   3.426   8.437 -0.0737 -0.0230 -0.1733
 8502SOL    HW137484   3.470   3.377   8.517 -0.7699  1.1439  0.4173
 8502SOL    HW237485   3.432   3.387   8.370  0.5673 -1.0532 -0.1233
 8503SOL     OW37486   0.444   4.779   0.511 -0.0293  0.5136 -1.1638
 8503SOL    HW137487   0.392   4.699   0.500  0.0873  0.0118  1.2229
 8503SOL    HW237488   0.526   4.762   0.465 -0.7852  0.0890 -2.3902
 8504SOL     OW37489   0.067   6.921   1.487 -0.3864  0.1182  0.2212
 8504SOL    HW137490   0.081   6.869   1.407 -1.3131  1.4296 -0.8299
 8504SOL    HW237491  -0.026   6.941   1.486 -0.1731  1.2000  0.9858
 8505SOL     OW37492   1.552   8.766   2.695  0.0679 -0.1789  0.0007
 8505SOL    HW137493   1.647   8.781   2.694 -0.2539  2.4073  1.0894
 8505SOL    HW237494   1.517   8.829   2.632 -1.1837  2.1005  2.7410
 8506SOL     OW37495  10.117   5.649   3.430  0.5491  0.4396 -0.1645
 8506SOL    HW137496  10.126   5.561   3.465  1.2373  1.1725  1.6311
 8506SOL    HW237497  10.029   5.676   3.456  0.4075  0.3669 -0.5533
 8507SOL     OW37498   9.298   1.681   4.673  0.1333 -0.1927  0.3753
 8507SOL    HW137499   9.375   1.734   4.692  1.2883 -2.2262  1.7516
 8507SOL    HW237500   9.235   1.705   4.740  0.5944 -0.4090  0.8946
 8508SOL     OW37501   4.391   7.123   2.715  0.2175  0.0477 -0.1905
 8508SOL    HW137502   4.302   7.157   2.725  0.3228  0.1663  0.3556
 8508SOL    HW237503   4.428   7.175   2.643  0.4071  1.1952  0.6984
 8509SOL     OW37504   8.801   0.805   4.664 -0.1140 -0.7209  0.2988
 8509SOL    HW137505   8.829   0.888   4.702 -0.3203  0.6676 -2.3573
 8509SOL    HW237506   8.748   0.829   4.588 -1.4908 -3.3115  0.3138
 8510SOL     OW37507   5.852   5.265   1.640 -0.1539  0.0532 -0.2106
 8510SOL    HW137508   5.868   5.358   1.652 -0.7800  0.0180  1.0228
 8510SOL    HW237509   5.796   5.260   1.562 -0.0117  0.6882 -0.3559
 8511SOL     OW37510   5.244   4.724   9.363 -0.2075 -0.2045  0.2891
 8511SOL    HW137511   5.319   4.686   9.317 -0.2654  0.5951 -0.4871
 8511SOL    HW237512   5.169   4.671   9.337  0.3251 -2.2559  2.5870
 8512SOL     OW37513   5.853   2.851   1.695  0.4800 -0.4315  0.1401
 8512SOL    HW137514   5.830   2.759   1.682  0.4493 -0.4252  0.1492
 8512SOL    HW237515   5.844   2.865   1.789  3.1494 -1.1397  0.5766
 8513SOL     OW37516   2.651   7.883   6.379  0.0677  0.0737 -0.0043
 8513SOL    HW137517   2.739   7.919   6.368  0.2590  0.0442  1.2893
 8513SOL    HW237518   2.651   7.803   6.327  0.2359  0.9536 -1.4121
 8514SOL     OW37519   9.625   9.761   1.255 -0.4257  0.1006 -0.0238
 8514SOL    HW137520   9.703   9.787   1.304 -0.9227 -1.5804  1.7880
 8514SOL    HW237521   9.658   9.704   1.186  0.0942  0.7073 -0.2833
 8515SOL     OW37522  10.383   6.619   5.720 -0.0787  0.2820 -0.6906
 8515SOL    HW137523  10.296   6.580   5.724  0.0606 -0.1569 -1.6409
 8515SOL    HW237524  10.416   6.614   5.810 -0.8648  0.0715 -0.4089
 8516SOL     OW37525   5.307   2.320   8.459  0.3152 -0.0056  0.4394
 8516SOL    HW137526   5.211   2.321   8.461  0.2871 -1.2998  0.4618
 8516SOL    HW237527   5.329   2.264   8.385  1.0336 -0.9996  1.3744
 8517SOL     OW37528   6.946   1.491   8.488 -0.3415 -0.1773 -0.1893
 8517SOL    HW137529   6.910   1.506   8.401 -0.4939  0.7652  0.0217
 8517SOL    HW237530   7.039   1.510   8.479 -0.3448 -0.1468 -0.1591
 8518SOL     OW37531   7.046   9.265   0.178 -0.3708 -0.5209  0.0865
 8518SOL    HW137532   7.071   9.314   0.099 -0.7876 -0.2344  0.1259
 8518SOL    HW237533   7.127   9.225   0.208  0.1028  0.5711  0.3358
 8519SOL     OW37534   8.497   2.150   1.553 -0.0228 -0.0600  0.1279
 8519SOL    HW137535   8.452   2.066   1.543 -1.0554  0.5678 -0.6801
 8519SOL    HW237536   8.587   2.126   1.576 -0.2001 -1.3930 -0.4574
 8520SOL     OW37537   2.054   2.593   4.970  0.4142  0.2194  0.3769
 8520SOL    HW137538   2.021   2.617   5.057 -2.5017  1.8017 -1.0246
 8520SOL    HW237539   2.055   2.497   4.971 -0.6732  0.1827  1.7952
 8521SOL     OW37540   2.166   4.540   7.393  0.5689  0.1450  0.1721
 8521SOL    HW137541   2.163   4.586   7.309 -1.2862  1.5907  0.9564
 8521SOL    HW237542   2.257   4.510   7.400  0.5092 -1.1182 -2.8662
 8522SOL     OW37543   8.661   1.919   4.580  0.2522  0.1431  0.2009
 8522SOL    HW137544   8.668   1.874   4.665  0.7553 -0.1137  0.0254
 8522SOL    HW237545   8.750   1.946   4.560  0.2708 -0.5026 -0.6264
 8523SOL     OW37546   4.655   1.273   7.061 -0.1887  0.6475  0.0681
 8523SOL    HW137547   4.744   1.289   7.032  0.3358 -0.4107  0.9961
 8523SOL    HW237548   4.617   1.217   6.993  0.0887  0.5112  0.0264
 8524SOL     OW37549   5.902   1.834   9.978 -0.3679 -0.2483  0.0867
 8524SOL    HW137550   5.815   1.836  10.018 -0.1206 -0.5859  0.6621
 8524SOL    HW237551   5.885   1.829   9.884 -0.9672  1.8725  0.0366
 8525SOL     OW37552   6.347   7.789  10.349 -0.0115  0.7964 -0.5723
 8525SOL    HW137553   6.298   7.843  10.411  0.7621  0.7841  0.0525
 8525SOL    HW237554   6.429   7.768  10.393 -1.0570 -2.5554  0.0405
 8526SOL     OW37555   5.641   4.548   6.062 -0.4776  0.6274  0.0530
 8526SOL    HW137556   5.723   4.510   6.029 -0.5048  0.2178  0.4536
 8526SOL    HW237557   5.658   4.643   6.062  0.4992  0.4868  1.4149
 8527SOL     OW37558   7.376   0.205   3.049 -0.0847  0.6416 -0.1154
 8527SOL    HW137559   7.312   0.246   3.108 -1.2354  1.3238 -1.7531
 8527SOL    HW237560   7.371   0.112   3.070 -2.0087  0.6159 -0.5110
 8528SOL     OW37561   1.409   1.801   6.911 -0.3290  0.0808 -0.2428
 8528SOL    HW137562   1.362   1.861   6.969 -0.1711  0.7086 -0.7515
 8528SOL    HW237563   1.495   1.841   6.900 -0.7815  0.6798 -1.9499
 8529SOL     OW37564   6.942   7.751   7.154 -0.2871 -0.0273 -0.1590
 8529SOL    HW137565   6.961   7.705   7.235 -0.2382 -0.0193 -0.1663
 8529SOL    HW237566   6.904   7.684   7.096 -1.2136  0.1649  0.1978
 8530SOL     OW37567   4.437   6.898   8.735  0.3186 -0.4304 -0.1452
 8530SOL    HW137568   4.371   6.928   8.798  0.6073 -1.5921  0.7489
 8530SOL    HW237569   4.405   6.928   8.650 -0.6177  0.2671  0.4347
 8531SOL     OW37570   8.217   7.418   6.849 -0.2527 -0.0317  0.5597
 8531SOL    HW137571   8.256   7.393   6.766 -0.6605  0.2553  0.2753
 8531SOL    HW237572   8.147   7.353   6.863  0.0607 -0.3050  0.8665
 8532SOL     OW37573   0.215   6.972   4.766  0.4080 -0.5801  0.0568
 8532SOL    HW137574   0.260   6.918   4.830  0.9806 -0.8218 -0.5397
 8532SOL    HW237575   0.228   7.062   4.796  1.2030 -0.6534 -0.0467
 8533SOL     OW37576   3.732   0.686   5.690 -0.0396  0.2481  0.2138
 8533SOL    HW137577   3.694   0.743   5.756  0.5728 -0.0237  0.8156
 8533SOL    HW237578   3.737   0.600   5.733 -1.2160 -0.3410 -0.7676
 8534SOL     OW37579   4.242   8.284   2.792 -0.2456  0.3609  0.2768
 8534SOL    HW137580   4.249   8.379   2.793  1.3512  0.2734  0.6473
 8534SOL    HW237581   4.333   8.253   2.799 -0.8221 -1.1877  1.6961
 8535SOL     OW37582   7.139   8.962   1.444 -0.1623 -0.0514  0.2084
 8535SOL    HW137583   7.047   8.958   1.420 -0.0128  1.2463 -0.6937
 8535SOL    HW237584   7.160   8.874   1.474 -0.9178 -1.2763 -2.5016
 8536SOL     OW37585   5.718   2.884   6.657 -0.2315 -0.2423  0.2405
 8536SOL    HW137586   5.760   2.947   6.716 -1.1653  1.5705 -0.9247
 8536SOL    HW237587   5.740   2.798   6.693  2.3844  0.6823  1.0420
 8537SOL     OW37588   8.713   9.296   8.205 -0.1406 -0.2734  0.3660
 8537SOL    HW137589   8.645   9.232   8.185 -1.6145  1.4308 -0.4255
 8537SOL    HW237590   8.786   9.272   8.148 -1.0156 -0.6975 -0.6148
 8538SOL     OW37591   7.991   9.324   1.359 -0.1069  0.4870 -0.6954
 8538SOL    HW137592   8.056   9.263   1.393 -1.1919 -0.0043  0.5540
 8538SOL    HW237593   8.024   9.348   1.272  0.9414 -0.9349 -0.7178
 8539SOL     OW37594   2.862   6.405   4.389 -0.2327  0.1846  0.3147
 8539SOL    HW137595   2.942   6.425   4.438 -0.5544 -1.2245  1.4743
 8539SOL    HW237596   2.803   6.367   4.454 -0.4344 -2.4007 -1.2513
 8540SOL     OW37597   7.158   8.008   0.168 -0.6233 -0.1955 -0.5476
 8540SOL    HW137598   7.170   7.993   0.262 -0.2383 -3.3949 -0.9959
 8540SOL    HW237599   7.243   8.041   0.138 -0.2079 -0.7550 -0.0137
 8541SOL     OW37600   8.205   9.789   9.158 -0.4880  0.1268  0.2281
 8541SOL    HW137601   8.143   9.798   9.086 -1.2960  0.8175  1.0011
 8541SOL    HW237602   8.159   9.739   9.225  0.9642 -2.3887 -0.5006
 8542SOL     OW37603   4.844   4.888   5.727 -0.0110 -0.3722 -1.0034
 8542SOL    HW137604   4.840   4.856   5.817 -0.4680 -0.8508 -1.1855
 8542SOL    HW237605   4.793   4.969   5.729  1.9546  0.9283 -0.3280
 8543SOL     OW37606   9.858   7.221  10.114  0.0156 -0.0301  0.4344
 8543SOL    HW137607   9.842   7.306  10.155 -0.0676  1.0971 -1.8040
 8543SOL    HW237608   9.894   7.167  10.185 -1.0423  1.4718  2.2031
 8544SOL     OW37609   9.779   4.775   0.592  0.4648  0.4126  0.9973
 8544SOL    HW137610   9.759   4.716   0.665 -0.1199  0.4562  0.8758
 8544SOL    HW237611   9.733   4.738   0.517  1.3635  0.1602  0.5477
 8545SOL     OW37612   2.804   6.656   8.685 -0.2135 -0.8742 -0.1611
 8545SOL    HW137613   2.758   6.654   8.601  0.1670  0.2482 -0.4166
 8545SOL    HW237614   2.780   6.740   8.724  0.6410 -0.8032  0.2520
 8546SOL     OW37615   1.302   3.637   1.438 -0.3112  0.3254 -0.0791
 8546SOL    HW137616   1.242   3.640   1.363 -0.3750 -0.2122 -0.0538
 8546SOL    HW237617   1.245   3.643   1.514 -0.7247 -3.4376  0.0781
 8547SOL     OW37618   2.191   2.870   5.662  0.3892  0.2163  0.3732
 8547SOL    HW137619   2.258   2.824   5.712  1.2621  0.7529 -0.2699
 8547SOL    HW237620   2.240   2.915   5.592 -0.7807 -0.4513 -0.9151
 8548SOL     OW37621   6.305   7.379   0.623  0.0284  0.2181 -0.1875
 8548SOL    HW137622   6.368   7.323   0.669 -1.2524 -0.9374  0.2278
 8548SOL    HW237623   6.341   7.388   0.535 -0.0028 -1.7513 -0.4369
 8549SOL     OW37624   8.091   9.128   2.890 -0.6968 -0.2542 -0.3988
 8549SOL    HW137625   8.092   9.107   2.983 -1.9543  1.5831  0.0738
 8549SOL    HW237626   8.157   9.196   2.879 -0.3739 -0.6387 -0.9196
 8550SOL     OW37627   6.495   9.527   8.623 -0.3644 -0.1550  0.2857
 8550SOL    HW137628   6.425   9.562   8.568  0.5203  2.3450  0.6250
 8550SOL    HW237629   6.477   9.563   8.710  1.6079  1.0053  0.2563
 8551SOL     OW37630   9.269   8.065   1.057  0.1632 -0.6515 -0.3278
 8551SOL    HW137631   9.335   8.049   1.124 -1.8196 -1.7625  1.4829
 8551SOL    HW237632   9.264   8.160   1.051  2.3310 -0.5156 -1.0303
 8552SOL     OW37633   9.838   0.708   1.486 -0.5010  0.1553 -0.1679
 8552SOL    HW137634   9.921   0.665   1.467 -0.6171  0.1114 -0.5720
 8552SOL    HW237635   9.848   0.797   1.452 -0.6377  0.1371 -0.2552
 8553SOL     OW37636   6.583   6.970   8.047  0.1009 -0.3586  0.0564
 8553SOL    HW137637   6.533   6.894   8.076 -1.6545  0.8503  0.3651
 8553SOL    HW237638   6.593   6.958   7.953  3.0738 -2.7339  0.5332
 8554SOL     OW37639   6.443   4.113   5.899  0.2761 -0.6354  0.2505
 8554SOL    HW137640   6.406   4.071   5.977  0.5958  0.9738  1.3264
 8554SOL    HW237641   6.531   4.140   5.926  0.5875 -0.5038 -0.8472
 8555SOL     OW37642   6.694   7.890   4.736 -0.4920  0.7519  1.2171
 8555SOL    HW137643   6.622   7.887   4.799 -0.6641  0.1667  0.9980
 8555SOL    HW237644   6.740   7.807   4.748  0.3783  1.2656  1.6074
 8556SOL     OW37645   2.522   1.584   6.280  0.2346  0.3653  0.2290
 8556SOL    HW137646   2.561   1.516   6.224  0.0019  0.4972 -0.0994
 8556SOL    HW237647   2.438   1.548   6.306  1.2662 -0.6502  2.3487
 8557SOL     OW37648   9.993   4.887   2.639  0.1968 -0.0456 -0.0246
 8557SOL    HW137649   9.947   4.969   2.621  0.6096  0.6616  1.8943
 8557SOL    HW237650  10.076   4.914   2.679  1.4004 -1.3551 -1.5102
 8558SOL     OW37651   2.864   2.135   0.242 -0.1375 -0.0076  0.3021
 8558SOL    HW137652   2.900   2.093   0.320  0.4224 -0.6400 -0.2825
 8558SOL    HW237653   2.770   2.120   0.248 -0.0142 -0.7538  0.4544
 8559SOL     OW37654   9.731  10.356   0.380  0.8805  0.1113  0.0953
 8559SOL    HW137655   9.783  10.290   0.426  0.0588 -0.1201  0.7200
 8559SOL    HW237656   9.758  10.439   0.420  2.6687  0.3141 -1.3952
 8560SOL     OW37657   6.241   4.898   7.257 -0.1094  0.0688  0.2289
 8560SOL    HW137658   6.167   4.958   7.254  0.4307  0.8149 -3.9895
 8560SOL    HW237659   6.309   4.945   7.304 -0.9633  1.1556  0.4039
 8561SOL     OW37660   8.827   5.534   6.770  0.3089 -0.1308 -0.4739
 8561SOL    HW137661   8.770   5.457   6.759  2.1914 -1.4483 -1.6472
 8561SOL    HW237662   8.855   5.531   6.862  0.9127 -1.2980 -0.6757
 8562SOL     OW37663   1.670   0.570   4.153  0.4106  0.6673  0.3509
 8562SOL    HW137664   1.748   0.609   4.114  0.0041 -0.5815 -1.8895
 8562SOL    HW237665   1.685   0.475   4.145 -1.2393  0.4091  0.0439
 8563SOL     OW37666   6.764   0.310   4.288  0.2646  0.0784  0.3372
 8563SOL    HW137667   6.823   0.305   4.213  0.2699 -0.0221  0.3482
 8563SOL    HW237668   6.820   0.328   4.363  0.3508 -0.6220  0.4428
 8564SOL     OW37669   3.746   9.981   4.560  0.2792  0.1067 -0.5755
 8564SOL    HW137670   3.776   9.896   4.592  0.1706  0.9747  2.0959
 8564SOL    HW237671   3.825  10.036   4.561 -0.5210  1.4627  3.1687
 8565SOL     OW37672   4.810   8.389   6.952 -0.7475 -0.4231 -0.3182
 8565SOL    HW137673   4.740   8.376   7.017 -0.8622  0.8581 -0.1624
 8565SOL    HW237674   4.809   8.483   6.934  2.1254 -0.0205  1.0681
 8566SOL     OW37675   1.322   5.548   8.443  0.3662  0.3460  0.1301
 8566SOL    HW137676   1.278   5.569   8.525 -0.9484  1.1021 -0.7460
 8566SOL    HW237677   1.414   5.568   8.460  0.7620 -2.8323  2.5293
 8567SOL     OW37678   1.182  10.371   3.906  0.4397 -0.6621  0.1511
 8567SOL    HW137679   1.170  10.376   4.001  0.6256  1.6206  0.1211
 8567SOL    HW237680   1.267  10.414   3.891 -0.4938  0.8336 -1.1712
 8568SOL     OW37681   9.730   3.171   3.236  0.2054  0.0234 -0.4506
 8568SOL    HW137682   9.707   3.079   3.247 -3.2236  0.6840 -1.1396
 8568SOL    HW237683   9.788   3.172   3.160 -0.2996 -1.5034 -0.9002
 8569SOL     OW37684  10.002   9.832   5.668 -0.1624  0.0277  0.0584
 8569SOL    HW137685  10.029   9.796   5.584  0.7579  0.4807  0.1604
 8569SOL    HW237686   9.969   9.756   5.717  2.5739 -0.8971  0.5987
 8570SOL     OW37687   6.194   0.195   3.873  0.4278  0.5043  0.2900
 8570SOL    HW137688   6.279   0.186   3.831  0.8593 -2.1478  1.5100
 8570SOL    HW237689   6.132   0.158   3.810  0.4965  0.3280  0.3260
 8571SOL     OW37690  10.009   8.913   3.031  0.0857 -0.4281 -0.0380
 8571SOL    HW137691   9.944   8.983   3.028  0.0698 -0.4680 -0.8778
 8571SOL    HW237692   9.960   8.836   3.058 -0.5978 -0.8401 -2.3118
 8572SOL     OW37693   3.137   1.772   4.483 -0.1210  0.2853 -0.2254
 8572SOL    HW137694   3.166   1.815   4.563  1.5752 -0.7238 -0.2570
 8572SOL    HW237695   3.063   1.718   4.510 -0.5014  1.0691  0.3460
 8573SOL     OW37696   2.936   2.183   8.115 -0.6275  0.5109  0.0740
 8573SOL    HW137697   3.020   2.138   8.110 -0.4394  0.7369  0.9424
 8573SOL    HW237698   2.872   2.117   8.092 -0.1529  0.6294 -1.7363
 8574SOL     OW37699   6.509   5.264   8.123 -0.0168  0.2700 -0.6153
 8574SOL    HW137700   6.433   5.250   8.180  0.9599 -1.4928  0.3594
 8574SOL    HW237701   6.584   5.244   8.179  1.1251  1.1419 -1.7932
 8575SOL     OW37702   2.222   9.236   5.465 -0.0296 -0.0490 -0.5752
 8575SOL    HW137703   2.226   9.144   5.438 -1.5519 -0.3828  0.2630
 8575SOL    HW237704   2.308   9.254   5.504 -0.9464 -2.3136  2.8967
 8576SOL     OW37705   0.486   9.279   2.276  0.0442 -0.2768  0.1997
 8576SOL    HW137706   0.446   9.313   2.356 -1.5482 -1.8183  0.1295
 8576SOL    HW237707   0.533   9.200   2.304 -0.7758 -1.0000 -0.3949
 8577SOL     OW37708   9.574   1.730   2.780  0.2518 -0.1817 -0.0315
 8577SOL    HW137709   9.568   1.808   2.835 -1.7505 -0.4256  0.1800
 8577SOL    HW237710   9.666   1.703   2.786  1.0175  2.1586 -0.1510
 8578SOL     OW37711   2.983   5.222   5.136 -0.1873  0.0387  0.0054
 8578SOL    HW137712   3.070   5.189   5.159 -1.4530 -2.5069  1.6483
 8578SOL    HW237713   2.949   5.258   5.217 -0.5948  1.2693 -0.6903
 8579SOL     OW37714   7.379   4.970   5.699  0.1405 -0.2110 -0.0808
 8579SOL    HW137715   7.448   4.982   5.634  0.2033 -1.9075 -0.3674
 8579SOL    HW237716   7.339   5.057   5.709  2.8973  1.0679  0.7861
 8580SOL     OW37717  10.114   8.813   5.773  0.0335  0.1494 -0.2226
 8580SOL    HW137718  10.053   8.739   5.772  0.3093 -0.4288  4.2718
 8580SOL    HW237719  10.058   8.890   5.760 -0.7040 -0.6149 -1.8999
 8581SOL     OW37720   3.542   4.448   8.433  0.3790 -0.0780  0.2024
 8581SOL    HW137721   3.590   4.530   8.444 -1.3391  0.9197  0.7792
 8581SOL    HW237722   3.605   4.380   8.454  1.5135  1.1665  1.0059
 8582SOL     OW37723   0.696   7.864   0.011 -0.2722  0.3651 -0.2514
 8582SOL    HW137724   0.773   7.876  -0.045 -0.3072 -0.8272 -0.5704
 8582SOL    HW237725   0.712   7.781   0.056 -0.7682  0.7593  0.6869
 8583SOL     OW37726   3.218   1.167   8.770 -0.1801 -0.1968  0.4284
 8583SOL    HW137727   3.172   1.083   8.774  0.1549 -0.4176 -0.2237
 8583SOL    HW237728   3.298   1.153   8.821  0.0719 -0.4100 -0.0143
 8584SOL     OW37729   9.054   9.657   1.317  0.2722 -0.2759  0.0888
 8584SOL    HW137730   8.986   9.592   1.299 -0.4667  0.6845 -0.6882
 8584SOL    HW237731   9.054   9.714   1.240  1.9027 -0.1891  0.1031
 8585SOL     OW37732   0.455   6.922   7.457  0.1427  0.2482  0.1950
 8585SOL    HW137733   0.376   6.956   7.500 -1.1437 -1.7097 -0.4346
 8585SOL    HW237734   0.423   6.847   7.406  2.1941  0.3058 -1.2857
 8586SOL     OW37735   6.627   6.080   1.673  0.3200  0.1688 -0.1788
 8586SOL    HW137736   6.682   6.032   1.735 -1.0270 -0.3429  0.6586
 8586SOL    HW237737   6.553   6.023   1.657 -0.2917  1.1057 -0.8092
 8587SOL     OW37738   4.301   9.039   5.090  0.0812  0.2147  0.5674
 8587SOL    HW137739   4.318   9.044   5.184  1.2053 -0.7992  0.4357
 8587SOL    HW237740   4.353   9.111   5.052 -0.1031  0.4092  0.6813
 8588SOL     OW37741  10.000   5.299   1.130  0.1298 -0.5163  0.2416
 8588SOL    HW137742   9.961   5.286   1.044 -0.2776 -0.7053  0.4498
 8588SOL    HW237743  10.082   5.250   1.127  1.1704  1.1883 -0.7443
 8589SOL     OW37744   2.591   4.112   6.752  0.0266  0.2304 -0.1069
 8589SOL    HW137745   2.537   4.169   6.807 -1.7906  0.0226 -1.6008
 8589SOL    HW237746   2.531   4.043   6.722  1.6081 -1.1650 -0.2363
 8590SOL     OW37747   8.395   5.739   0.751  0.1268  0.1341 -0.1872
 8590SOL    HW137748   8.457   5.812   0.746 -0.2837  0.6526  1.4974
 8590SOL    HW237749   8.401   5.696   0.666  0.0553  2.3904 -1.4078
 8591SOL     OW37750   9.227   5.357  10.244 -0.6032 -0.0584  0.1014
 8591SOL    HW137751   9.236   5.268  10.277 -1.7140  0.2038  1.1770
 8591SOL    HW237752   9.283   5.409  10.302 -1.9569  0.2910  1.1497
 8592SOL     OW37753   1.575   1.438   0.687 -0.0890  0.4956  0.4198
 8592SOL    HW137754   1.509   1.488   0.735 -1.6734  0.6160 -1.7583
 8592SOL    HW237755   1.574   1.352   0.728 -2.7790 -0.0002 -0.4655
 8593SOL     OW37756   5.392   6.072   2.536 -0.2245 -0.5574  0.6962
 8593SOL    HW137757   5.322   6.061   2.600  1.1384 -0.8529  2.2089
 8593SOL    HW237758   5.445   5.993   2.545  0.1277 -0.4982 -0.6633
 8594SOL     OW37759   1.878  10.184   2.441  0.0789  0.2644  0.2283
 8594SOL    HW137760   1.885  10.133   2.521 -1.7295 -0.9664 -0.3181
 8594SOL    HW237761   1.784  10.199   2.430  0.0830 -1.0116 -2.4634
 8595SOL     OW37762   3.655   6.426   7.239  0.6453 -0.1859 -0.3167
 8595SOL    HW137763   3.742   6.429   7.198  0.1612 -2.9488 -1.7601
 8595SOL    HW237764   3.672   6.414   7.332  1.7534  2.1799 -0.1308
 8596SOL     OW37765   6.949   2.647   4.820 -0.5593 -0.1042 -0.0585
 8596SOL    HW137766   6.983   2.559   4.802 -1.0439 -0.2237 -0.4065
 8596SOL    HW237767   6.854   2.638   4.812 -0.7544  0.0011  1.8756
 8597SOL     OW37768   8.262   0.120   7.479  0.3760  0.2322 -0.2623
 8597SOL    HW137769   8.333   0.088   7.423 -0.2373  0.1384 -1.0032
 8597SOL    HW237770   8.201   0.162   7.419  0.1055  0.8724  0.4436
 8598SOL     OW37771   2.381   3.401   2.692 -0.2546 -0.1251 -0.1955
 8598SOL    HW137772   2.345   3.396   2.781 -1.0247  0.1635 -0.4772
 8598SOL    HW237773   2.422   3.316   2.678 -3.3857 -1.6776 -0.9064
 8599SOL     OW37774   0.314   7.599   5.972 -0.5137 -0.2086  0.5114
 8599SOL    HW137775   0.322   7.550   5.890 -1.1805  1.3877 -0.5693
 8599SOL    HW237776   0.261   7.543   6.028 -2.2338 -0.2887 -1.0923
 8600SOL     OW37777   9.662   1.318   4.783 -0.0663  0.4296 -0.4736
 8600SOL    HW137778   9.686   1.259   4.854 -1.2807 -0.2442 -0.6047
 8600SOL    HW237779   9.580   1.359   4.812 -1.9267 -1.6095 -2.4015
 8601SOL     OW37780   8.961   3.903   4.052  0.4943 -0.0026  0.6494
 8601SOL    HW137781   8.959   3.961   3.975 -1.5352 -1.4379 -0.4626
 8601SOL    HW237782   9.023   3.834   4.028  1.1511  0.4333  1.0386
 8602SOL     OW37783   2.505   5.101   8.414 -0.2249  0.2562 -0.6521
 8602SOL    HW137784   2.537   5.187   8.391  1.2279  0.1088  0.6485
 8602SOL    HW237785   2.472   5.064   8.332 -0.2658  1.7691 -1.3435
 8603SOL     OW37786   7.515   2.591   5.993 -0.6881  0.2021  0.1144
 8603SOL    HW137787   7.599   2.608   5.949 -0.6983  0.1539  0.0763
 8603SOL    HW237788   7.520   2.640   6.075 -0.9197  0.7904 -0.2226
 8604SOL     OW37789   0.366   7.371   4.408  0.6131  0.4108 -0.4285
 8604SOL    HW137790   0.441   7.427   4.391  1.0608 -0.2509 -0.6528
 8604SOL    HW237791   0.314   7.375   4.327  0.3147  0.9862 -0.2197
 8605SOL     OW37792   0.442   8.390   2.419  0.2293 -0.0775 -0.6205
 8605SOL    HW137793   0.507   8.368   2.352  0.2353 -0.5952 -0.4510
 8605SOL    HW237794   0.395   8.464   2.383  0.1136 -0.4669 -1.2834
 8606SOL     OW37795  10.354   7.913   0.662  0.0681  0.4389  0.3754
 8606SOL    HW137796  10.392   7.904   0.574  3.5509  0.1659  1.7632
 8606SOL    HW237797  10.347   8.007   0.675 -2.1838  0.4943 -0.7758
 8607SOL     OW37798   0.389   1.327   9.416 -0.1533  0.3002  0.2005
 8607SOL    HW137799   0.420   1.308   9.504  0.4819 -0.3499 -0.1578
 8607SOL    HW237800   0.437   1.406   9.390 -0.1426  0.3368  0.3316
 8608SOL     OW37801   1.817   4.953   4.313 -0.2663 -0.4423  0.5849
 8608SOL    HW137802   1.825   5.020   4.245 -0.4578  1.1926  2.1009
 8608SOL    HW237803   1.890   4.972   4.373 -0.3157 -1.6151  1.0343
 8609SOL     OW37804   5.803   9.947   0.770 -0.4830 -0.2062 -0.4615
 8609SOL    HW137805   5.753   9.931   0.850  0.4303 -0.6292  0.0361
 8609SOL    HW237806   5.873  10.006   0.796  1.1015 -2.0043 -0.4205
 8610SOL     OW37807   8.571   0.004   6.628  0.2307  0.3958 -0.0680
 8610SOL    HW137808   8.560   0.027   6.536  2.7791 -0.4585 -0.6859
 8610SOL    HW237809   8.632   0.070   6.662  1.5121 -0.8542  0.1943
 8611SOL     OW37810   9.921   8.722   0.495 -0.5820 -1.1438 -0.3641
 8611SOL    HW137811   9.908   8.817   0.498  1.8278 -0.7352 -1.0059
 8611SOL    HW237812   9.839   8.688   0.459 -1.1804  0.7673 -0.9373
 8612SOL     OW37813   5.123   0.924   2.627 -0.3195 -0.1783 -0.7894
 8612SOL    HW137814   5.051   0.870   2.659  0.1986  0.3756  1.4851
 8612SOL    HW237815   5.169   0.869   2.564 -2.3400 -0.7484 -1.8475
 8613SOL     OW37816   4.758   7.295   9.322 -0.7473 -0.5587 -0.1145
 8613SOL    HW137817   4.805   7.284   9.405 -1.5932  0.8077  0.5760
 8613SOL    HW237818   4.698   7.368   9.338 -0.1561  0.4861 -2.2591
 8614SOL     OW37819   2.096   2.784   2.622 -0.1237 -0.0173  0.1124
 8614SOL    HW137820   2.031   2.768   2.554 -1.0682 -2.0277  1.4069
 8614SOL    HW237821   2.113   2.698   2.661  3.3204  0.4342 -0.1149
 8615SOL     OW37822   4.601  10.204   3.018  0.1342  0.3611 -0.5997
 8615SOL    HW137823   4.677  10.165   2.974  0.0854 -1.7035  0.9669
 8615SOL    HW237824   4.526  10.159   2.979  0.1344 -2.2773  2.0739
 8616SOL     OW37825   0.015   6.081   7.964  0.5057  0.2233 -0.3820
 8616SOL    HW137826  -0.004   6.022   8.037 -1.5657  0.4447 -0.6909
 8616SOL    HW237827   0.073   6.147   8.001  1.3413 -0.9221  0.4479
 8617SOL     OW37828   9.801  10.255   4.757  0.0868  0.7778  0.8811
 8617SOL    HW137829   9.858  10.248   4.833 -0.4626  0.1667  1.2493
 8617SOL    HW237830   9.746  10.332   4.775  1.4401  1.9715  0.0647
 8618SOL     OW37831   9.032   6.734   9.335 -0.1078  0.0985  0.3590
 8618SOL    HW137832   9.112   6.772   9.372  0.0366  0.7068 -0.5405
 8618SOL    HW237833   9.054   6.643   9.317  0.6227  0.4375 -0.5320
 8619SOL     OW37834   9.265   1.474   3.713  0.2592  0.4149 -0.2539
 8619SOL    HW137835   9.272   1.563   3.746  0.8299 -0.1881  1.3492
 8619SOL    HW237836   9.299   1.419   3.783 -2.0492 -1.2401 -0.3024
 8620SOL     OW37837   3.483   3.293   2.949 -0.5274 -0.7089  0.0606
 8620SOL    HW137838   3.408   3.266   3.002 -0.9734  1.3689  0.6094
 8620SOL    HW237839   3.451   3.368   2.898  1.5146  1.2613  1.4677
 8621SOL     OW37840   5.845   9.366   0.433  0.2771 -0.4036  0.0165
 8621SOL    HW137841   5.750   9.371   0.446  0.0543 -1.6495 -0.9573
 8621SOL    HW237842   5.864   9.273   0.423  1.3099 -0.0732 -1.6658
 8622SOL     OW37843   1.126   8.765   2.732 -0.1675  0.6439  0.8094
 8622SOL    HW137844   1.069   8.728   2.799  1.1809 -2.2058  0.5412
 8622SOL    HW237845   1.200   8.802   2.780 -0.0217  0.1290  0.9893
 8623SOL     OW37846   0.966   7.313   3.676  0.2799 -0.0103  0.3671
 8623SOL    HW137847   1.001   7.232   3.712  0.3636 -0.3678 -0.5004
 8623SOL    HW237848   0.871   7.306   3.687  0.3422  0.1457  1.0399
 8624SOL     OW37849   7.062   7.169   6.472  0.2692 -0.3436  0.7457
 8624SOL    HW137850   7.105   7.254   6.475  1.7291 -0.8005 -2.4932
 8624SOL    HW237851   7.126   7.109   6.510  0.2185 -0.2815  0.9259
 8625SOL     OW37852   4.680   8.615   2.317  0.5935  0.4074 -0.3222
 8625SOL    HW137853   4.611   8.573   2.369  1.2731 -0.4432 -0.0780
 8625SOL    HW237854   4.672   8.575   2.230 -0.2581  1.5063 -0.7658
 8626SOL     OW37855   0.442   5.892   0.580  0.3000  0.3946  0.2804
 8626SOL    HW137856   0.364   5.924   0.536 -0.7619 -0.6392  1.3181
 8626SOL    HW237857   0.513   5.908   0.518 -0.7986  0.9242 -0.8900
 8627SOL     OW37858   3.245   0.717   9.948  0.4539 -0.4968 -0.4744
 8627SOL    HW137859   3.247   0.778   9.874  2.3470  1.1228  0.7953
 8627SOL    HW237860   3.156   0.683   9.949  0.1705 -0.0499 -3.0470
 8628SOL     OW37861   1.890   6.587   0.316 -0.1707  1.0576  0.5433
 8628SOL    HW137862   1.919   6.653   0.254 -0.5673  0.0764 -0.7224
 8628SOL    HW237863   1.810   6.551   0.278  0.7431 -1.0754  0.5137
 8629SOL     OW37864   6.475   0.393  10.366 -0.2196 -0.3574  0.4065
 8629SOL    HW137865   6.568   0.412  10.351  0.0556 -0.3251  1.9616
 8629SOL    HW237866   6.440   0.375  10.279  0.9819  0.7699 -0.3536
 8630SOL     OW37867   8.292   2.235   3.628 -0.3675 -0.6576  0.1244
 8630SOL    HW137868   8.267   2.271   3.713  0.9073 -1.8301  1.0362
 8630SOL    HW237869   8.385   2.256   3.620 -0.3416 -1.0524 -0.7373
 8631SOL     OW37870   0.049   5.846   7.775 -0.1572  0.6327 -0.5620
 8631SOL    HW137871   0.054   5.935   7.811 -0.8840  0.7411 -0.7115
 8631SOL    HW237872   0.061   5.789   7.851 -0.5547  0.8640 -0.3222
 8632SOL     OW37873   9.974   6.958   6.893  0.1968 -0.1116 -0.5025
 8632SOL    HW137874  10.046   6.989   6.948 -0.2319  0.6320 -0.3398
 8632SOL    HW237875   9.953   6.871   6.928 -0.5978  0.6757  1.0709
 8633SOL     OW37876   0.285   2.966   5.035  0.4593  0.2087  0.2070
 8633SOL    HW137877   0.211   2.914   5.066 -0.0873  1.3199  0.8419
 8633SOL    HW237878   0.353   2.952   5.101 -0.1771  1.3741  1.1549
 8634SOL     OW37879   6.502   2.878   5.446  0.2239 -0.1321 -0.2707
 8634SOL    HW137880   6.574   2.934   5.418  1.7317 -0.2029  3.0163
 8634SOL    HW237881   6.454   2.930   5.511 -0.9861 -1.1145 -0.3269
 8635SOL     OW37882   8.501  10.213   0.745 -0.0002 -0.0948 -0.1216
 8635SOL    HW137883   8.503  10.301   0.784  0.2384 -0.2658  0.2586
 8635SOL    HW237884   8.443  10.222   0.670  1.5375  0.8575 -1.2579
 8636SOL     OW37885   4.733   3.741   1.065  0.5372  0.2605  0.3390
 8636SOL    HW137886   4.792   3.719   0.994  0.9498  0.3582  0.6494
 8636SOL    HW237887   4.646   3.739   1.026  0.5308 -1.9777  0.3547
 8637SOL     OW37888   9.915   1.214   5.969 -0.1660 -0.1255  0.2657
 8637SOL    HW137889   9.883   1.271   5.900 -1.1413 -0.8364  0.0935
 8637SOL    HW237890   9.981   1.159   5.927  0.4656  0.5667  0.3298
 8638SOL     OW37891   6.612   4.388   7.265 -0.6729  0.3807 -0.6649
 8638SOL    HW137892   6.642   4.327   7.198 -0.4782  1.0072 -1.1568
 8638SOL    HW237893   6.522   4.409   7.241 -0.8551  0.0232 -0.3008
 8639SOL     OW37894   8.321  10.200   2.969  0.2532  0.3547  0.4351
 8639SOL    HW137895   8.413  10.209   2.997  0.2034 -0.9022  1.0824
 8639SOL    HW237896   8.271  10.231   3.044  0.1489 -0.4605  0.7164
 8640SOL     OW37897   1.699   5.736   0.892 -0.1216  0.3798  0.0550
 8640SOL    HW137898   1.675   5.709   0.980  2.8074  0.2700  0.9354
 8640SOL    HW237899   1.757   5.811   0.905 -0.4551  1.0218 -1.8501
 8641SOL     OW37900   3.302   9.975   2.784  0.4071  0.9625 -0.4043
 8641SOL    HW137901   3.303   9.883   2.811  0.4483  1.1200  0.1292
 8641SOL    HW237902   3.375   9.983   2.723  1.1219  0.9059  0.4352
 8642SOL     OW37903   8.171   8.979   2.086 -0.2666  0.7990 -0.3553
 8642SOL    HW137904   8.130   8.896   2.062  1.5227 -0.4651  0.7143
 8642SOL    HW237905   8.226   9.002   2.010 -0.7637  1.0366 -0.6511
 8643SOL     OW37906   5.742   1.384   8.573 -0.1003  0.5991  0.2693
 8643SOL    HW137907   5.806   1.407   8.506  0.0279 -2.0195 -0.6185
 8643SOL    HW237908   5.793   1.344   8.643 -0.6144 -0.4153  0.0847
 8644SOL     OW37909   3.259   5.402   7.934  0.0250  0.0127  0.0485
 8644SOL    HW137910   3.198   5.473   7.915  0.6637  1.0272  1.5507
 8644SOL    HW237911   3.276   5.361   7.849  0.2848  2.2097 -1.0382
 8645SOL     OW37912   5.140   1.570   8.246 -0.3296 -0.0697 -0.9729
 8645SOL    HW137913   5.207   1.502   8.237 -0.1668  0.1603 -1.5457
 8645SOL    HW237914   5.117   1.592   8.156 -0.1684  0.8415 -0.7936
 8646SOL     OW37915   0.375   0.515   5.049 -0.4981  0.2375  0.8821
 8646SOL    HW137916   0.309   0.450   5.070  1.1694 -1.4119  1.2536
 8646SOL    HW237917   0.351   0.592   5.102 -2.2804 -0.1754  0.7252
 8647SOL     OW37918   6.401   8.644   5.603  0.5232 -0.2502 -0.3943
 8647SOL    HW137919   6.347   8.636   5.682  0.4372  0.6180 -0.3648
 8647SOL    HW237920   6.375   8.727   5.564  0.1250 -0.9567 -1.6866
 8648SOL     OW37921   2.148   3.483  10.250 -0.0179 -0.8462 -0.4151
 8648SOL    HW137922   2.214   3.421  10.282 -0.3840 -1.2009 -0.3467
 8648SOL    HW237923   2.064   3.439  10.264 -0.1903 -1.0956 -1.9912
 8649SOL     OW37924   9.486   0.465   2.237 -0.6589 -0.9385 -0.1871
 8649SOL    HW137925   9.522   0.385   2.275 -0.1170 -0.6564 -0.1001
 8649SOL    HW237926   9.392   0.447   2.228 -0.6046 -1.4373  0.1956
 8650SOL     OW37927   0.958   8.044   4.052 -0.1743 -0.0672 -0.1407
 8650SOL    HW137928   0.889   7.978   4.051  0.2977 -0.5858  0.8587
 8650SOL    HW237929   0.912   8.125   4.074 -0.6038 -0.2344 -0.3904
 8651SOL     OW37930   7.855   2.630   8.240  0.1149 -0.5615  0.0616
 8651SOL    HW137931   7.796   2.559   8.263 -0.9881  0.4890  0.5917
 8651SOL    HW237932   7.941   2.589   8.233 -0.6494 -2.1078 -0.6447
 8652SOL     OW37933   2.527   9.944   7.495 -0.2495 -0.1511 -0.1499
 8652SOL    HW137934   2.544  10.033   7.527  2.2905  0.4117 -2.5982
 8652SOL    HW237935   2.496   9.896   7.571 -0.0673  2.4306  1.6662
 8653SOL     OW37936   3.471   1.035   3.880  0.3260 -0.0587 -0.1469
 8653SOL    HW137937   3.565   1.052   3.882  0.1250  1.8642  4.0751
 8653SOL    HW237938   3.432   1.122   3.868 -0.9274 -0.6376 -0.4122
 8654SOL     OW37939   1.419   6.905   4.098 -0.0032  0.5738 -0.5559
 8654SOL    HW137940   1.445   6.935   4.185  1.7405  0.9438 -1.1500
 8654SOL    HW237941   1.383   6.983   4.055 -0.8340  0.3986 -0.1868
 8655SOL     OW37942   0.305   6.496   6.410  0.1494  0.6764  0.3270
 8655SOL    HW137943   0.359   6.452   6.475 -0.8795 -0.8786  0.1973
 8655SOL    HW237944   0.216   6.489   6.445 -0.1656  1.6925 -0.2471
 8656SOL     OW37945   5.819   1.669   4.521  0.4135  0.3699 -0.1584
 8656SOL    HW137946   5.891   1.718   4.562 -0.2040  1.0109  0.1789
 8656SOL    HW237947   5.803   1.595   4.579  0.8987  0.1393 -0.3144
 8657SOL     OW37948   3.453   3.976   7.491 -0.3733  0.4755  0.2697
 8657SOL    HW137949   3.358   3.978   7.508 -0.8458  0.6837 -2.0893
 8657SOL    HW237950   3.488   4.047   7.545 -1.2313 -0.8189  2.6925
 8658SOL     OW37951   3.251   4.421   1.484  0.6938 -0.2555 -0.5757
 8658SOL    HW137952   3.251   4.490   1.417 -0.5207  0.2926 -0.0312
 8658SOL    HW237953   3.193   4.353   1.448  1.0058 -0.5033 -0.6150
 8659SOL     OW37954   9.588   0.945   8.049 -0.4264 -0.4539 -0.2164
 8659SOL    HW137955   9.539   1.000   7.988  1.5469  0.1413 -1.3754
 8659SOL    HW237956   9.672   0.990   8.059  0.3566 -2.0336  0.7029
 8660SOL     OW37957   6.458   4.386   2.330 -0.6058 -0.2916 -0.1858
 8660SOL    HW137958   6.487   4.461   2.384  1.0429 -1.0336  0.0121
 8660SOL    HW237959   6.362   4.390   2.335 -0.5351  0.6063  1.5046
 8661SOL     OW37960   5.809   6.173  10.181 -0.3529  0.0359 -0.0124
 8661SOL    HW137961   5.896   6.196  10.149 -0.4372  1.1910  0.5514
 8661SOL    HW237962   5.823   6.147  10.272 -0.0434 -3.6871 -0.9417
 8662SOL     OW37963   0.649   7.838   2.754 -0.0392  0.4047 -0.2844
 8662SOL    HW137964   0.679   7.853   2.844 -2.0682  0.5383  0.4354
 8662SOL    HW237965   0.729   7.835   2.702  1.3325 -1.3869  1.7483
 8663SOL     OW37966   5.091   4.383   6.179 -0.4288 -0.0112  0.6921
 8663SOL    HW137967   5.055   4.428   6.256 -0.5718 -1.1721  1.3280
 8663SOL    HW237968   5.178   4.355   6.206  0.1795  0.9906 -0.1460
 8664SOL     OW37969   2.844   4.265   8.995  0.2613 -0.4642 -0.0667
 8664SOL    HW137970   2.825   4.255   8.902  1.8977 -1.3411 -0.3544
 8664SOL    HW237971   2.765   4.236   9.040 -0.6270  0.1685 -1.1620
 8665SOL     OW37972   2.963   6.115   7.647 -0.0762 -0.2375  0.8936
 8665SOL    HW137973   2.964   6.206   7.677  1.6136 -0.1685  0.7612
 8665SOL    HW237974   2.992   6.065   7.724 -1.5709 -0.7604  1.1513
 8666SOL     OW37975   8.750   0.395   3.278  0.2693  0.7583 -0.0983
 8666SOL    HW137976   8.775   0.466   3.218 -0.8631  0.0318 -1.5181
 8666SOL    HW237977   8.769   0.315   3.228  0.1581  0.1010  0.8964
 8667SOL     OW37978   2.733   2.719   4.563  0.0042  0.1774  0.1225
 8667SOL    HW137979   2.706   2.642   4.613  0.3817  1.0838  1.7927
 8667SOL    HW237980   2.651   2.764   4.542 -0.2682 -0.8911 -1.3291
 8668SOL     OW37981   9.287   4.094   3.799 -0.8316 -0.0925  0.5475
 8668SOL    HW137982   9.271   4.181   3.835  1.1984  0.7511 -0.4281
 8668SOL    HW237983   9.336   4.049   3.867 -0.5212  0.0811  0.4404
 8669SOL     OW37984   2.227   0.061   5.866  0.6160  0.1195 -1.0643
 8669SOL    HW137985   2.162   0.105   5.810  0.7252  0.4137 -0.9598
 8669SOL    HW237986   2.310   0.100   5.841  0.6413  0.3850 -0.5631
 8670SOL     OW37987   4.403   3.322   4.615 -0.6469 -0.1026 -0.4964
 8670SOL    HW137988   4.319   3.282   4.592 -0.2573 -1.7157  0.7619
 8670SOL    HW237989   4.421   3.293   4.704  0.0300  2.3266  0.2526
 8671SOL     OW37990   2.118   8.529   4.300  0.0162 -0.4938 -0.0923
 8671SOL    HW137991   2.132   8.613   4.255  1.3499 -0.2315  0.7563
 8671SOL    HW237992   2.038   8.542   4.350 -1.9043 -1.0037 -2.8002
 8672SOL     OW37993   8.803   6.652   7.356 -0.4157 -0.1297 -0.5463
 8672SOL    HW137994   8.741   6.583   7.333 -0.6409 -0.0976 -0.0347
 8672SOL    HW237995   8.789   6.720   7.290 -0.5124 -0.3736 -0.7792
 8673SOL     OW37996  10.350   0.769   0.697  0.0546  0.3938 -0.0816
 8673SOL    HW137997  10.299   0.746   0.620  0.1613  1.7603 -0.5966
 8673SOL    HW237998  10.291   0.826   0.748 -0.0195 -0.4919  0.8636
 8674SOL     OW37999   6.253   3.294   9.170  0.1934  0.3509 -0.1350
 8674SOL    HW138000   6.217   3.343   9.096 -1.6240  1.0718  1.1412
 8674SOL    HW238001   6.343   3.325   9.177 -0.3653  2.2026 -0.4996
 8675SOL     OW38002  10.221   3.895   4.457  0.7825 -0.5194  0.4007
 8675SOL    HW138003  10.314   3.916   4.450  1.4475 -3.4125 -1.1195
 8675SOL    HW238004  10.183   3.926   4.376  0.5118  0.1283  0.7665
 8676SOL     OW38005   6.984   5.721   0.895  0.4189 -0.2737  0.0447
 8676SOL    HW138006   7.049   5.659   0.924 -0.3235 -1.4219 -0.6559
 8676SOL    HW238007   7.023   5.762   0.817 -0.1798 -1.9214 -1.1771
 8677SOL     OW38008   4.343   3.158   7.525  0.5233 -0.3010 -0.1996
 8677SOL    HW138009   4.419   3.111   7.560  1.1229  1.0737  0.4360
 8677SOL    HW238010   4.377   3.245   7.505 -0.6406 -0.0102 -0.9839
 8678SOL     OW38011   8.026   0.128   7.923  0.2229  0.3660 -0.2956
 8678SOL    HW138012   8.042   0.149   8.015  0.0762 -1.4062  0.1731
 8678SOL    HW238013   8.112   0.110   7.886  0.2931  1.1884 -0.5418
 8679SOL     OW38014   7.842   3.690   1.184 -0.0753 -0.1005 -0.4219
 8679SOL    HW138015   7.919   3.682   1.241  0.1058 -1.5285 -0.8184
 8679SOL    HW238016   7.824   3.600   1.157 -1.4497  0.3110 -0.9237
 8680SOL     OW38017   0.661   7.567   3.001 -0.5460 -0.2022 -0.4315
 8680SOL    HW138018   0.722   7.494   2.989  1.4752  1.3120 -0.0165
 8680SOL    HW238019   0.717   7.645   3.000 -2.2044  1.1665  2.1009
 8681SOL     OW38020   7.452   8.322   0.816 -0.0158  0.1658 -0.4158
 8681SOL    HW138021   7.457   8.289   0.726 -1.3812 -1.4650  0.0630
 8681SOL    HW238022   7.494   8.408   0.811  2.7300 -1.1045 -1.9612
 8682SOL     OW38023   5.817   4.745   7.260  0.0317 -1.1121 -0.0483
 8682SOL    HW138024   5.849   4.766   7.172  0.2246  1.1358  0.4759
 8682SOL    HW238025   5.752   4.677   7.247  1.0262 -1.7961 -1.7653
 8683SOL     OW38026   1.535   2.803   7.128  0.3387 -0.2765  0.1404
 8683SOL    HW138027   1.588   2.787   7.050  0.9418 -1.4552  0.7688
 8683SOL    HW238028   1.485   2.723   7.140 -0.3649  0.2101  0.4988
 8684SOL     OW38029   2.566   0.477   0.351  0.0666 -0.2153  0.5746
 8684SOL    HW138030   2.503   0.434   0.410 -0.9796 -0.8280 -0.8997
 8684SOL    HW238031   2.601   0.405   0.298  0.2148  0.4189 -0.2099
 8685SOL     OW38032   7.839   1.748   8.692 -0.0791  0.1233 -0.1052
 8685SOL    HW138033   7.786   1.676   8.727 -0.1530 -0.9342 -2.2465
 8685SOL    HW238034   7.904   1.765   8.760 -0.6592 -1.3047  0.8509
 8686SOL     OW38035   9.471   2.095   5.779 -0.0450 -0.2570  0.0077
 8686SOL    HW138036   9.558   2.076   5.744 -0.1634  0.2877 -0.6096
 8686SOL    HW238037   9.427   2.143   5.709 -0.5427  0.2268  0.6387
 8687SOL     OW38038   7.109   4.969   2.308 -0.4547 -0.6417 -0.1158
 8687SOL    HW138039   7.187   5.023   2.320 -0.3193 -1.0084  0.6911
 8687SOL    HW238040   7.141   4.890   2.266 -0.7529  0.1518 -1.9425
 8688SOL     OW38041   4.860   6.778   7.587 -0.6151  0.1797  0.4989
 8688SOL    HW138042   4.836   6.774   7.494  0.1275  1.9394  0.2018
 8688SOL    HW238043   4.803   6.713   7.629  0.4726 -2.2025 -1.4469
 8689SOL     OW38044   0.412   5.664   0.752  0.3365  0.3565  0.1473
 8689SOL    HW138045   0.388   5.608   0.678 -0.2474  0.2511  0.4164
 8689SOL    HW238046   0.404   5.753   0.718 -1.4610  0.3721  0.5178
 8690SOL     OW38047   3.130   3.146   2.490 -0.0007  0.1289  0.0389
 8690SOL    HW138048   3.104   3.060   2.458 -0.7545  0.3082  0.1535
 8690SOL    HW238049   3.100   3.207   2.422  0.7068  0.2923 -0.1406
 8691SOL     OW38050   7.929  10.154   7.503 -0.2035  0.6221  0.4167
 8691SOL    HW138051   7.924  10.176   7.596  1.9649  2.4608  0.2030
 8691SOL    HW238052   8.023  10.147   7.486 -0.5484  0.5195 -1.6861
 8692SOL     OW38053   6.609   5.865   0.736 -0.9237 -0.2052 -0.1653
 8692SOL    HW138054   6.629   5.948   0.778  2.1816 -0.5365 -0.7279
 8692SOL    HW238055   6.621   5.881   0.643  0.0134 -1.2880 -0.2616
 8693SOL     OW38056   2.544  10.153   4.115  0.5895 -0.1465 -0.1604
 8693SOL    HW138057   2.624  10.102   4.128  0.0323 -1.4502 -1.5052
 8693SOL    HW238058   2.498  10.108   4.045 -0.7149  1.3404 -0.3235
 8694SOL     OW38059   6.658   7.323   0.915  0.6179  0.2843 -0.3022
 8694SOL    HW138060   6.565   7.347   0.918 -0.4362 -3.2323 -0.0513
 8694SOL    HW238061   6.683   7.314   1.007  1.0342  0.6449 -0.3792
 8695SOL     OW38062   2.447   8.862   4.577  0.0207 -0.6302  0.1792
 8695SOL    HW138063   2.455   8.804   4.502  1.4611 -1.2178  0.7483
 8695SOL    HW238064   2.535   8.864   4.615 -0.0012  1.7873  0.2886
 8696SOL     OW38065   0.202   8.327   2.896  0.3775 -0.1104 -0.0276
 8696SOL    HW138066   0.287   8.329   2.852  0.4645 -1.3125  0.0507
 8696SOL    HW238067   0.153   8.259   2.851 -0.8823  1.1371 -0.6195
 8697SOL     OW38068   2.241   2.027  10.318  0.2960  0.2943  0.8219
 8697SOL    HW138069   2.257   2.120  10.302 -1.6401  0.5679  0.2277
 8697SOL    HW238070   2.148   2.021  10.339  0.5429 -1.4235  1.6899
 8698SOL     OW38071   8.878   7.356   0.463 -0.2800 -0.4650 -0.2279
 8698SOL    HW138072   8.971   7.371   0.475 -0.6743  2.8121 -0.0878
 8698SOL    HW238073   8.845   7.333   0.550  0.0958  0.8860  0.3071
 8699SOL     OW38074   0.664   8.119   2.194  0.5291  0.3031 -0.4666
 8699SOL    HW138075   0.704   8.071   2.267 -0.3192 -0.6530 -0.6135
 8699SOL    HW238076   0.738   8.165   2.153  1.1670  0.1045  0.4138
 8700SOL     OW38077   4.085   2.855   5.677  0.1758 -0.3775 -0.0561
 8700SOL    HW138078   4.030   2.932   5.690 -0.9152 -1.2439  0.6154
 8700SOL    HW238079   4.095   2.849   5.582  1.8624  1.6356 -0.0976
 8701SOL     OW38080   6.475   7.709   5.253 -0.1469  0.0110 -0.2612
 8701SOL    HW138081   6.407   7.648   5.227 -0.1455  0.0927 -0.4593
 8701SOL    HW238082   6.428   7.784   5.290 -0.0906 -1.1228  2.2556
 8702SOL     OW38083  10.257   3.544   0.993  0.2840 -0.1312  0.0677
 8702SOL    HW138084  10.324   3.609   1.013 -2.2170  3.3940 -1.8224
 8702SOL    HW238085  10.277   3.516   0.903 -0.1500  0.1596 -0.1255
 8703SOL     OW38086   1.885   5.247   5.941  0.2871 -0.2871 -0.0674
 8703SOL    HW138087   1.956   5.244   5.876 -1.3333 -0.2238 -1.9365
 8703SOL    HW238088   1.832   5.322   5.914 -0.9122 -0.8021  0.8149
 8704SOL     OW38089   4.225   6.136   3.293  0.1895  0.2790  0.4043
 8704SOL    HW138090   4.205   6.085   3.215 -0.4017  0.5397  0.3783
 8704SOL    HW238091   4.268   6.215   3.260  0.1031  0.3065  0.3584
 8705SOL     OW38092   1.733   6.242   3.559  0.7156  0.0375 -0.2188
 8705SOL    HW138093   1.639   6.237   3.573  0.4012  1.7796 -1.3835
 8705SOL    HW238094   1.771   6.231   3.647 -0.5823 -0.4265  0.2984
 8706SOL     OW38095  10.329   8.198   0.663 -0.1604  0.2324 -0.1029
 8706SOL    HW138096  10.240   8.231   0.649  0.0657  0.7089 -0.4260
 8706SOL    HW238097  10.367   8.192   0.575  1.0344  2.6069  0.1744
 8707SOL     OW38098   7.129   9.581   8.383  0.0477 -0.0819  0.1267
 8707SOL    HW138099   7.089   9.522   8.449  0.2368  0.7187  0.9764
 8707SOL    HW238100   7.217   9.597   8.416 -0.3078  1.4066  0.3850
 8708SOL     OW38101   7.407   0.166   7.212 -0.0015 -0.0122 -0.4940
 8708SOL    HW138102   7.434   0.083   7.171 -0.2599 -1.3211  1.8197
 8708SOL    HW238103   7.313   0.171   7.196 -0.2168 -0.8364  0.3765
 8709SOL     OW38104   1.510   8.002   5.063  0.2093 -0.8328  0.0121
 8709SOL    HW138105   1.447   7.953   5.115 -0.2510  0.5270  0.7837
 8709SOL    HW238106   1.459   8.039   4.991  0.0337  0.4738  0.7727
 8710SOL     OW38107   9.990   2.262   3.188 -0.0388 -0.5545 -0.1214
 8710SOL    HW138108   9.914   2.306   3.151  0.8005  0.7645 -0.3272
 8710SOL    HW238109   9.964   2.242   3.278 -1.5855 -2.5639 -0.9322
 8711SOL     OW38110   2.947   2.303   5.407 -0.1030 -0.2902 -0.3297
 8711SOL    HW138111   2.879   2.240   5.381  0.7428 -1.5383  0.3500
 8711SOL    HW238112   3.027   2.268   5.368  0.3472  0.5353 -0.1616
 8712SOL     OW38113   7.500   3.483   1.483 -0.4008  0.0854  0.1833
 8712SOL    HW138114   7.424   3.446   1.528 -0.5730  0.7556  0.4552
 8712SOL    HW238115   7.500   3.576   1.508 -1.3465  0.8478 -2.3031
 8713SOL     OW38116   1.275   1.960   0.523 -0.3605  0.4316  0.0686
 8713SOL    HW138117   1.318   2.036   0.561  0.1808  0.7594 -1.1358
 8713SOL    HW238118   1.331   1.886   0.549  1.0032  0.8525 -1.4615
 8714SOL     OW38119   0.823   6.198   9.069  0.2500  0.6560 -0.2537
 8714SOL    HW138120   0.915   6.225   9.062  0.0411  1.1639 -1.3240
 8714SOL    HW238121   0.827   6.103   9.070  0.7049  0.5905 -2.5832
 8715SOL     OW38122   0.325   0.361   9.669 -0.0651 -0.0230 -0.3015
 8715SOL    HW138123   0.277   0.298   9.616  0.1971  1.0824 -1.9330
 8715SOL    HW238124   0.351   0.429   9.607  0.4169  1.2450  1.2281
 8716SOL     OW38125   8.445   5.083   9.635  0.2336  0.8017 -0.0083
 8716SOL    HW138126   8.360   5.059   9.598  0.4104  0.4768 -0.2047
 8716SOL    HW238127   8.463   5.170   9.597  0.4770  0.4156 -0.8127
 8717SOL     OW38128   7.085   7.263   0.326  0.2168  0.8400  0.0288
 8717SOL    HW138129   7.110   7.349   0.292  1.9942  0.0452 -0.8185
 8717SOL    HW238130   7.059   7.213   0.248 -0.8925  0.6177  0.5231
 8718SOL     OW38131   4.550   2.832   5.705 -0.1148 -0.3439  0.5533
 8718SOL    HW138132   4.472   2.855   5.756 -0.3656 -0.9116  0.4334
 8718SOL    HW238133   4.623   2.845   5.764 -0.4112 -1.1278  1.1067
 8719SOL     OW38134   8.649   7.326   3.645 -0.2424  0.3927  0.0418
 8719SOL    HW138135   8.606   7.241   3.659 -1.3733  0.7572 -1.0294
 8719SOL    HW238136   8.578   7.387   3.629  0.6100  0.8411 -2.7087
 8720SOL     OW38137   2.612   1.917   4.417  0.3472  0.1652  0.0517
 8720SOL    HW138138   2.640   1.924   4.509  1.5572  0.0940 -0.3002
 8720SOL    HW238139   2.568   2.001   4.400 -1.0442 -0.3312  1.0570
 8721SOL     OW38140   6.611   1.568   6.519  0.1568 -0.3616 -0.8236
 8721SOL    HW138141   6.673   1.501   6.491  2.2307  1.1221  0.0309
 8721SOL    HW238142   6.527   1.522   6.521  0.9489 -2.1648 -3.1478
 8722SOL     OW38143   6.319   7.646   9.550 -0.7089  0.7715  0.3846
 8722SOL    HW138144   6.412   7.645   9.574 -0.5429  0.7718 -0.2326
 8722SOL    HW238145   6.319   7.651   9.454 -1.3468  0.7460  0.3778
 8723SOL     OW38146   2.126   0.567   3.713 -0.2874 -0.2495  0.0166
 8723SOL    HW138147   2.209   0.586   3.668 -0.4654 -1.4566 -0.8731
 8723SOL    HW238148   2.145   0.489   3.765 -0.6814 -0.1111  0.3717
 8724SOL     OW38149   6.965   2.402   8.266 -0.1432  0.0430 -0.7342
 8724SOL    HW138150   6.895   2.457   8.301 -0.4601 -1.2280  0.7498
 8724SOL    HW238151   6.973   2.428   8.174 -1.2477  1.5289 -0.4391
 8725SOL     OW38152   9.947   5.449   4.702  0.2240  0.4006 -0.6607
 8725SOL    HW138153   9.884   5.519   4.684  0.2545  1.2588  2.0611
 8725SOL    HW238154   9.998   5.440   4.621 -1.8434  1.2943 -2.1420
 8726SOL     OW38155   4.345   5.601   4.783 -0.8372  0.0170  0.1572
 8726SOL    HW138156   4.423   5.550   4.806 -0.6670 -1.5446 -3.3181
 8726SOL    HW238157   4.362   5.688   4.819  1.2039 -0.9996  1.8786
 8727SOL     OW38158   0.042   2.211   5.314 -0.5016  0.1518 -0.7033
 8727SOL    HW138159   0.075   2.121   5.317 -0.0261  0.3391  0.4467
 8727SOL    HW238160   0.075   2.250   5.395 -1.6935  1.0179 -0.6162
 8728SOL     OW38161   0.251   0.721   5.974  0.0493  0.6026  0.2620
 8728SOL    HW138162   0.255   0.758   6.062 -1.0564  0.9758  0.1695
 8728SOL    HW238163   0.223   0.795   5.919  2.4192  0.8538 -0.7083
 8729SOL     OW38164   9.393   4.094   5.397  0.0268  1.1081 -0.2381
 8729SOL    HW138165   9.391   4.146   5.477  0.2437  2.2035 -0.9181
 8729SOL    HW238166   9.463   4.030   5.411  0.6986  1.8920  0.0927
 8730SOL     OW38167   9.933   9.512   0.565 -0.1822  0.6271 -0.3420
 8730SOL    HW138168  10.024   9.536   0.551  0.2069 -0.8065 -0.4153
 8730SOL    HW238169   9.919   9.522   0.659  0.4533 -0.3917 -0.1215
 8731SOL     OW38170   7.966   9.350   9.549  0.0133 -0.1791  0.7624
 8731SOL    HW138171   7.884   9.301   9.553 -0.8410  1.2522  1.3385
 8731SOL    HW238172   8.034   9.284   9.562 -0.8335 -1.8441 -2.2358
 8732SOL     OW38173   7.277   2.655   7.529 -0.2144  0.1645 -0.7400
 8732SOL    HW138174   7.336   2.731   7.526  0.8261 -0.6038 -0.6491
 8732SOL    HW238175   7.275   2.624   7.439  0.1351 -0.2592 -0.6039
 8733SOL     OW38176   4.591   8.917   5.278 -0.3683  0.2486  0.5075
 8733SOL    HW138177   4.517   8.866   5.247  0.6755  0.3923 -2.6685
 8733SOL    HW238178   4.632   8.862   5.345 -1.6401 -1.1521  0.1906
 8734SOL     OW38179   4.569   7.875   5.701 -0.2326  0.4179 -0.2951
 8734SOL    HW138180   4.498   7.881   5.638 -0.1872  0.3941 -0.3484
 8734SOL    HW238181   4.596   7.783   5.698  0.0376  0.5025 -0.5359
 8735SOL     OW38182   2.934   1.928   5.147 -0.2628 -0.1426 -0.3642
 8735SOL    HW138183   2.999   1.863   5.120 -0.6690  0.2134 -2.4023
 8735SOL    HW238184   2.912   1.975   5.066 -4.2030 -1.2819 -0.1839
 8736SOL     OW38185   3.839   7.580   7.767  0.0401 -0.0429 -0.0427
 8736SOL    HW138186   3.755   7.620   7.789  0.2471  0.9927 -1.0187
 8736SOL    HW238187   3.824   7.538   7.683  0.8450  1.4154 -0.9561
 8737SOL     OW38188   0.094   8.088   6.218  0.2300 -0.2029  0.4962
 8737SOL    HW138189   0.088   7.993   6.205 -0.1208  0.0017 -0.9819
 8737SOL    HW238190   0.172   8.114   6.169 -0.3947  0.4357 -0.1803
 8738SOL     OW38191   2.567   8.950   8.244  0.2768 -0.0172  0.2431
 8738SOL    HW138192   2.554   8.931   8.151  0.0687 -0.7693  0.4184
 8738SOL    HW238193   2.568   8.864   8.286  2.2912  0.1807  0.7069
 8739SOL     OW38194   2.520   2.148  10.391  0.3496 -0.2624  0.1710
 8739SOL    HW138195   2.498   2.068  10.342 -1.8254 -0.0906  0.7268
 8739SOL    HW238196   2.586   2.191  10.338 -1.4641 -0.3661 -2.3887
 8740SOL     OW38197   7.719   6.890   2.981  0.0870  0.2199  0.2208
 8740SOL    HW138198   7.737   6.935   3.064 -2.1442 -0.8391  1.3772
 8740SOL    HW238199   7.769   6.939   2.916 -0.7271  3.2474  1.6589
 8741SOL     OW38200   1.993   4.812   5.061  0.6005 -0.6455 -0.2686
 8741SOL    HW138201   2.017   4.894   5.104  2.4378 -1.4479  0.3510
 8741SOL    HW238202   1.916   4.833   5.008 -0.3145  0.9277  1.6043
 8742SOL     OW38203   2.097   8.296   2.744 -0.7662  0.1004  0.7810
 8742SOL    HW138204   2.068   8.258   2.827 -1.0717 -0.8741  0.2440
 8742SOL    HW238205   2.186   8.265   2.732 -0.7013  0.2870  0.7735
 8743SOL     OW38206   3.429   8.706   9.772  0.3981  0.2149 -0.3597
 8743SOL    HW138207   3.365   8.668   9.712  1.5758 -2.1508 -0.2349
 8743SOL    HW238208   3.398   8.680   9.859  1.1577 -0.4238 -0.2640
 8744SOL     OW38209   2.708   8.579   6.177  0.2369  0.0669 -0.6179
 8744SOL    HW138210   2.701   8.596   6.271  1.0137  2.7617 -0.9649
 8744SOL    HW238211   2.638   8.631   6.138 -1.1214 -2.2514 -1.5225
 8745SOL     OW38212   9.791   1.139   6.798 -0.2408 -0.2307 -0.4766
 8745SOL    HW138213   9.727   1.102   6.737 -0.2793 -1.8300  0.4678
 8745SOL    HW238214   9.768   1.232   6.804 -1.8823 -0.5780 -0.8826
 8746SOL     OW38215   3.441   4.615   9.892 -0.2606 -0.1154  0.1445
 8746SOL    HW138216   3.518   4.576   9.851 -0.7118 -0.5287 -0.3325
 8746SOL    HW238217   3.438   4.577   9.980  1.8792  2.3213  1.3950
 8747SOL     OW38218   5.486   1.210   1.240 -0.6034 -0.0419 -0.0622
 8747SOL    HW138219   5.481   1.130   1.187  0.1260  0.1031 -0.3536
 8747SOL    HW238220   5.546   1.267   1.192 -0.4235  0.3321  0.6014
 8748SOL     OW38221   0.078  10.074   6.724 -0.7229 -0.8290  0.1228
 8748SOL    HW138222   0.004  10.106   6.673 -0.4086 -0.8283 -0.3384
 8748SOL    HW238223   0.047  10.074   6.815 -1.5593 -1.6166 -0.1602
 8749SOL     OW38224   0.012   7.579   4.063 -0.4231 -0.5541  0.8148
 8749SOL    HW138225   0.083   7.629   4.023 -1.8222 -0.8041 -2.2518
 8749SOL    HW238226  -0.068   7.623   4.032 -1.6657 -0.9490  3.2453
 8750SOL     OW38227   3.151   1.686   9.613  0.1737  0.0991  0.2144
 8750SOL    HW138228   3.086   1.617   9.617 -0.7882  1.0480  1.7135
 8750SOL    HW238229   3.126   1.739   9.537  0.5413 -0.7876 -0.5481
 8751SOL     OW38230   4.217   9.225   8.951  0.0886 -0.5479 -0.8458
 8751SOL    HW138231   4.306   9.253   8.973 -0.4007  2.2083 -1.9225
 8751SOL    HW238232   4.216   9.131   8.969  3.2016 -0.6771 -0.8247
 8752SOL     OW38233   4.156   5.913   9.154 -0.4611 -0.2400 -0.0317
 8752SOL    HW138234   4.224   5.846   9.151 -0.8908 -0.6669 -0.7013
 8752SOL    HW238235   4.098   5.890   9.081 -0.5994  0.8760 -0.2880
 8753SOL     OW38236  10.262   8.179   1.886  0.4124  0.1301  0.3659
 8753SOL    HW138237  10.216   8.098   1.904  0.6250  0.0187  0.4041
 8753SOL    HW238238  10.224   8.210   1.803  1.1590 -0.6236 -0.2814
 8754SOL     OW38239   6.544   9.609   4.051  0.4617 -0.1571  0.0679
 8754SOL    HW138240   6.509   9.549   4.116  1.2997 -0.1172  0.5671
 8754SOL    HW238241   6.526   9.696   4.086  1.0007 -0.1358  0.3119
 8755SOL     OW38242   6.045   0.116   9.007  0.3684 -0.3587 -0.4067
 8755SOL    HW138243   6.103   0.145   9.078 -0.4303 -0.4142  0.2814
 8755SOL    HW238244   6.073   0.168   8.931 -0.5125  1.7035  0.5947
 8756SOL     OW38245   6.687   2.549   5.061 -0.3389 -0.2227 -0.7907
 8756SOL    HW138246   6.647   2.485   5.121 -2.5240  0.8590 -0.9654
 8756SOL    HW238247   6.769   2.509   5.034  0.5427 -0.9931  2.5223
 8757SOL     OW38248   2.768   6.058   5.384 -0.1657  0.4531  0.9540
 8757SOL    HW138249   2.807   6.088   5.302 -1.1124 -0.6553  0.0689
 8757SOL    HW238250   2.836   6.004   5.424 -0.2147 -0.2325  0.1494
 8758SOL     OW38251   1.521   3.242   4.524  0.9347 -0.3128 -0.0027
 8758SOL    HW138252   1.548   3.325   4.561 -0.5177  0.0768  0.2461
 8758SOL    HW238253   1.520   3.181   4.598 -0.9594  0.2150  0.4558
 8759SOL     OW38254   8.270   4.812   7.961 -0.0419  0.0939  0.7733
 8759SOL    HW138255   8.246   4.812   8.054  0.6289 -0.7830  0.9602
 8759SOL    HW238256   8.288   4.721   7.941  0.7726  0.4082  0.0260
 8760SOL     OW38257   7.847   9.525   2.551 -0.2793 -0.0531  0.3043
 8760SOL    HW138258   7.887   9.491   2.471 -0.5855 -0.0497  0.1486
 8760SOL    HW238259   7.768   9.570   2.521 -3.3028 -4.3431  0.9797
 8761SOL     OW38260   9.570   2.765   9.542  0.0083 -0.5222  0.0298
 8761SOL    HW138261   9.504   2.743   9.476 -0.1755  0.1260 -0.0072
 8761SOL    HW238262   9.532   2.733   9.624  0.1430 -1.1385 -0.1451
 8762SOL     OW38263   2.152   6.739   6.120 -0.0558 -0.6072 -0.0979
 8762SOL    HW138264   2.242   6.752   6.149 -0.2808 -1.0855  0.8541
 8762SOL    HW238265   2.098   6.764   6.196 -0.7041 -0.8572 -0.4649
 8763SOL     OW38266   3.689   0.602   9.071  0.1938  0.4930  0.0364
 8763SOL    HW138267   3.756   0.595   9.003 -0.6086  1.0576 -0.8619
 8763SOL    HW238268   3.606   0.593   9.023 -0.3697 -1.4415  1.2741
 8764SOL     OW38269   0.351   9.357   5.923 -0.1102 -0.0984 -0.0656
 8764SOL    HW138270   0.358   9.273   5.967  1.9142  0.3040  0.4528
 8764SOL    HW238271   0.296   9.410   5.980  0.4759 -0.3590  0.7498
 8765SOL     OW38272   8.248   0.856   5.913  0.3119  0.1108 -0.1335
 8765SOL    HW138273   8.311   0.784   5.915 -1.9019 -2.4229 -4.7889
 8765SOL    HW238274   8.288   0.922   5.856 -0.0544 -0.2682 -0.8493
 8766SOL     OW38275   8.962   5.330   5.872  0.1505 -1.0832 -0.3214
 8766SOL    HW138276   8.929   5.267   5.936 -0.8981  0.0852  0.3114
 8766SOL    HW238277   8.884   5.371   5.836  0.8199 -0.0746 -0.6660
 8767SOL     OW38278   0.879   5.328  10.358 -0.0601 -0.4815 -0.2937
 8767SOL    HW138279   0.835   5.293  10.280 -0.4516  0.5257 -0.5379
 8767SOL    HW238280   0.950   5.382  10.323  0.3745 -0.8182  0.0715
 8768SOL     OW38281   9.568   2.797   9.976 -0.3120 -0.0860  0.0536
 8768SOL    HW138282   9.658   2.784   9.946 -0.5798  0.2309 -0.9025
 8768SOL    HW238283   9.522   2.832   9.900 -1.3394 -0.6255  0.4079
 8769SOL     OW38284   7.206   6.066   5.960  0.1024  0.4122 -0.1733
 8769SOL    HW138285   7.301   6.065   5.970  0.2492  1.8292 -1.1355
 8769SOL    HW238286   7.172   6.042   6.046  1.3316  1.8756  0.7683
 8770SOL     OW38287   4.794   8.365   8.648 -0.0407  0.3059 -0.8171
 8770SOL    HW138288   4.871   8.346   8.594  0.5595  0.6400 -0.1183
 8770SOL    HW238289   4.825   8.433   8.709  0.2748 -2.1468  1.9899
 8771SOL     OW38290   0.554   5.957   6.969 -0.1697  0.5835 -0.7434
 8771SOL    HW138291   0.518   5.966   7.057 -2.6027 -0.9836 -1.4767
 8771SOL    HW238292   0.639   5.916   6.982  0.5843  2.5052  0.9649
 8772SOL     OW38293   4.810   3.735   8.861 -0.9522  0.3997  0.2350
 8772SOL    HW138294   4.735   3.711   8.915 -1.0246 -0.3881 -0.2058
 8772SOL    HW238295   4.860   3.654   8.851 -0.6748  0.6464 -0.4588
 8773SOL     OW38296   1.719   5.280   5.016  0.1888  0.1499  0.3938
 8773SOL    HW138297   1.804   5.324   5.021 -0.8256  2.0359  2.4788
 8773SOL    HW238298   1.658   5.346   4.984 -0.8431 -0.6517  0.6331
 8774SOL     OW38299   9.728   9.058   5.105  0.5722  0.2226  0.1848
 8774SOL    HW138300   9.684   8.974   5.118 -1.1664  1.5080  3.7421
 8774SOL    HW238301   9.717   9.076   5.012 -0.6437 -2.5809 -0.3263
 8775SOL     OW38302   5.605   9.377   2.687 -0.5336  0.4828 -0.0927
 8775SOL    HW138303   5.529   9.410   2.734  0.7237  2.1235  0.8660
 8775SOL    HW238304   5.618   9.439   2.615  0.5873  0.9196  0.4637
 8776SOL     OW38305   6.692   2.125   0.113  0.1265  0.1984  0.1606
 8776SOL    HW138306   6.760   2.156   0.053  0.8345 -0.4824  0.5887
 8776SOL    HW238307   6.738   2.108   0.195 -0.6402  0.1069  0.5861
 8777SOL     OW38308   6.657   3.024   2.793 -0.2405  0.3826 -0.1985
 8777SOL    HW138309   6.619   3.040   2.707  0.6618  0.7212 -0.5419
 8777SOL    HW238310   6.738   2.976   2.776  0.1331  0.7672  0.4251
 8778SOL     OW38311   5.525   2.221   0.434 -0.3252  0.2914 -0.2681
 8778SOL    HW138312   5.434   2.193   0.435 -0.3628  0.2544  2.1199
 8778SOL    HW238313   5.575   2.140   0.422 -0.5822  0.0731  0.1192
 8779SOL     OW38314   3.410   1.657   7.709  0.2510  0.4088  0.0885
 8779SOL    HW138315   3.334   1.649   7.651  0.5216 -0.1830 -0.1897
 8779SOL    HW238316   3.395   1.738   7.757  0.7014  1.6732 -1.8048
 8780SOL     OW38317  10.058   3.051   7.066 -0.0075 -0.4233 -0.0319
 8780SOL    HW138318  10.048   3.099   7.148 -0.8092 -0.7327  0.0591
 8780SOL    HW238319  10.009   2.970   7.080 -2.6612  0.7367 -1.8378
 8781SOL     OW38320   1.815  10.332   4.216 -0.2253 -0.2992  0.2205
 8781SOL    HW138321   1.866  10.300   4.142 -0.9470 -0.5791 -0.1744
 8781SOL    HW238322   1.724  10.325   4.186 -0.4731  0.5427  0.7608
 8782SOL     OW38323   4.933   9.052   3.059 -0.9111  0.6276 -0.5873
 8782SOL    HW138324   4.882   8.992   3.004 -2.9285  1.2239  0.5335
 8782SOL    HW238325   4.981   8.995   3.119 -2.9947  0.0254  0.6346
 8783SOL     OW38326   5.555   6.133   7.389 -0.4344  0.1947 -0.1689
 8783SOL    HW138327   5.462   6.156   7.397 -0.5212 -0.0492 -0.4494
 8783SOL    HW238328   5.565   6.107   7.297  0.2139  1.5540 -0.5057
 8784SOL     OW38329   9.050   3.969   8.976 -0.8348 -0.5548 -0.3123
 8784SOL    HW138330   8.975   3.920   8.943 -1.2147 -1.4907  1.7379
 8784SOL    HW238331   9.011   4.035   9.035 -0.1726  0.6220 -1.1422
 8785SOL     OW38332   7.666   7.872   6.948 -0.0257  0.1888 -0.7920
 8785SOL    HW138333   7.651   7.946   6.889  0.3167  1.6744  0.8914
 8785SOL    HW238334   7.760   7.856   6.943  0.3116  1.4846  0.5886
 8786SOL     OW38335   0.304  10.203   3.239  0.5064 -0.5203 -0.2767
 8786SOL    HW138336   0.269  10.175   3.323  0.1992 -0.2805 -0.3238
 8786SOL    HW238337   0.251  10.279   3.215  0.8029 -0.3938 -0.5343
 8787SOL     OW38338   8.286   0.139  10.153  0.1240  0.1002 -0.0168
 8787SOL    HW138339   8.336   0.124  10.233  0.6245  1.0532 -0.1356
 8787SOL    HW238340   8.344   0.193  10.098 -0.7970  0.7089 -0.4112
 8788SOL     OW38341   0.354   4.006   4.498 -0.6231 -0.2772 -0.1526
 8788SOL    HW138342   0.313   3.920   4.512 -0.6861  0.0901  2.3222
 8788SOL    HW238343   0.441   3.997   4.535 -0.0153  0.2760 -1.3909
 8789SOL     OW38344   0.611   5.889   9.928 -0.6125 -0.2652  0.1236
 8789SOL    HW138345   0.646   5.898   9.840 -2.3611  0.1027 -0.5752
 8789SOL    HW238346   0.627   5.798   9.952  1.8854  0.1791  0.3692
 8790SOL     OW38347   3.210  10.292   5.925 -0.0860 -0.0638 -0.0459
 8790SOL    HW138348   3.280  10.352   5.949  0.4239 -1.1637  1.3444
 8790SOL    HW238349   3.173  10.263   6.008  0.3090 -2.3777 -0.6092
 8791SOL     OW38350   4.254   7.241   8.889  0.5341 -0.1657 -0.5075
 8791SOL    HW138351   4.212   7.327   8.884 -1.9895 -1.2356  0.4481
 8791SOL    HW238352   4.225   7.195   8.810  0.9298 -0.5189 -0.4513
 8792SOL     OW38353   1.365   6.771   9.465  0.0436  0.3477  0.0446
 8792SOL    HW138354   1.354   6.770   9.561  1.2256 -1.7939  0.2286
 8792SOL    HW238355   1.287   6.727   9.432  0.9007 -1.4238  0.2710
 8793SOL     OW38356   0.891   5.276   2.772 -0.1030 -0.2528  0.0410
 8793SOL    HW138357   0.895   5.369   2.795  0.1041 -0.4910  0.9921
 8793SOL    HW238358   0.918   5.230   2.852  0.5475 -1.1016 -0.6434
 8794SOL     OW38359   6.641   7.398   9.544 -0.4352  0.4715  0.0742
 8794SOL    HW138360   6.565   7.385   9.601 -0.3962  0.1020  0.0419
 8794SOL    HW238361   6.708   7.341   9.579 -0.0186  1.1293  0.3700
 8795SOL     OW38362   5.570   2.399   2.554 -0.3910  0.5563  0.1125
 8795SOL    HW138363   5.582   2.493   2.569  0.5099  0.5865 -0.6876
 8795SOL    HW238364   5.562   2.361   2.641  1.0476  1.1554  0.5342
 8796SOL     OW38365   0.100   7.691   3.199 -0.1193  0.2407  0.4873
 8796SOL    HW138366   0.036   7.755   3.230 -0.6069 -0.2586  0.5420
 8796SOL    HW238367   0.087   7.687   3.104  1.1413  1.5205  0.2390
 8797SOL     OW38368   9.021   8.494   2.592 -0.0700  0.4822  0.3373
 8797SOL    HW138369   9.040   8.569   2.649  0.4684  0.0018  0.8081
 8797SOL    HW238370   9.101   8.481   2.542 -0.7850  1.3698 -1.1224
 8798SOL     OW38371   1.448   8.802   5.967 -0.6404  0.5405  0.5365
 8798SOL    HW138372   1.394   8.872   6.005 -1.0894  0.6814 -0.3360
 8798SOL    HW238373   1.474   8.835   5.881 -2.2691 -1.0060 -0.6205
 8799SOL     OW38374   3.795   5.923   4.628 -0.3051  0.6468  0.4292
 8799SOL    HW138375   3.888   5.905   4.614 -0.0900  1.4341  0.7643
 8799SOL    HW238376   3.787   5.931   4.723 -0.8402 -0.0250  0.4495
 8800SOL     OW38377   8.237  10.252   4.261  0.4371  0.5121  0.2063
 8800SOL    HW138378   8.185  10.186   4.306 -0.5093  1.0499 -0.0832
 8800SOL    HW238379   8.227  10.331   4.314 -1.3055  1.3625 -1.2997
 8801SOL     OW38380   3.547   8.779   1.652 -0.3058  0.1057 -0.2938
 8801SOL    HW138381   3.498   8.857   1.625  1.0378  0.7463 -0.9637
 8801SOL    HW238382   3.559   8.790   1.747 -0.9748  0.2101 -0.2168
 8802SOL     OW38383   5.985   1.410   8.009  0.2518  0.0179 -0.9278
 8802SOL    HW138384   6.022   1.371   8.088 -0.5572  0.4330 -0.3235
 8802SOL    HW238385   6.061   1.439   7.958  0.7657  1.0901  0.4009
 8803SOL     OW38386   3.353   5.850   6.089  0.5210  0.3314  0.0055
 8803SOL    HW138387   3.304   5.809   6.018  2.1038 -0.4366 -0.6911
 8803SOL    HW238388   3.314   5.937   6.099 -0.5740 -0.0379 -0.8965
 8804SOL     OW38389   3.103   5.284   4.694 -0.1109  0.2284  0.8822
 8804SOL    HW138390   3.185   5.277   4.744 -0.1577 -0.2675  0.8904
 8804SOL    HW238391   3.053   5.352   4.740 -0.4797 -0.7585  1.9805
 8805SOL     OW38392   9.303   7.496   1.532  0.4779 -0.5374 -0.2613
 8805SOL    HW138393   9.303   7.422   1.592 -0.9505  0.7959  1.4727
 8805SOL    HW238394   9.282   7.572   1.586 -1.3347  0.6778 -2.4610
 8806SOL     OW38395   1.832   2.218   8.062 -0.4586  0.1140 -0.1212
 8806SOL    HW138396   1.874   2.285   8.007 -1.4147  1.7290  1.0005
 8806SOL    HW238397   1.847   2.248   8.151 -1.0140 -1.1433  0.4184
 8807SOL     OW38398   2.426   4.306   4.045 -0.4745  0.3614 -0.2737
 8807SOL    HW138399   2.352   4.257   4.080 -0.8590  0.1641 -1.3076
 8807SOL    HW238400   2.475   4.335   4.122 -0.6824 -0.9538  0.3902
 8808SOL     OW38401   2.618   2.892   3.884  0.0391 -0.6416  0.0459
 8808SOL    HW138402   2.654   2.892   3.973 -0.5796 -0.4809  0.3060
 8808SOL    HW238403   2.539   2.947   3.890 -0.3259 -1.0901 -0.4685
 8809SOL     OW38404  10.355   8.445   5.122  0.5423 -0.0638 -0.0631
 8809SOL    HW138405  10.381   8.464   5.032  0.3449 -2.0492 -0.5890
 8809SOL    HW238406  10.438   8.437   5.169  0.6692  0.2588 -0.2309
 8810SOL     OW38407   3.864   2.789   7.938 -0.4107 -0.1857 -0.6719
 8810SOL    HW138408   3.946   2.784   7.890 -0.6266  1.0780 -1.2112
 8810SOL    HW238409   3.870   2.870   7.988  0.3198 -2.0431  2.4731
 8811SOL     OW38410   8.854   4.689   5.654 -0.4638  0.3376  0.0430
 8811SOL    HW138411   8.875   4.657   5.566 -0.5501 -0.4340  0.2931
 8811SOL    HW238412   8.934   4.674   5.705 -1.0793 -1.2122  0.6196
 8812SOL     OW38413   5.528   9.765   6.381 -0.2224 -0.3348 -0.3184
 8812SOL    HW138414   5.538   9.860   6.372 -1.4996 -0.3363 -2.7140
 8812SOL    HW238415   5.451   9.753   6.437 -0.6000  0.0867 -0.7389
 8813SOL     OW38416   5.829   5.455   7.317 -0.1696 -0.3410  0.7701
 8813SOL    HW138417   5.745   5.484   7.281 -1.1748 -3.1894  0.5677
 8813SOL    HW238418   5.894   5.492   7.258 -1.5519 -1.6372 -1.7676
 8814SOL     OW38419   0.275   9.527   6.780  0.0766 -0.1594 -0.3456
 8814SOL    HW138420   0.270   9.617   6.748  0.8553  0.1730  0.4217
 8814SOL    HW238421   0.243   9.474   6.707  1.6298  0.5793 -1.6178
 8815SOL     OW38422   6.705   3.182   6.402 -0.5241 -0.6552 -0.4422
 8815SOL    HW138423   6.683   3.260   6.453 -0.7696  0.2689 -1.9061
 8815SOL    HW238424   6.788   3.204   6.359 -1.3112 -0.5954 -2.0027
 8816SOL     OW38425   9.619   5.049   2.332  0.0550  0.3947 -0.0479
 8816SOL    HW138426   9.619   5.052   2.428 -0.3068 -3.4385  0.2302
 8816SOL    HW238427   9.557   5.118   2.307 -2.5287 -0.6677  2.7197
 8817SOL     OW38428   9.808   8.591   6.320 -0.7908  0.1830  0.0488
 8817SOL    HW138429   9.844   8.642   6.248 -2.3882  0.5553 -0.5355
 8817SOL    HW238430   9.857   8.509   6.320 -1.3266 -0.1806 -2.0388
 8818SOL     OW38431   1.717   9.414   2.053 -0.0591 -0.5888 -0.5517
 8818SOL    HW138432   1.698   9.484   1.991 -0.1683  0.1547  0.2998
 8818SOL    HW238433   1.664   9.340   2.024  0.9891 -0.7425 -2.1894
 8819SOL     OW38434   6.532   9.071   7.268  0.3949 -0.4548 -0.0718
 8819SOL    HW138435   6.598   9.103   7.330  0.5595 -0.4066 -0.2717
 8819SOL    HW238436   6.470   9.143   7.259  0.5750 -0.3222 -0.2527
 8820SOL     OW38437   9.861   4.418   8.225 -0.2427 -0.4003 -0.1734
 8820SOL    HW138438   9.807   4.360   8.279  0.6638 -0.2314  0.9797
 8820SOL    HW238439   9.806   4.441   8.151 -1.3046 -1.1979  0.3395
 8821SOL     OW38440   0.506   0.115   5.576 -0.3768 -0.1256  0.2220
 8821SOL    HW138441   0.539   0.035   5.618 -0.3892 -1.4829 -2.2020
 8821SOL    HW238442   0.451   0.156   5.643  2.6129 -0.0578  2.8679
 8822SOL     OW38443   9.994   8.545   1.754  0.1926 -0.0038  0.4940
 8822SOL    HW138444  10.058   8.589   1.698  1.4709  0.0292  1.9219
 8822SOL    HW238445  10.045   8.513   1.828 -1.1213 -1.7653  0.7008
 8823SOL     OW38446   5.906  10.127   7.553 -0.5017 -0.0597  0.5056
 8823SOL    HW138447   5.879  10.063   7.487 -0.5222  1.9356 -1.5555
 8823SOL    HW238448   5.827  10.144   7.604 -0.9471 -0.3486 -0.0836
 8824SOL     OW38449   5.648   8.766   5.565 -0.6375  0.6524 -0.2654
 8824SOL    HW138450   5.720   8.826   5.545 -1.8397  2.0896 -0.5096
 8824SOL    HW238451   5.651   8.700   5.497  1.9887 -0.8284  1.1549
 8825SOL     OW38452   8.358   3.197   4.648 -0.0424 -0.0526 -0.0314
 8825SOL    HW138453   8.381   3.288   4.632 -0.1936 -0.1022 -0.5499
 8825SOL    HW238454   8.422   3.147   4.596  0.5685 -0.2686  0.9040
 8826SOL     OW38455   1.419   7.426   6.062  0.2821  0.1068 -0.0417
 8826SOL    HW138456   1.383   7.375   6.135  0.7657  0.1348  0.2216
 8826SOL    HW238457   1.416   7.516   6.092 -0.4700  0.2374 -0.4659
 8827SOL     OW38458   9.905   9.330  10.282 -0.2352 -0.2744  0.1667
 8827SOL    HW138459   9.912   9.404  10.343  3.0433 -0.6751  0.4484
 8827SOL    HW238460   9.863   9.261  10.333 -0.6848  0.4867  0.8499
 8828SOL     OW38461   0.312   7.479   2.486 -0.9708 -0.3630 -0.0448
 8828SOL    HW138462   0.327   7.414   2.554 -1.1222 -1.8788 -1.4214
 8828SOL    HW238463   0.381   7.544   2.501  0.2689 -1.7011  0.3172
 8829SOL     OW38464   4.127   6.812   4.376 -0.3957  0.0717  0.4434
 8829SOL    HW138465   4.219   6.807   4.352 -0.6748 -0.2997 -0.6127
 8829SOL    HW238466   4.081   6.824   4.293 -1.0450  4.4465  1.2057
 8830SOL     OW38467   3.585   6.026   6.287 -0.6672 -0.8219 -0.5976
 8830SOL    HW138468   3.563   5.933   6.290  0.0153 -0.9639  0.4038
 8830SOL    HW238469   3.516   6.069   6.337 -1.2520 -0.7177 -1.4679
 8831SOL     OW38470   6.876   2.044   5.912 -0.3185 -0.4286 -0.3349
 8831SOL    HW138471   6.872   2.020   5.819  0.2643  2.2142 -1.1155
 8831SOL    HW238472   6.918   2.130   5.913  0.4911 -0.7570  2.4787
 8832SOL     OW38473   0.668   5.238   9.637  1.3761  0.4016  0.4667
 8832SOL    HW138474   0.733   5.295   9.596  1.7039  1.4368  2.3145
 8832SOL    HW238475   0.648   5.280   9.721 -1.8273  0.2196 -0.0747
 8833SOL     OW38476   0.676   4.663   7.520 -0.0614 -0.3489 -0.1550
 8833SOL    HW138477   0.598   4.665   7.465 -0.8993  1.8398  0.9790
 8833SOL    HW238478   0.740   4.715   7.471  0.0077 -0.4180 -0.1384
 8834SOL     OW38479   9.393   8.364   6.215 -0.2614 -0.3576  0.3269
 8834SOL    HW138480   9.410   8.418   6.291 -0.6584  0.2844 -0.0306
 8834SOL    HW238481   9.414   8.275   6.243  0.8185  0.0294  0.7867
 8835SOL     OW38482   2.622   0.802   1.689 -0.4802  0.1080 -0.8615
 8835SOL    HW138483   2.672   0.862   1.744 -0.7609 -0.9238  0.5842
 8835SOL    HW238484   2.535   0.841   1.685 -1.0141 -0.7546  1.1064
 8836SOL     OW38485   3.628   8.529   7.739 -0.3194  0.5592  0.1362
 8836SOL    HW138486   3.693   8.599   7.728 -1.1312  1.1536 -1.1145
 8836SOL    HW238487   3.656   8.482   7.817  0.8830  1.5959  0.3548
 8837SOL     OW38488   3.521   9.855   7.364  0.2068  0.5601  0.2577
 8837SOL    HW138489   3.506   9.788   7.430 -0.6158  0.3664 -0.1199
 8837SOL    HW238490   3.616   9.856   7.352  0.2966  0.0832  0.9024
 8838SOL     OW38491  10.058   8.414   2.523 -0.1129 -0.3766  0.4994
 8838SOL    HW138492  10.095   8.367   2.448 -0.4662  0.9559 -0.5486
 8838SOL    HW238493  10.135   8.441   2.573  0.0695 -2.9786  1.7545
 8839SOL     OW38494   1.899   4.475   4.839 -0.2738  0.0502  0.4085
 8839SOL    HW138495   1.955   4.549   4.817  0.0166 -0.2964 -0.0225
 8839SOL    HW238496   1.868   4.494   4.928  1.2724 -0.2119  1.0221
 8840SOL     OW38497   9.275   8.523   0.326 -0.3828  0.5408  0.1662
 8840SOL    HW138498   9.257   8.552   0.415 -2.9562 -0.8070  0.1966
 8840SOL    HW238499   9.212   8.572   0.272 -3.0791 -2.7981 -0.0703
 8841SOL     OW38500   2.450   6.575   7.917  0.5794  0.7359 -0.0784
 8841SOL    HW138501   2.461   6.670   7.911 -0.6554  0.9707  0.8742
 8841SOL    HW238502   2.356   6.563   7.933  0.4413 -0.7357 -1.7317
 8842SOL     OW38503   0.976   8.334  10.227  0.1685 -0.0705 -0.1080
 8842SOL    HW138504   0.966   8.337  10.132 -1.4733  1.6739  0.0471
 8842SOL    HW238505   1.051   8.391  10.245 -1.1929  1.8810 -0.2578
 8843SOL     OW38506   5.717   4.097   7.735 -0.1962  0.0410  0.5811
 8843SOL    HW138507   5.768   4.161   7.786  0.2974  0.7406 -0.7287
 8843SOL    HW238508   5.645   4.148   7.698 -0.3105 -0.3570  0.2502
 8844SOL     OW38509   5.644  10.262   3.385  0.5015 -0.1099 -0.7693
 8844SOL    HW138510   5.565  10.281   3.435  2.2021  1.4098  1.5543
 8844SOL    HW238511   5.617  10.196   3.320 -2.1859 -1.0673  1.1705
 8845SOL     OW38512   0.807   6.986   2.162 -0.0746 -0.2393  0.0215
 8845SOL    HW138513   0.893   7.028   2.170 -0.3192  0.4236 -0.7476
 8845SOL    HW238514   0.810   6.915   2.227  1.2681 -0.6012 -0.3887
 8846SOL     OW38515   1.030   2.040   8.853  0.1315 -0.2579  1.1005
 8846SOL    HW138516   0.974   1.965   8.835  1.2982 -0.9487  0.1275
 8846SOL    HW238517   0.975   2.116   8.837 -0.4287 -0.9109 -0.2334
 8847SOL     OW38518   5.592   6.254   6.206  0.3355 -0.3507 -0.0576
 8847SOL    HW138519   5.609   6.218   6.119 -0.1002 -1.1489  0.1721
 8847SOL    HW238520   5.507   6.217   6.231  0.3377  0.0732  0.5976
 8848SOL     OW38521   1.547  10.067   6.419 -0.5520 -0.6800 -0.0199
 8848SOL    HW138522   1.458  10.100   6.404 -0.0913  1.6774  1.7458
 8848SOL    HW238523   1.535   9.988   6.472 -1.6206 -0.9578 -0.6567
 8849SOL     OW38524  10.292   6.783   0.310 -0.2532 -0.1320 -0.2058
 8849SOL    HW138525  10.373   6.809   0.353 -0.5318  1.3314 -0.5400
 8849SOL    HW238526  10.247   6.865   0.291 -0.7563 -0.7952 -2.0833
 8850SOL     OW38527   2.666   6.884   8.297 -0.0271 -0.2473 -0.4639
 8850SOL    HW138528   2.583   6.849   8.330 -1.7079  1.9916 -2.0382
 8850SOL    HW238529   2.697   6.943   8.366 -0.7221  0.3154 -0.6261
 8851SOL     OW38530   3.807   8.873   2.466 -0.2146 -0.1657 -0.2106
 8851SOL    HW138531   3.823   8.850   2.557 -2.4852 -1.8415 -0.1314
 8851SOL    HW238532   3.892   8.863   2.423  0.9113  0.7853  1.7141
 8852SOL     OW38533   5.078  10.253   8.790 -0.1594  0.0043  0.2703
 8852SOL    HW138534   5.091  10.195   8.866  0.3132  2.1918  1.9607
 8852SOL    HW238535   5.159  10.304   8.784 -1.6240  2.5767  0.7858
 8853SOL     OW38536   7.402   5.080   6.312 -0.1723  0.2103  0.6456
 8853SOL    HW138537   7.312   5.066   6.343  0.2326 -0.5116  1.5474
 8853SOL    HW238538   7.395   5.152   6.249 -1.1970  1.0036  1.6279
 8854SOL     OW38539   9.141   6.645   3.995 -0.4608 -0.1217  0.1382
 8854SOL    HW138540   9.235   6.666   3.994  0.3602 -3.3143 -1.0765
 8854SOL    HW238541   9.102   6.713   4.050  2.4200  1.7797  0.0459
 8855SOL     OW38542   0.473   9.517   5.114 -0.4805 -0.1733 -0.6058
 8855SOL    HW138543   0.501   9.501   5.204 -0.3637  1.5561 -0.2962
 8855SOL    HW238544   0.542   9.573   5.077 -1.3546  0.5176 -1.2247
 8856SOL     OW38545   2.750   7.950  10.345 -0.3011 -0.2108  0.0688
 8856SOL    HW138546   2.767   8.034  10.302  0.7651 -0.0402  0.7830
 8856SOL    HW238547   2.655   7.949  10.358 -0.3883  0.6743 -0.3771
 8857SOL     OW38548   7.897   8.740   1.202 -0.1908  0.3561 -0.4035
 8857SOL    HW138549   7.856   8.719   1.118 -0.0567 -2.1461  0.0946
 8857SOL    HW238550   7.977   8.688   1.203  0.9892  2.0756  0.3786
 8858SOL     OW38551   4.027   4.596   9.651  0.2165 -0.0350 -0.2056
 8858SOL    HW138552   4.030   4.526   9.585 -1.1113 -0.9640  0.6571
 8858SOL    HW238553   3.957   4.569   9.711  1.8929  0.3370  2.0630
 8859SOL     OW38554   8.694   9.428   7.515 -0.2443 -0.2206 -0.1752
 8859SOL    HW138555   8.743   9.501   7.553 -0.7095  0.4298 -0.7938
 8859SOL    HW238556   8.753   9.389   7.451 -0.3842  0.3313 -0.6543
 8860SOL     OW38557   1.835   7.643   9.229  0.4195  0.7551 -0.4211
 8860SOL    HW138558   1.773   7.624   9.158 -0.9985 -1.2265  1.2287
 8860SOL    HW238559   1.791   7.709   9.283 -0.4336 -0.7603  0.8334
 8861SOL     OW38560   3.987   2.270   3.873 -0.3531 -0.2198  0.0672
 8861SOL    HW138561   4.037   2.299   3.949 -0.1195 -0.5124  0.0266
 8861SOL    HW238562   3.985   2.174   3.881 -0.0522 -0.2713 -0.4684
 8862SOL     OW38563   1.812   4.676   4.245 -0.5073  0.1456 -0.2301
 8862SOL    HW138564   1.801   4.771   4.254  0.9258  0.1307  2.6449
 8862SOL    HW238565   1.876   4.666   4.175  0.6128  1.4313  0.5630
 8863SOL     OW38566   3.357  10.281   2.650 -0.2324  0.4240 -0.5486
 8863SOL    HW138567   3.426  10.216   2.632 -0.4321  0.2336 -0.6301
 8863SOL    HW238568   3.275  10.233   2.640 -0.5950  1.4575 -4.2839
 8864SOL     OW38569   9.498   2.927   7.581 -0.2739  0.5508 -0.5291
 8864SOL    HW138570   9.554   2.967   7.514  0.8543  0.7415  0.5120
 8864SOL    HW238571   9.482   2.998   7.644 -3.0720  1.0127 -1.5959
 8865SOL     OW38572   1.491   7.042   1.057  0.2849  0.5869 -0.1981
 8865SOL    HW138573   1.457   7.128   1.085 -0.4676  0.6955 -1.3503
 8865SOL    HW238574   1.413   6.988   1.048  0.6937 -0.0118 -0.1908
 8866SOL     OW38575   0.545   6.213   8.286 -0.1011  0.6200 -0.2224
 8866SOL    HW138576   0.629   6.229   8.244 -0.0532  0.6645 -0.1121
 8866SOL    HW238577   0.566   6.204   8.379  0.3448 -3.4228 -0.5502
 8867SOL     OW38578   0.531   0.301   0.901  0.1305 -0.0375  0.0162
 8867SOL    HW138579   0.484   0.384   0.894 -0.8206 -0.5948 -0.3757
 8867SOL    HW238580   0.490   0.244   0.835  1.6607 -0.4011 -0.6780
 8868SOL     OW38581  10.345   3.813   1.694 -0.2100  0.2486 -0.1186
 8868SOL    HW138582  10.308   3.894   1.729 -1.3414  0.7398 -2.2394
 8868SOL    HW238583  10.405   3.782   1.761 -1.8119  1.3759  1.9306
 8869SOL     OW38584   0.164   1.168   9.825 -0.7369  0.2112  0.0152
 8869SOL    HW138585   0.168   1.237   9.759  0.9115  0.5420  0.4203
 8869SOL    HW238586   0.072   1.162   9.847 -1.2135  0.7280 -1.6443
 8870SOL     OW38587   0.757   2.338   8.329  0.0959 -0.0666 -0.1699
 8870SOL    HW138588   0.776   2.422   8.371  1.6777  0.3806 -1.6886
 8870SOL    HW238589   0.680   2.305   8.375 -0.9704  2.5201  0.0104
 8871SOL     OW38590   4.171   4.707   0.532 -0.3199  0.1257 -0.1912
 8871SOL    HW138591   4.123   4.625   0.518 -0.3778  0.2709 -0.9066
 8871SOL    HW238592   4.244   4.683   0.589 -0.7563 -0.2698  0.2091
 8872SOL     OW38593   9.113  10.187   8.868 -0.2788 -0.1724  0.0497
 8872SOL    HW138594   9.152  10.145   8.945 -1.7695 -2.7746 -0.4852
 8872SOL    HW238595   9.019  10.183   8.884 -0.5754  0.2176 -1.4562
 8873SOL     OW38596   6.322   9.064   9.148  0.3857 -0.3937 -0.9701
 8873SOL    HW138597   6.261   9.004   9.190  1.7425 -2.1595 -1.3698
 8873SOL    HW238598   6.408   9.040   9.183  1.0580  0.9194 -1.6227
 8874SOL     OW38599   8.052   1.247   6.814 -0.0382 -0.0902  0.3088
 8874SOL    HW138600   8.101   1.325   6.840  1.1547 -0.9100  0.5940
 8874SOL    HW238601   8.087   1.177   6.869 -1.4076 -0.7565  0.3858
 8875SOL     OW38602   9.446   4.081   5.955 -0.5407 -0.5742  0.1266
 8875SOL    HW138603   9.479   4.078   5.866  1.1197 -0.4177  0.7128
 8875SOL    HW238604   9.365   4.132   5.948  1.7546  3.3842 -0.6928
 8876SOL     OW38605   4.021   1.192   6.247 -0.0777  0.2371  0.0628
 8876SOL    HW138606   4.002   1.101   6.224  0.1076  0.4638 -1.0688
 8876SOL    HW238607   4.096   1.215   6.192 -2.3033  2.1645 -2.4524
 8877SOL     OW38608   6.764   9.915   4.987 -0.0242 -0.2015  0.1730
 8877SOL    HW138609   6.764   9.987   4.924 -1.8814  0.4737  0.8880
 8877SOL    HW238610   6.823   9.850   4.949  3.0617  2.3000  0.2720
 8878SOL     OW38611   1.082   4.744   9.662 -0.3284 -0.3379 -0.7647
 8878SOL    HW138612   1.131   4.798   9.600  1.3872  0.8038  1.4391
 8878SOL    HW238613   1.000   4.792   9.675 -0.1122  0.1371 -1.1170
 8879SOL     OW38614   8.040   1.414   2.482  0.4082 -0.0018 -0.3168
 8879SOL    HW138615   8.125   1.377   2.508  1.2728  1.2343 -1.2759
 8879SOL    HW238616   7.990   1.418   2.563  1.3552 -0.5290  0.3131
 8880SOL     OW38617   3.421   9.120   4.311 -0.6712 -0.1645  0.2703
 8880SOL    HW138618   3.466   9.167   4.382 -1.4145  2.8211 -1.0769
 8880SOL    HW238619   3.333   9.105   4.344 -1.0372  1.2830  0.0091
 8881SOL     OW38620   9.102   3.712   4.842 -0.7272  0.3426  0.4511
 8881SOL    HW138621   9.137   3.800   4.850  0.1535 -0.0203  0.6887
 8881SOL    HW238622   9.132   3.681   4.757  0.6144 -0.4190  1.1679
 8882SOL     OW38623   1.585   5.345   8.594 -0.0299 -0.0896 -0.0386
 8882SOL    HW138624   1.574   5.315   8.504 -2.4450 -1.8180  0.7173
 8882SOL    HW238625   1.531   5.423   8.600 -2.3065 -1.6103  0.5484
 8883SOL     OW38626   8.719   7.778   1.436 -0.6108 -0.1125 -0.2356
 8883SOL    HW138627   8.629   7.807   1.421 -0.5862 -1.0302 -2.3938
 8883SOL    HW238628   8.773   7.837   1.384 -0.2671 -1.5397 -1.5864
 8884SOL     OW38629  10.266   3.487   8.161 -0.2142  0.0672  0.1198
 8884SOL    HW138630  10.305   3.448   8.239 -1.1084  0.6203  0.8607
 8884SOL    HW238631  10.196   3.543   8.194  0.4441  1.6183 -0.9718
 8885SOL     OW38632   9.431   1.984   0.544  0.1891  0.1417 -0.2104
 8885SOL    HW138633   9.447   2.079   0.543  2.4374 -0.1951 -1.1423
 8885SOL    HW238634   9.375   1.971   0.621 -1.5665  2.3851 -0.9598
 8886SOL     OW38635   0.668   2.562   4.574 -0.1963  0.6117 -0.2746
 8886SOL    HW138636   0.692   2.649   4.604 -1.5931  0.5333  1.2365
 8886SOL    HW238637   0.577   2.571   4.546 -1.2826 -0.8522  2.4467
 8887SOL     OW38638   8.687   6.602   0.184  0.0469 -0.2671 -0.2450
 8887SOL    HW138639   8.592   6.615   0.190  0.4072  3.0210  0.0211
 8887SOL    HW238640   8.717   6.596   0.274  0.3350  1.6595 -0.1650
 8888SOL     OW38641   0.653   3.762   1.581 -0.0703 -0.0406  0.5783
 8888SOL    HW138642   0.643   3.677   1.537 -0.1889  0.5723 -0.6117
 8888SOL    HW238643   0.566   3.802   1.575  0.1225  0.3911  0.6694
 8889SOL     OW38644   4.083   9.181   0.393 -0.3254 -0.3154  0.1203
 8889SOL    HW138645   4.012   9.243   0.409  1.1376  1.3456  0.4985
 8889SOL    HW238646   4.088   9.129   0.474 -1.0550 -0.4234  0.1037
 8890SOL     OW38647   0.428   7.773   0.286  0.5037 -0.2656  0.3666
 8890SOL    HW138648   0.475   7.842   0.332 -0.5661  0.3491  0.5662
 8890SOL    HW238649   0.343   7.811   0.266 -0.8421 -2.1169  2.1684
 8891SOL     OW38650   5.367   4.167   6.994 -0.2363  0.0216 -0.0112
 8891SOL    HW138651   5.336   4.076   6.997 -1.2758  0.3774  0.6033
 8891SOL    HW238652   5.447   4.163   6.941 -1.2951 -0.9465 -1.6197
 8892SOL     OW38653   1.301   4.273   0.665 -0.0304  0.1775  0.1860
 8892SOL    HW138654   1.391   4.297   0.640 -0.3608 -0.1237 -1.3751
 8892SOL    HW238655   1.270   4.347   0.717  0.6546  0.9063 -0.4151
 8893SOL     OW38656   4.174   8.411   6.292  0.2998  0.4433 -0.0574
 8893SOL    HW138657   4.104   8.445   6.237  0.4788  2.0550  0.6605
 8893SOL    HW238658   4.238   8.375   6.230 -0.4828  0.2833 -0.7845
 8894SOL     OW38659   5.376   6.208   5.823 -0.2761 -0.0153 -0.8483
 8894SOL    HW138660   5.363   6.121   5.787  1.9025 -0.8059  0.1282
 8894SOL    HW238661   5.417   6.257   5.752  1.3245 -0.7194 -0.4474
 8895SOL     OW38662   3.470   7.110   8.819 -0.0043 -0.0252 -0.2463
 8895SOL    HW138663   3.431   7.045   8.760  0.0077  1.3062 -1.8044
 8895SOL    HW238664   3.408   7.117   8.891 -1.6097  0.4719 -1.5966
 8896SOL     OW38665   2.470   7.217   2.659 -0.3383 -0.2698 -0.8920
 8896SOL    HW138666   2.447   7.259   2.741  0.2994 -2.3671  0.4336
 8896SOL    HW238667   2.537   7.274   2.620 -0.7514  0.8137 -0.0527
 8897SOL     OW38668   4.576   7.238   5.213 -0.7856 -0.1260  0.1799
 8897SOL    HW138669   4.555   7.156   5.168  1.4473 -0.2874 -0.6563
 8897SOL    HW238670   4.500   7.294   5.196 -0.9248 -0.9000 -2.0609
 8898SOL     OW38671   9.713   9.263   0.711  0.1337  0.0238 -0.7374
 8898SOL    HW138672   9.626   9.224   0.698 -0.6333  1.1957  0.6082
 8898SOL    HW238673   9.740   9.288   0.623 -1.5961  1.0107 -1.0451
 8899SOL     OW38674   0.870   1.077   3.092 -0.3023 -0.3409  0.1438
 8899SOL    HW138675   0.869   1.043   3.181  0.4776  0.2088  0.3744
 8899SOL    HW238676   0.778   1.078   3.066 -0.4073 -2.0181  0.3377
 8900SOL     OW38677   7.730   6.785   5.642 -0.2063 -0.5953  0.7315
 8900SOL    HW138678   7.718   6.740   5.558 -0.0619 -0.0791  0.4279
 8900SOL    HW238679   7.784   6.725   5.694  0.3267 -0.6013  0.1857
 8901SOL     OW38680   8.246   6.378   5.083 -0.5023 -0.5038  0.0038
 8901SOL    HW138681   8.209   6.361   4.996 -2.5268 -0.7391  0.8491
 8901SOL    HW238682   8.206   6.461   5.111 -0.4626 -0.7942  0.9839
 8902SOL     OW38683   0.259   4.718   2.871 -0.1649 -0.3879 -0.9488
 8902SOL    HW138684   0.262   4.807   2.905  0.4301  0.6924 -3.5307
 8902SOL    HW238685   0.168   4.691   2.879 -0.4387  0.6375 -0.5372
 8903SOL     OW38686   9.511   3.669   0.157  0.4089  0.1674  0.0803
 8903SOL    HW138687   9.517   3.581   0.193  0.3856  0.1064 -0.0635
 8903SOL    HW238688   9.600   3.688   0.127  0.3029 -0.0182 -0.3752
 8904SOL     OW38689   2.537   3.919   9.611  0.7550  0.2666  0.5601
 8904SOL    HW138690   2.465   3.909   9.549 -0.0653 -1.0586  1.6706
 8904SOL    HW238691   2.563   3.830   9.633  2.1403  0.7269  0.8801
 8905SOL     OW38692   9.264   1.920   7.699 -0.4544  0.8726 -0.2769
 8905SOL    HW138693   9.307   1.892   7.780 -0.0406  0.4873 -0.6236
 8905SOL    HW238694   9.286   2.013   7.691 -0.8898  1.0328  0.2916
 8906SOL     OW38695   8.930   4.121   7.503  0.1944 -0.4224 -0.6610
 8906SOL    HW138696   8.852   4.170   7.478  0.8578 -0.0235 -2.1158
 8906SOL    HW238697   8.899   4.033   7.523 -0.6336 -0.2778 -1.2586
 8907SOL     OW38698   6.038   9.665   1.261 -0.3851 -0.2191  0.1189
 8907SOL    HW138699   5.998   9.587   1.300  0.8545 -0.9622 -0.0558
 8907SOL    HW238700   6.093   9.701   1.330 -1.3847  0.8662  0.3932
 8908SOL     OW38701   6.164   9.199   9.516 -0.2989 -0.0560 -0.1342
 8908SOL    HW138702   6.082   9.242   9.541 -1.5593 -1.1705 -2.0659
 8908SOL    HW238703   6.209   9.263   9.460  0.8970  1.0944  1.9957
 8909SOL     OW38704   9.594   6.291   8.450  0.1326  0.1690  0.4891
 8909SOL    HW138705   9.627   6.221   8.393  0.4164  0.6416  0.0649
 8909SOL    HW238706   9.513   6.255   8.487 -1.2262  0.6049 -1.8306
 8910SOL     OW38707   8.053   1.088   1.378 -0.2102  0.4202  0.4793
 8910SOL    HW138708   8.085   1.012   1.425 -0.2255  0.6659  0.8907
 8910SOL    HW238709   8.118   1.156   1.393  0.8335 -0.0537 -1.5133
 8911SOL     OW38710   8.728   9.366   1.951 -0.2255  0.2982  0.1446
 8911SOL    HW138711   8.823   9.371   1.961  0.0969  2.2597 -2.6416
 8911SOL    HW238712   8.707   9.273   1.966  1.8711  0.0741  2.1837
 8912SOL     OW38713   7.685   1.820   4.059 -0.8179  0.1635 -0.1880
 8912SOL    HW138714   7.748   1.784   3.997  1.6488 -0.5958  2.5304
 8912SOL    HW238715   7.630   1.746   4.084  0.1823 -0.2977  0.7334
 8913SOL     OW38716   8.337   8.037   5.750  0.3973  0.3252  0.2123
 8913SOL    HW138717   8.310   7.957   5.705 -1.2197  1.0312 -0.1309
 8913SOL    HW238718   8.285   8.039   5.830  1.0193  0.6241  0.6152
 8914SOL     OW38719   5.959   7.516  10.169 -0.2291 -0.0112  0.5213
 8914SOL    HW138720   6.049   7.504  10.197 -0.1409 -0.6578 -0.0169
 8914SOL    HW238721   5.962   7.509  10.073 -0.4957  2.2400  0.2725
 8915SOL     OW38722  10.390   9.274   4.144  0.0337  0.7517 -0.2200
 8915SOL    HW138723  10.295   9.266   4.140  0.0924 -1.1831  0.8849
 8915SOL    HW238724  10.423   9.217   4.074  0.3573 -0.3516  0.7763
 8916SOL     OW38725   0.987   2.952   4.429 -0.3810  0.2159 -0.1720
 8916SOL    HW138726   0.893   2.960   4.444 -0.5080 -1.0045 -0.2483
 8916SOL    HW238727   1.025   3.029   4.473 -1.4685  1.1615 -0.8626
 8917SOL     OW38728   5.595   8.757   7.587  0.1029 -0.7082  0.6166
 8917SOL    HW138729   5.525   8.778   7.649 -0.2307  1.2400 -0.3416
 8917SOL    HW238730   5.582   8.817   7.514  0.8806 -2.4729 -1.0811
 8918SOL     OW38731   7.466   1.454   4.633  0.2096  1.1190  0.4453
 8918SOL    HW138732   7.397   1.482   4.694  2.1503  1.3368  2.7059
 8918SOL    HW238733   7.527   1.404   4.688  0.9737 -0.6398 -1.8380
 8919SOL     OW38734   1.438   0.926   8.571  0.1791 -0.3075 -0.4233
 8919SOL    HW138735   1.493   0.847   8.570 -0.3751 -0.6938 -1.3199
 8919SOL    HW238736   1.456   0.966   8.656 -0.2237 -1.8808  0.4373
 8920SOL     OW38737   6.739   3.696   2.433  0.0926 -0.0805 -0.0925
 8920SOL    HW138738   6.719   3.661   2.346  1.1772 -0.5505 -0.1619
 8920SOL    HW238739   6.669   3.662   2.489  0.4793 -1.4059 -0.3893
 8921SOL     OW38740   4.049   7.847   2.938 -0.3898  0.2588  0.1775
 8921SOL    HW138741   3.978   7.846   2.874  0.2480 -0.9180 -0.5560
 8921SOL    HW238742   4.008   7.820   3.020 -0.7197 -0.8954 -0.3489
 8922SOL     OW38743   4.876   0.661   3.280 -0.0817  0.3593  0.2795
 8922SOL    HW138744   4.844   0.748   3.304 -0.6765 -0.1861  1.5489
 8922SOL    HW238745   4.968   0.676   3.255 -0.1598  1.3457  0.5246
 8923SOL     OW38746   7.413   5.867   2.854 -0.1614 -0.1111  0.1433
 8923SOL    HW138747   7.447   5.782   2.880  0.7259 -0.6018 -2.3084
 8923SOL    HW238748   7.328   5.849   2.815 -0.1711  0.1663  0.0302
 8924SOL     OW38749   1.943   2.004   5.187 -0.4062  0.3389  0.7673
 8924SOL    HW138750   2.019   1.962   5.229 -0.4382 -0.1090  0.3896
 8924SOL    HW238751   1.979   2.046   5.109 -0.7218 -0.9652 -0.1275
 8925SOL     OW38752   7.516   3.565   0.488 -0.2308  0.0796  0.1160
 8925SOL    HW138753   7.525   3.660   0.481 -1.9155  0.2003 -0.9035
 8925SOL    HW238754   7.523   3.534   0.398  0.6933 -0.8228  0.4854
 8926SOL     OW38755   2.210   8.565   5.723  0.2909 -0.3833  0.0805
 8926SOL    HW138756   2.127   8.595   5.758  0.4620 -0.4218  0.5237
 8926SOL    HW238757   2.187   8.516   5.644 -0.1109 -0.4700  0.2514
 8927SOL     OW38758   7.341   0.285   5.983 -0.1350 -0.0020  0.5500
 8927SOL    HW138759   7.257   0.261   6.023  0.9774 -1.3593  2.2565
 8927SOL    HW238760   7.402   0.217   6.013  1.1330 -0.2982 -2.4062
 8928SOL     OW38761   9.767   0.630   3.148  0.6869  0.6173 -0.0604
 8928SOL    HW138762   9.776   0.696   3.217  1.8972  0.1407  0.2711
 8928SOL    HW238763   9.845   0.643   3.093 -0.1007  0.7830 -1.1582
 8929SOL     OW38764   3.726   5.302   6.809  0.2332  0.2380  0.8641
 8929SOL    HW138765   3.779   5.247   6.753  0.1153  0.1902  0.7985
 8929SOL    HW238766   3.642   5.257   6.815  0.1115  0.4458  0.7489
 8930SOL     OW38767   5.005   3.438   8.984 -0.0219 -0.5393 -1.2211
 8930SOL    HW138768   5.075   3.495   8.952 -1.4061  1.5506 -0.6553
 8930SOL    HW238769   5.040   3.349   8.971  1.9094  0.3666 -2.8001
 8931SOL     OW38770   5.031   0.670   6.175 -0.4179  0.0668 -0.1060
 8931SOL    HW138771   5.067   0.744   6.225 -0.3622 -1.5591  2.4575
 8931SOL    HW238772   5.108   0.629   6.135 -0.1470  0.1201  0.3430
 8932SOL     OW38773   8.392   9.414   4.139 -0.7169  0.1703  0.2226
 8932SOL    HW138774   8.421   9.457   4.058 -0.9025 -1.6951 -0.8849
 8932SOL    HW238775   8.320   9.468   4.170 -0.6848  0.8927 -0.8965
 8933SOL     OW38776   8.452   9.927   2.998 -0.1004 -0.3321 -0.3504
 8933SOL    HW138777   8.395   9.883   2.935  1.9163  1.0865 -3.4163
 8933SOL    HW238778   8.408  10.010   3.017 -0.0542 -0.1373 -1.0720
 8934SOL     OW38779   1.510   4.532   1.340  0.5642 -1.1053  0.1598
 8934SOL    HW138780   1.454   4.457   1.358  2.1192 -1.9736  1.6604
 8934SOL    HW238781   1.449   4.605   1.328 -0.8860 -1.9713  1.8547
 8935SOL     OW38782   1.461   4.110   4.771  0.3260  0.7738  0.2129
 8935SOL    HW138783   1.474   4.017   4.751 -1.7735  0.2855  0.8801
 8935SOL    HW238784   1.505   4.123   4.855 -0.5285  0.0365  0.7812
 8936SOL     OW38785   2.981   2.217   0.966  0.1538 -0.4204 -0.2510
 8936SOL    HW138786   3.049   2.254   1.022 -0.3235 -1.5395  1.1546
 8936SOL    HW238787   3.029   2.167   0.900  0.7491  1.4104 -1.2623
 8937SOL     OW38788   5.265   3.019   4.169  0.7281 -0.4268  0.2467
 8937SOL    HW138789   5.359   2.999   4.159  0.5346 -0.9371 -0.6327
 8937SOL    HW238790   5.261   3.115   4.167  1.4187 -0.3277  2.1441
 8938SOL     OW38791   8.180   1.857   0.430 -0.1536  0.2810 -0.5719
 8938SOL    HW138792   8.246   1.801   0.469 -1.9338 -1.4097  0.1548
 8938SOL    HW238793   8.159   1.815   0.346 -1.0658  0.1691 -0.2980
 8939SOL     OW38794   0.143   1.846   7.538  0.1237 -0.3990 -0.3474
 8939SOL    HW138795   0.091   1.829   7.617 -1.9983  1.1820 -1.3011
 8939SOL    HW238796   0.126   1.938   7.518  2.7664 -0.0158 -1.1922
 8940SOL     OW38797   1.676   8.885   9.658  0.1769  0.4019  0.5413
 8940SOL    HW138798   1.586   8.917   9.656 -0.1693 -0.4875  1.0054
 8940SOL    HW238799   1.726   8.951   9.611 -0.7750  0.7405 -0.0430
 8941SOL     OW38800   0.591   0.054   9.001 -0.6304 -0.3289  0.1047
 8941SOL    HW138801   0.512   0.092   9.040 -1.5499  0.3872 -2.2831
 8941SOL    HW238802   0.636   0.128   8.961  0.3788 -0.9918 -0.0131
 8942SOL     OW38803   6.952   7.829   3.170 -0.5259 -0.3186  0.3067
 8942SOL    HW138804   6.923   7.864   3.254 -0.5380 -3.3368  1.6597
 8942SOL    HW238805   7.047   7.834   3.173 -0.5505  0.6743 -0.0589
 8943SOL     OW38806   2.821   5.034   8.250  0.5318 -0.0759  0.3216
 8943SOL    HW138807   2.866   5.067   8.173 -2.4000  1.4742 -0.9063
 8943SOL    HW238808   2.801   4.942   8.229 -0.8428  0.5153 -1.1746
 8944SOL     OW38809   7.509   6.381   7.214 -0.3005  0.1625  0.6874
 8944SOL    HW138810   7.585   6.325   7.200  0.2723  0.9411  0.6088
 8944SOL    HW238811   7.495   6.424   7.130  1.3968  2.7129  1.6087
 8945SOL     OW38812   9.373   2.370   8.772 -0.3556  0.2271 -0.2917
 8945SOL    HW138813   9.278   2.373   8.776 -0.2854  2.3548  2.4847
 8945SOL    HW238814   9.398   2.301   8.833 -0.1005  0.5565 -0.0206
 8946SOL     OW38815   7.650   6.025   8.141 -0.5354  0.0857  0.0743
 8946SOL    HW138816   7.623   6.022   8.049  0.9733  2.3752 -0.5466
 8946SOL    HW238817   7.585   5.973   8.187 -1.9645 -0.2400 -2.1497
 8947SOL     OW38818   9.866   6.943   3.982 -0.4007  0.0010  0.0903
 8947SOL    HW138819   9.836   6.875   3.923 -0.9387  0.2603  0.0602
 8947SOL    HW238820   9.786   6.981   4.018 -0.0845 -0.0936  0.9149
 8948SOL     OW38821   5.566   1.184   8.928  0.4477 -0.7974 -0.4323
 8948SOL    HW138822   5.514   1.259   8.898  0.2238 -0.2761  1.1627
 8948SOL    HW238823   5.522   1.108   8.890 -2.3517 -0.4903  1.7883
 8949SOL     OW38824   1.722   1.709   9.096  0.2665  0.0617  0.1475
 8949SOL    HW138825   1.700   1.672   9.181 -1.5609  1.9604  0.5830
 8949SOL    HW238826   1.638   1.719   9.051  1.0662  0.3154 -1.3734
 8950SOL     OW38827   1.276   3.393   3.587  0.0605 -0.4336  0.9838
 8950SOL    HW138828   1.215   3.463   3.564 -1.0149 -0.7750  2.5728
 8950SOL    HW238829   1.354   3.438   3.618 -0.6677  0.1030  2.1114
 8951SOL     OW38830   7.501   9.406   5.546  0.3656  0.5614 -0.2790
 8951SOL    HW138831   7.554   9.337   5.506  2.3096  1.9951 -0.3278
 8951SOL    HW238832   7.514   9.482   5.490 -1.0697  1.2086  0.2220
 8952SOL     OW38833   3.117   9.418   3.977 -0.4121 -0.2081  0.0194
 8952SOL    HW138834   3.153   9.507   3.970 -1.8170  0.6362  2.4402
 8952SOL    HW238835   3.194   9.362   3.984  0.5079  1.1331  1.2230
 8953SOL     OW38836   3.919   9.908   3.905  0.7794 -0.1117 -0.0099
 8953SOL    HW138837   3.844   9.903   3.964  0.6598 -1.9509 -0.2531
 8953SOL    HW238838   3.883   9.939   3.822  0.3285 -0.7256 -0.0507
 8954SOL     OW38839   5.109   2.370   8.075 -0.5321 -0.0651 -0.3436
 8954SOL    HW138840   5.118   2.289   8.125  0.2485  0.8296  1.0168
 8954SOL    HW238841   5.105   2.341   7.984  0.4988 -1.6048  0.0561
 8955SOL     OW38842   5.806   9.455   8.486  0.6706  0.1233 -0.9118
 8955SOL    HW138843   5.874   9.523   8.484 -0.5488  1.3835 -1.3482
 8955SOL    HW238844   5.797   9.427   8.395  1.2012 -0.6659 -0.7251
 8956SOL     OW38845   2.111   1.339   9.751 -0.0046  0.2216 -0.4371
 8956SOL    HW138846   2.142   1.381   9.671  1.1662 -1.4265 -0.9106
 8956SOL    HW238847   2.190   1.300   9.789 -0.5703  0.8125  1.4358
 8957SOL     OW38848   4.875   4.889   0.856 -0.5329  0.2117  0.0312
 8957SOL    HW138849   4.798   4.941   0.833 -1.5143 -0.2128  2.1047
 8957SOL    HW238850   4.916   4.868   0.772 -2.1521  1.2307 -1.0729
 8958SOL     OW38851   9.720   0.574   0.653 -0.3676  0.1844  0.6106
 8958SOL    HW138852   9.759   0.488   0.640  1.4424  0.7773  1.6630
 8958SOL    HW238853   9.631   0.567   0.618  0.3274 -1.5691 -0.9095
 8959SOL     OW38854   6.504   9.019  10.325  0.7544  0.7948  0.2135
 8959SOL    HW138855   6.459   9.061  10.252  0.5667  3.2420  1.6268
 8959SOL    HW238856   6.551   9.091  10.369  2.6608 -0.9527  1.2356
 8960SOL     OW38857   4.024   5.560   8.336  0.1907  0.1993  0.2678
 8960SOL    HW138858   3.973   5.631   8.375  1.0096  0.6827  0.5022
 8960SOL    HW238859   3.982   5.544   8.251 -1.2459 -0.4528  1.0766
 8961SOL     OW38860   3.630   4.242   1.315 -0.4234 -0.0573  0.7651
 8961SOL    HW138861   3.615   4.148   1.326 -0.5361 -0.0992  0.2734
 8961SOL    HW238862   3.564   4.270   1.251 -0.1338  0.2737  0.6058
 8962SOL     OW38863   1.021   1.217   2.017  0.1970 -0.0412 -0.1659
 8962SOL    HW138864   1.039   1.228   2.110 -0.0748  2.9282 -0.3677
 8962SOL    HW238865   0.977   1.132   2.011 -0.1650 -0.1180  2.4457
 8963SOL     OW38866   2.985   8.504   4.530  0.0666  0.2570 -0.0161
 8963SOL    HW138867   2.938   8.452   4.465  1.0377 -1.9594  0.9678
 8963SOL    HW238868   3.075   8.471   4.527  0.4093  0.9627  1.5617
 8964SOL     OW38869   0.847   2.949   9.919  0.7953  0.1741 -0.6282
 8964SOL    HW138870   0.822   2.862   9.890  0.5128 -0.1550  0.5460
 8964SOL    HW238871   0.865   2.997   9.838 -0.2880 -0.5937 -1.3596
 8965SOL     OW38872   9.287   5.311   9.314 -0.0797  0.5371 -0.5225
 8965SOL    HW138873   9.356   5.345   9.258  0.4487 -0.3361 -0.4093
 8965SOL    HW238874   9.206   5.329   9.266  0.2580  1.0741 -0.9017
 8966SOL     OW38875   9.960   5.323   8.079 -1.1804  0.5572  0.2023
 8966SOL    HW138876   9.921   5.265   8.013 -2.2715 -1.1109  2.1959
 8966SOL    HW238877   9.916   5.407   8.066 -1.0381  0.4088 -1.4584
 8967SOL     OW38878   5.279   6.033   7.530 -0.4020 -0.1160 -0.0485
 8967SOL    HW138879   5.214   5.989   7.475 -0.2226  0.1451 -0.4718
 8967SOL    HW238880   5.354   5.973   7.530 -0.3093 -0.0001 -0.2915
 8968SOL     OW38881   9.441   6.753   8.106  0.5573 -0.1079  0.5241
 8968SOL    HW138882   9.460   6.696   8.181 -1.0037 -0.7517  0.4660
 8968SOL    HW238883   9.462   6.700   8.029  0.9431  0.1006  0.4812
 8969SOL     OW38884   8.332   6.745   3.795  0.1825 -0.2585  0.9061
 8969SOL    HW138885   8.374   6.822   3.833  1.5517 -0.2685 -0.4502
 8969SOL    HW238886   8.269   6.780   3.732 -0.1553 -0.2475  1.2496
 8970SOL     OW38887   8.518   9.577  10.114 -0.1371  0.3255  0.0312
 8970SOL    HW138888   8.558   9.492  10.132  0.2003  0.8117  1.7415
 8970SOL    HW238889   8.442   9.581  10.173 -0.5786  0.9249 -0.5544
 8971SOL     OW38890   5.882   3.607   7.437 -0.5975 -0.4551  0.1273
 8971SOL    HW138891   5.803   3.619   7.490 -0.2175  2.5267  0.1827
 8971SOL    HW238892   5.940   3.679   7.464  1.0945 -1.0246 -1.7563
 8972SOL     OW38893   7.431   7.968   8.698  0.8502  0.2104  0.2762
 8972SOL    HW138894   7.520   7.938   8.679  0.0913 -1.0037 -1.8016
 8972SOL    HW238895   7.417   8.040   8.635  0.5151  0.7386  0.9419
 8973SOL     OW38896   2.435   9.416   3.464  0.7094 -0.6527  0.0446
 8973SOL    HW138897   2.403   9.484   3.524 -0.0156  0.0931 -1.1371
 8973SOL    HW238898   2.386   9.338   3.489  0.5053 -0.3862  0.5019
 8974SOL     OW38899   1.941   4.846   1.790 -0.1232  0.3644 -0.1593
 8974SOL    HW138900   1.870   4.849   1.726 -0.3211 -0.9547 -0.0225
 8974SOL    HW238901   1.897   4.853   1.875 -0.3859 -2.6471  0.0562
 8975SOL     OW38902   4.230   8.807   9.612  0.3061 -0.5615  0.1108
 8975SOL    HW138903   4.158   8.861   9.643  0.3278 -1.0743  1.0783
 8975SOL    HW238904   4.249   8.840   9.524 -0.5998  0.0724  0.1487
 8976SOL     OW38905   8.017   5.292   9.181 -0.8467  0.0902  0.4705
 8976SOL    HW138906   7.975   5.377   9.183  0.5030  0.8313 -0.6763
 8976SOL    HW238907   8.106   5.310   9.151 -0.9392 -1.8825 -1.2003
 8977SOL     OW38908   3.382   2.411   5.263 -0.5163  0.3718 -0.7998
 8977SOL    HW138909   3.420   2.413   5.350 -0.6909  2.5651 -0.7337
 8977SOL    HW238910   3.437   2.349   5.214 -0.5302 -1.0390  0.8598
 8978SOL     OW38911  10.274   0.696   0.980 -0.3505  0.7446 -0.4306
 8978SOL    HW138912  10.215   0.757   0.936 -0.1641  1.1351 -0.1461
 8978SOL    HW238913  10.304   0.637   0.911 -1.6445  0.0830 -0.4429
 8979SOL     OW38914   5.200   7.814   2.105 -0.8936  0.0788  0.1109
 8979SOL    HW138915   5.266   7.838   2.170 -0.0198 -0.3253 -0.6049
 8979SOL    HW238916   5.187   7.720   2.118  0.1001 -0.2397 -0.9863
 8980SOL     OW38917   3.625   2.834   1.605 -0.1539  0.3499 -0.3651
 8980SOL    HW138918   3.552   2.877   1.649 -0.6022  2.4190 -2.9035
 8980SOL    HW238919   3.591   2.749   1.578 -0.7271  0.2004  0.7673
 8981SOL     OW38920   3.469   4.311   3.598 -0.4430 -0.1995  0.1718
 8981SOL    HW138921   3.439   4.307   3.689 -1.6456 -1.4579 -0.2450
 8981SOL    HW238922   3.549   4.258   3.597 -0.3572 -0.0808  0.5096
 8982SOL     OW38923   1.937   8.257   8.555 -0.3898  0.1045 -0.3336
 8982SOL    HW138924   1.934   8.342   8.512  0.6721 -0.0099 -0.6727
 8982SOL    HW238925   1.904   8.272   8.643 -1.0508  0.6790 -0.6759
 8983SOL     OW38926   0.823   6.902   1.186 -0.1709  0.0448 -0.0783
 8983SOL    HW138927   0.907   6.934   1.154 -0.1074 -0.3457 -0.2986
 8983SOL    HW238928   0.825   6.922   1.280  0.3175 -0.2923 -0.0131
 8984SOL     OW38929   9.667   7.774   7.769 -0.3713  0.0125  0.2666
 8984SOL    HW138930   9.605   7.712   7.805  1.4060 -2.0342  0.0031
 8984SOL    HW238931   9.752   7.747   7.803  0.7179  1.1438 -1.3483
 8985SOL     OW38932   6.539   1.047   8.550 -0.2600  0.1200 -0.0426
 8985SOL    HW138933   6.545   0.981   8.619  2.0023  0.8944  0.5778
 8985SOL    HW238934   6.539   1.131   8.596  1.2372  0.6440 -0.9275
 8986SOL     OW38935   4.981   2.931   0.317  0.3833 -0.2580 -0.3974
 8986SOL    HW138936   4.983   3.021   0.286  1.3104 -0.2021 -0.2153
 8986SOL    HW238937   4.954   2.880   0.240  0.2362  0.1309 -0.6048
 8987SOL     OW38938   2.984   5.732   6.973  0.1348  0.0376  0.1703
 8987SOL    HW138939   2.979   5.801   6.907  0.6363  0.5852  0.6809
 8987SOL    HW238940   2.988   5.779   7.056 -0.6295 -0.6394  0.6096
 8988SOL     OW38941   6.075   2.188   0.526 -0.0139 -0.4932  0.2832
 8988SOL    HW138942   6.055   2.116   0.586 -0.8115 -1.2601 -0.8763
 8988SOL    HW238943   6.164   2.171   0.497 -0.6177 -1.7242 -0.9241
 8989SOL     OW38944   3.186   5.092   1.954 -0.3456  0.3758 -0.3665
 8989SOL    HW138945   3.149   5.149   2.021  0.1256  1.3437 -0.9124
 8989SOL    HW238946   3.262   5.052   1.997  0.4404  1.6212 -0.5561
 8990SOL     OW38947   6.792   8.406   0.873  0.5140  0.2805 -0.1244
 8990SOL    HW138948   6.878   8.372   0.849  0.7185  1.0154 -0.4557
 8990SOL    HW238949   6.750   8.425   0.789  0.1850  0.3022  0.0462
 8991SOL     OW38950   4.309   4.402   4.437  0.2927 -0.8475 -0.0400
 8991SOL    HW138951   4.402   4.394   4.455  0.4911  1.2103  0.0573
 8991SOL    HW238952   4.266   4.367   4.515  0.8915 -3.1783 -0.6740
 8992SOL     OW38953   1.281   2.402   8.942  0.2057  0.0703  0.2193
 8992SOL    HW138954   1.314   2.355   8.865 -1.4979 -0.7771 -0.0544
 8992SOL    HW238955   1.233   2.476   8.906 -0.3661 -0.1755  0.4640
 8993SOL     OW38956   2.275   2.233   5.669 -0.0719  0.1138  0.2651
 8993SOL    HW138957   2.293   2.143   5.696 -0.4652  0.2600  1.0649
 8993SOL    HW238958   2.340   2.286   5.715  0.8585  0.1639 -1.0438
 8994SOL     OW38959   6.829   0.405   3.776  0.1951  0.1167 -0.4039
 8994SOL    HW138960   6.857   0.496   3.788  1.5786 -0.4895  1.3488
 8994SOL    HW238961   6.900   0.363   3.729  0.4215 -0.4696  0.4304
 8995SOL     OW38962   7.871   4.076   3.630  0.5259  0.5436 -0.9349
 8995SOL    HW138963   7.847   4.053   3.719 -1.0257  0.9545 -1.2121
 8995SOL    HW238964   7.916   4.161   3.638  0.5758  0.4786 -0.5317
 8996SOL     OW38965   6.405   0.320   1.428 -0.0151  0.1710 -0.0301
 8996SOL    HW138966   6.409   0.386   1.497 -2.6209 -0.0491  0.4098
 8996SOL    HW238967   6.355   0.248   1.466  0.2723 -0.8484 -1.4775
 8997SOL     OW38968   9.737   1.102   4.982 -0.6324  0.4224 -0.3307
 8997SOL    HW138969   9.720   1.016   5.019 -0.2348  0.2165 -0.6100
 8997SOL    HW238970   9.741   1.161   5.057 -0.2309  0.0804 -0.0804
 8998SOL     OW38971   6.438   9.686   6.800  0.2169  0.1052 -0.3722
 8998SOL    HW138972   6.466   9.616   6.859  0.8095  0.5866 -0.0760
 8998SOL    HW238973   6.416   9.640   6.718  0.9682 -0.3896 -0.3100
 8999SOL     OW38974   1.610   0.823   9.140 -0.1907 -0.1697 -0.2367
 8999SOL    HW138975   1.603   0.751   9.202 -0.9069 -1.9780 -2.2956
 8999SOL    HW238976   1.672   0.793   9.074 -0.2941  1.2150 -1.0089
 9000SOL     OW38977   2.872   5.163   5.642 -0.2339 -0.6851 -0.1304
 9000SOL    HW138978   2.960   5.125   5.636  0.8431  1.5376  0.3680
 9000SOL    HW238979   2.880   5.230   5.710 -2.7268 -1.3917  0.9412
 9001SOL     OW38980   0.235   9.653   8.010 -0.1710 -0.4240  0.5185
 9001SOL    HW138981   0.212   9.570   7.971  1.6831 -1.4561  1.4591
 9001SOL    HW238982   0.239   9.715   7.937 -1.5138 -1.1574 -0.1889
 9002SOL     OW38983   0.949  10.010   5.725  0.0543  0.7824  0.0538
 9002SOL    HW138984   0.987   9.925   5.748  0.4821  1.1020  0.5403
 9002SOL    HW238985   0.855   9.995   5.725  0.1505  0.1061 -0.6580
 9003SOL     OW38986   5.196   1.730   7.158 -0.2038 -0.0054  0.2542
 9003SOL    HW138987   5.188   1.700   7.248  0.7380  0.2045  0.4248
 9003SOL    HW238988   5.291   1.734   7.143 -0.2232  3.3303  0.3856
 9004SOL     OW38989   6.429   7.849   6.294 -0.2087 -0.4006  0.2904
 9004SOL    HW138990   6.523   7.850   6.316 -0.0769 -1.2985 -0.2026
 9004SOL    HW238991   6.402   7.940   6.300  0.8057 -0.0713 -0.0081
 9005SOL     OW38992   3.741   7.371   2.500 -0.3859 -0.1860  0.1087
 9005SOL    HW138993   3.818   7.384   2.556  0.2739 -2.1038 -0.2742
 9005SOL    HW238994   3.673   7.341   2.560 -0.0420 -1.0198  0.1064
 9006SOL     OW38995   2.516   4.393   5.688 -0.1155  0.6719  0.2922
 9006SOL    HW138996   2.534   4.329   5.757 -0.7141  0.3498  0.1565
 9006SOL    HW238997   2.573   4.467   5.709  0.6769  0.0582  0.3866
 9007SOL     OW38998   0.587   9.069   9.951  0.0344  0.0559 -0.2670
 9007SOL    HW138999   0.550   9.016  10.023  0.6710  0.5849  0.4662
 9007SOL    HW239000   0.522   9.137   9.937  0.2659  0.4137  0.3570
 9008SOL     OW39001   0.044   9.934   6.308 -0.0434  0.2558  0.1567
 9008SOL    HW139002   0.057  10.029   6.311 -2.0037  0.5433  0.4014
 9008SOL    HW239003  -0.049   9.922   6.291  0.3149 -1.6460 -0.7185
 9009SOL     OW39004   0.397   0.240   3.743 -0.4500  0.9436 -0.2793
 9009SOL    HW139005   0.429   0.151   3.761 -0.2881  1.0637  0.0166
 9009SOL    HW239006   0.476   0.291   3.725 -0.5602  0.9730 -0.6962
 9010SOL     OW39007   7.796   1.416  10.362  0.4835  0.0986 -0.0404
 9010SOL    HW139008   7.738   1.355  10.316 -1.2769  2.2990 -0.9000
 9010SOL    HW239009   7.792   1.496  10.311 -0.3343  2.1963  3.0218
 9011SOL     OW39010   8.528   6.499   8.683 -0.0214 -0.6503 -0.2076
 9011SOL    HW139011   8.571   6.415   8.672  0.2999 -0.6510  0.9343
 9011SOL    HW239012   8.595   6.564   8.664 -0.2919 -0.6462 -1.1679
 9012SOL     OW39013   1.510   1.089   2.451 -0.0678  0.1818 -0.3068
 9012SOL    HW139014   1.535   0.998   2.437  0.4024  0.4066 -0.9934
 9012SOL    HW239015   1.457   1.087   2.530  0.2640 -0.6321 -0.0881
 9013SOL     OW39016   0.446   6.720   9.469  0.0282 -0.2284 -0.4252
 9013SOL    HW139017   0.403   6.802   9.493  1.0037  0.9093 -2.3159
 9013SOL    HW239018   0.375   6.665   9.435 -0.4072  0.4507 -0.6386
 9014SOL     OW39019  10.122   2.587   7.754 -0.0267 -0.3423  0.8193
 9014SOL    HW139020  10.031   2.603   7.780 -0.3032 -0.0245 -0.2760
 9014SOL    HW239021  10.157   2.531   7.823 -1.1045 -0.5965  1.1850
 9015SOL     OW39022   0.390   1.946   2.915  0.3723  0.2885  0.4207
 9015SOL    HW139023   0.380   2.007   2.841  2.4392 -0.8163 -0.8714
 9015SOL    HW239024   0.421   2.000   2.987  1.1038  0.9478 -0.3781
 9016SOL     OW39025   4.201   0.195   5.292  0.2110  0.1792  0.1862
 9016SOL    HW139026   4.174   0.276   5.337  0.1320 -0.5000  1.3946
 9016SOL    HW239027   4.262   0.153   5.353 -1.1583 -1.5841  0.4325
 9017SOL     OW39028   8.263   3.214   7.161  0.2483  0.5290 -0.3264
 9017SOL    HW139029   8.337   3.200   7.220  0.3953  0.8848 -0.4244
 9017SOL    HW239030   8.188   3.225   7.220 -0.2580 -2.4796 -0.2344
 9018SOL     OW39031   8.316   7.245   0.150 -0.2933 -0.2915 -0.0722
 9018SOL    HW139032   8.247   7.277   0.207  0.4438 -0.0624  0.7223
 9018SOL    HW239033   8.393   7.240   0.207  0.7883  1.1668 -1.3037
 9019SOL     OW39034   7.197   5.420   1.095 -0.0888 -0.2788 -0.0549
 9019SOL    HW139035   7.144   5.377   1.162  0.6230  0.3323  0.9147
 9019SOL    HW239036   7.177   5.372   1.014 -1.4861 -0.5683  0.4511
 9020SOL     OW39037   8.742   5.028   0.148 -0.0751  0.3084 -0.3429
 9020SOL    HW139038   8.702   5.083   0.215  0.4824 -0.6101  0.7936
 9020SOL    HW239039   8.686   4.951   0.144  0.8933 -0.4640  0.4262
 9021SOL     OW39040   7.272   5.931   2.519 -0.1388  0.2097  0.1333
 9021SOL    HW139041   7.191   5.978   2.501  1.5744  2.6628 -1.9953
 9021SOL    HW239042   7.281   5.871   2.444  1.0216  1.5520 -0.8488
 9022SOL     OW39043   5.681   2.306   9.733  0.4402  0.0356 -0.3596
 9022SOL    HW139044   5.678   2.384   9.788  1.5935  1.2341 -1.9203
 9022SOL    HW239045   5.716   2.238   9.791  0.4288  0.9236  0.7336
 9023SOL     OW39046   6.200   1.107   8.017  0.1094 -0.4537  0.4203
 9023SOL    HW139047   6.240   1.183   8.059  1.4035 -0.2194 -1.1245
 9023SOL    HW239048   6.273   1.063   7.973 -1.1311 -0.6617 -1.5465
 9024SOL     OW39049   9.954   5.674   3.771  0.2453  0.1147 -0.4000
 9024SOL    HW139050  10.010   5.658   3.695  0.3011 -0.4160 -0.2509
 9024SOL    HW239051   9.945   5.589   3.813  1.7818  0.7222  1.2722
 9025SOL     OW39052   9.949   4.580   7.894 -0.2624 -1.1904  0.6492
 9025SOL    HW139053   9.969   4.669   7.866 -0.4984 -1.2763  0.1919
 9025SOL    HW239054  10.034   4.544   7.921  0.3181 -1.6682 -1.6044
 9026SOL     OW39055   6.561   5.121   4.257  0.3497  0.1029 -0.5572
 9026SOL    HW139056   6.603   5.035   4.259  0.3801  0.0689 -1.7853
 9026SOL    HW239057   6.555   5.142   4.164 -0.7644  0.8929 -0.3262
 9027SOL     OW39058   9.788   3.315   8.129 -0.8308 -0.1012  0.1279
 9027SOL    HW139059   9.729   3.296   8.201  0.0991 -0.4976  0.8062
 9027SOL    HW239060   9.783   3.237   8.073  0.0619 -0.7528  0.9056
 9028SOL     OW39061   4.578   8.766   1.490 -0.4395  0.7685  0.4929
 9028SOL    HW139062   4.506   8.760   1.426 -0.5641 -1.7991  0.7875
 9028SOL    HW239063   4.653   8.797   1.439 -0.5830 -1.0562 -0.9044
 9029SOL     OW39064   4.772   3.084   0.901 -0.0349 -0.3746  0.5839
 9029SOL    HW139065   4.677   3.080   0.911 -0.2688 -0.9522 -1.4255
 9029SOL    HW239066   4.787   3.066   0.808  1.8008  3.7483 -0.0997
 9030SOL     OW39067   0.252   2.241   7.969 -0.6911  0.0129 -0.0849
 9030SOL    HW139068   0.292   2.183   8.034  0.0767  1.9293  1.2090
 9030SOL    HW239069   0.192   2.183   7.921  1.0016 -2.1555  0.2312
 9031SOL     OW39070   2.677   6.514  10.008  0.2135 -0.1222 -0.1443
 9031SOL    HW139071   2.584   6.515   9.985  0.2199 -2.4946 -0.5491
 9031SOL    HW239072   2.690   6.593  10.061 -2.2009 -0.1311  0.5704
 9032SOL     OW39073   6.920   9.385   1.111 -0.6590 -0.2833 -0.5506
 9032SOL    HW139074   6.909   9.308   1.055  1.5125  0.4563 -2.1581
 9032SOL    HW239075   7.003   9.370   1.156 -0.5396  0.7966 -0.3832
 9033SOL     OW39076   5.295   2.079   0.500 -0.2504 -0.5017 -0.4372
 9033SOL    HW139077   5.227   2.024   0.462 -1.0905 -0.2961  0.7076
 9033SOL    HW239078   5.333   2.025   0.570 -1.2280  0.3874  0.8372
 9034SOL     OW39079   2.530   0.119   0.266 -0.7190  0.1694  0.3679
 9034SOL    HW139080   2.537   0.138   0.360 -0.7271 -0.4073  0.4851
 9034SOL    HW239081   2.620   0.097   0.240 -0.3702  1.9577 -0.1280
 9035SOL     OW39082   9.488   3.876   7.409  0.0558  0.0506 -0.3053
 9035SOL    HW139083   9.405   3.904   7.372 -1.0222 -2.6068 -0.0808
 9035SOL    HW239084   9.495   3.783   7.387  1.1095 -0.7690  2.8525
 9036SOL     OW39085   0.479   2.288   0.575 -0.1421  0.1079 -0.4391
 9036SOL    HW139086   0.462   2.195   0.560 -0.0547  0.1334 -0.6935
 9036SOL    HW239087   0.463   2.300   0.669 -1.3363  0.0939 -0.6257
 9037SOL     OW39088   6.135   0.658   4.075 -0.9594 -0.5359 -0.2249
 9037SOL    HW139089   6.167   0.575   4.111 -0.3342  0.0352  0.5638
 9037SOL    HW239090   6.215   0.706   4.051 -1.3408 -0.7393 -2.0580
 9038SOL     OW39091   1.737   0.640   5.912 -0.0884 -0.2246  0.1436
 9038SOL    HW139092   1.651   0.678   5.891 -0.0354 -0.8878 -1.4541
 9038SOL    HW239093   1.726   0.546   5.897  0.9559 -0.2955 -0.2713
 9039SOL     OW39094   1.395   0.192   2.708  0.4732  0.2509  0.3889
 9039SOL    HW139095   1.465   0.130   2.724 -1.1372 -1.8609 -0.2672
 9039SOL    HW239096   1.357   0.209   2.794  0.4163 -0.3376  0.4833
 9040SOL     OW39097   0.976   8.051   8.882 -0.0093  0.0714  0.2946
 9040SOL    HW139098   0.976   7.956   8.894  0.3970  0.0508  0.1177
 9040SOL    HW239099   0.945   8.064   8.793  0.6708  0.0750  0.0592
 9041SOL     OW39100   4.011   0.894   9.571 -1.0310  0.1407 -0.0051
 9041SOL    HW139101   3.966   0.916   9.653  0.1489 -0.8444  0.9510
 9041SOL    HW239102   3.965   0.944   9.504 -1.6291  1.4889  1.3506
 9042SOL     OW39103   8.079   7.038   6.535  0.0886 -0.5340 -0.5857
 9042SOL    HW139104   8.105   7.109   6.476  0.1343  0.4084  0.5210
 9042SOL    HW239105   7.983   7.039   6.533  0.0792 -0.1194 -0.2296
 9043SOL     OW39106   3.086   8.470   3.855  0.7382  0.4657  0.0701
 9043SOL    HW139107   3.135   8.552   3.848  0.2294  0.8779  1.1545
 9043SOL    HW239108   3.036   8.479   3.936  1.6476 -1.4532  0.9020
 9044SOL     OW39109   1.659   2.840   0.933 -0.0541  0.2174 -0.2781
 9044SOL    HW139110   1.742   2.792   0.933 -0.1377  0.0001  1.6896
 9044SOL    HW239111   1.652   2.875   0.844  1.6788 -0.5431 -0.7593
 9045SOL     OW39112   4.778   8.250   5.155 -0.3370 -0.4678 -1.1791
 9045SOL    HW139113   4.820   8.170   5.123  0.5931 -0.9427  1.0457
 9045SOL    HW239114   4.786   8.246   5.250 -0.6638  2.0674 -0.9545
 9046SOL     OW39115   9.412   7.253   6.771 -0.2897  0.2090 -0.5305
 9046SOL    HW139116   9.322   7.231   6.748  0.6379 -1.9834 -2.4151
 9046SOL    HW239117   9.433   7.196   6.844  0.0157 -0.3235 -1.0324
 9047SOL     OW39118   9.907   0.035   8.639  0.2348 -0.5576  0.0045
 9047SOL    HW139119   9.975  -0.004   8.694 -1.1159  0.4827  2.5918
 9047SOL    HW239120   9.952   0.105   8.591  1.0554  0.0143  1.5561
 9048SOL     OW39121   3.827   2.690   1.866  0.1853 -0.5042  0.1693
 9048SOL    HW139122   3.826   2.601   1.831 -0.2811  0.4905 -2.6143
 9048SOL    HW239123   3.760   2.736   1.815  0.6104  1.5007  1.3422
 9049SOL     OW39124   7.990   8.027   2.503  0.3327  0.0836  0.0087
 9049SOL    HW139125   8.068   7.972   2.497  1.8010  2.1939 -1.3314
 9049SOL    HW239126   7.999   8.073   2.586  0.2606 -0.0147  0.0717
 9050SOL     OW39127   9.580   8.207   3.118  0.3622 -0.0516 -0.0497
 9050SOL    HW139128   9.498   8.176   3.080  0.4264 -0.8874  0.4813
 9050SOL    HW239129   9.647   8.180   3.055  0.1597  1.6752 -1.0948
 9051SOL     OW39130   6.400   7.977   2.396  0.3202 -0.6647 -0.0825
 9051SOL    HW139131   6.377   7.903   2.339  2.4217 -0.6858 -0.9907
 9051SOL    HW239132   6.495   7.986   2.387  0.6608 -0.2660  3.0094
 9052SOL     OW39133   0.151   4.380   3.898 -0.4652 -0.3763 -0.0884
 9052SOL    HW139134   0.162   4.288   3.874 -0.7469  0.0203 -1.9044
 9052SOL    HW239135   0.194   4.388   3.983  3.5538 -1.2460 -1.7945
 9053SOL     OW39136   6.039   0.528   5.766 -0.3588  0.0703  0.1336
 9053SOL    HW139137   5.978   0.456   5.755  0.2789 -0.4420 -0.1409
 9053SOL    HW239138   6.046   0.541   5.860 -2.1812  1.2761  0.1552
 9054SOL     OW39139   8.927   1.153   2.112 -0.5129  0.4004 -0.7849
 9054SOL    HW139140   8.865   1.225   2.105 -0.0800  0.7347 -1.2348
 9054SOL    HW239141   8.927   1.131   2.205 -2.9955 -1.1225 -1.0511
 9055SOL     OW39142   8.691   4.196   6.557  0.8082  0.0370  0.2892
 9055SOL    HW139143   8.656   4.192   6.646  0.0746 -1.3033 -0.0278
 9055SOL    HW239144   8.780   4.162   6.564  1.1977  1.1082  0.6983
 9056SOL     OW39145   9.074   4.365   7.555 -0.0575  0.5757 -0.2448
 9056SOL    HW139146   9.008   4.297   7.542 -0.5305  1.0782 -0.4754
 9056SOL    HW239147   9.071   4.417   7.475  1.5983 -0.2177 -0.8708
 9057SOL     OW39148   3.424   6.815   9.658 -0.1435  0.4750 -0.1742
 9057SOL    HW139149   3.408   6.909   9.665 -0.1942  0.5269 -0.9062
 9057SOL    HW239150   3.404   6.781   9.745 -0.3261  1.1088  0.0396
 9058SOL     OW39151   3.843   6.520   8.127  0.0777  0.6252  0.1858
 9058SOL    HW139152   3.795   6.558   8.054 -0.7379  0.0175  0.3979
 9058SOL    HW239153   3.888   6.594   8.167 -2.1095  1.5501  1.0737
 9059SOL     OW39154   5.100  10.150   8.451 -0.7403  0.0483 -0.0182
 9059SOL    HW139155   5.118  10.119   8.540  0.5358 -0.8679 -0.5748
 9059SOL    HW239156   5.015  10.112   8.430  0.5794 -2.8904 -0.5297
 9060SOL     OW39157  10.123   0.081   2.896  0.1446 -0.1273 -0.3050
 9060SOL    HW139158  10.213   0.075   2.864  0.1067 -2.0072 -0.1556
 9060SOL    HW239159  10.133   0.093   2.991  0.2184  3.0670 -0.6002
 9061SOL     OW39160   9.726   5.377   6.057  0.9214  0.4147 -0.3487
 9061SOL    HW139161   9.785   5.414   5.993  1.5145  0.8421  0.4316
 9061SOL    HW239162   9.643   5.421   6.042  1.2922  1.1530 -0.2466
 9062SOL     OW39163   6.733   9.646   0.740  0.0441 -0.3396 -0.2670
 9062SOL    HW139164   6.821   9.659   0.704  0.2617 -0.6612  0.1522
 9062SOL    HW239165   6.727   9.552   0.755  0.0012 -0.1893  0.6691
 9063SOL     OW39166  10.160   3.415   5.883 -0.3446  0.6504  0.6442
 9063SOL    HW139167  10.143   3.428   5.790 -1.4251  0.3192  0.7905
 9063SOL    HW239168  10.200   3.328   5.888 -1.6722  0.0293  0.6388
 9064SOL     OW39169   6.724   8.511   2.551 -0.0215 -0.5419 -0.1335
 9064SOL    HW139170   6.801   8.504   2.494  0.1210 -0.6353  0.0705
 9064SOL    HW239171   6.734   8.597   2.593 -0.8593  0.1618 -1.3107
 9065SOL     OW39172   7.053   6.813   9.989  0.1834  0.0934  0.0737
 9065SOL    HW139173   7.040   6.898   9.948 -0.1864  0.2839  0.5718
 9065SOL    HW239174   7.001   6.817  10.069 -1.4883 -1.3099 -0.8637
 9066SOL     OW39175   0.349   0.743   4.617  0.4036  0.6366  0.4111
 9066SOL    HW139176   0.326   0.835   4.627  1.2397  0.9512 -0.3429
 9066SOL    HW239177   0.298   0.714   4.542  0.4545  0.6113  0.3854
 9067SOL     OW39178   7.208   9.956   1.624  0.9376 -0.1184 -0.5197
 9067SOL    HW139179   7.261  10.027   1.588 -1.4573  2.2231  0.3181
 9067SOL    HW239180   7.127   9.958   1.575 -0.1060 -0.7020  1.0986
 9068SOL     OW39181   9.322   8.620   7.268 -0.3292  0.1370  0.1348
 9068SOL    HW139182   9.323   8.631   7.363  0.1424  0.0279  0.1437
 9068SOL    HW239183   9.234   8.587   7.249 -1.4277  2.7691  0.2153
 9069SOL     OW39184   3.764   6.817   6.842 -0.1646 -0.7310 -0.0819
 9069SOL    HW139185   3.826   6.748   6.865  0.9484  0.1699 -0.2742
 9069SOL    HW239186   3.817   6.884   6.799 -1.1495  0.4025  0.3987
 9070SOL     OW39187   5.016   8.689  10.213  0.1060 -0.5935  0.3529
 9070SOL    HW139188   5.071   8.665  10.138 -0.1557 -1.5199  0.4460
 9070SOL    HW239189   4.937   8.727  10.175  0.2232 -0.5190  0.1842
 9071SOL     OW39190   0.997   7.124   1.613 -0.5175  0.1486 -0.1396
 9071SOL    HW139191   0.924   7.099   1.558  0.0705  0.9435 -1.3322
 9071SOL    HW239192   1.071   7.133   1.553  0.6617 -0.9534  1.0670
 9072SOL     OW39193  10.388   5.774   7.437  0.8971  0.2643 -0.5680
 9072SOL    HW139194  10.342   5.702   7.393  1.4555  0.8352 -2.1487
 9072SOL    HW239195  10.343   5.853   7.407  0.2604  0.6154  1.1896
 9073SOL     OW39196   6.851   2.947   8.763  0.0013 -0.1581 -0.3645
 9073SOL    HW139197   6.783   2.981   8.820 -0.0242  1.6331 -1.3957
 9073SOL    HW239198   6.833   2.987   8.678  1.8960 -0.2568 -0.8472
 9074SOL     OW39199   4.855   9.109   8.083  0.1075  0.8156  0.3357
 9074SOL    HW139200   4.942   9.109   8.043  0.2807 -1.8116  0.5417
 9074SOL    HW239201   4.843   9.019   8.116 -1.4257  1.8963  3.0877
 9075SOL     OW39202   1.969   8.356   3.481  0.1003  0.1468 -0.0304
 9075SOL    HW139203   2.043   8.406   3.448  1.0878 -0.2159  1.5557
 9075SOL    HW239204   1.892   8.399   3.442  1.0388  1.4656 -0.5019
 9076SOL     OW39205   7.118   0.156   6.718 -0.6079 -0.5164 -0.0099
 9076SOL    HW139206   7.189   0.220   6.724  0.2765 -1.2160 -2.0822
 9076SOL    HW239207   7.143   0.088   6.780  1.3904 -1.4731 -1.7396
 9077SOL     OW39208   0.265   2.504   7.232  0.6395 -0.1063 -0.2617
 9077SOL    HW139209   0.299   2.416   7.248  0.9629 -0.3152 -1.8850
 9077SOL    HW239210   0.231   2.500   7.142 -0.6180  1.0479  0.1224
 9078SOL     OW39211   2.854   4.100   8.721  0.2118 -0.1980  0.2300
 9078SOL    HW139212   2.929   4.071   8.670 -0.6220  0.1334 -1.2627
 9078SOL    HW239213   2.809   4.163   8.663 -0.3645  0.7738  1.6785
 9079SOL     OW39214   4.807   9.535   5.408 -0.6190  0.7782 -0.3081
 9079SOL    HW139215   4.772   9.536   5.498 -2.6969 -1.1416 -1.0037
 9079SOL    HW239216   4.837   9.445   5.395  1.7820  1.5814 -0.8606
 9080SOL     OW39217   6.514   8.294   4.056  0.1592 -0.1347  1.0636
 9080SOL    HW139218   6.594   8.244   4.069 -0.2763 -1.0251  0.4598
 9080SOL    HW239219   6.539   8.364   3.996  0.8135  0.4993  2.0510
 9081SOL     OW39220   9.847   4.507   4.603  0.3726  0.4631 -0.4634
 9081SOL    HW139221   9.847   4.512   4.508 -0.7072  0.0367 -0.5112
 9081SOL    HW239222   9.874   4.417   4.622 -1.1665 -0.0315 -0.4604
 9082SOL     OW39223   6.992   0.305   5.578 -0.1242 -0.3629  0.0673
 9082SOL    HW139224   6.982   0.214   5.551  0.0714 -0.0574 -1.0835
 9082SOL    HW239225   6.943   0.312   5.660 -0.0336 -1.5298  0.2290
 9083SOL     OW39226   7.021  10.296   7.487  0.3030 -0.5383  0.3798
 9083SOL    HW139227   7.112  10.286   7.513  0.8328  0.4034 -0.9725
 9083SOL    HW239228   7.024  10.300   7.391 -1.0712  0.3690  0.3468
 9084SOL     OW39229   6.655   0.651   5.123  0.5311  0.2654 -0.2280
 9084SOL    HW139230   6.749   0.631   5.121  0.2648 -1.0523 -0.4717
 9084SOL    HW239231   6.628   0.632   5.212  0.3559 -0.0420 -0.3464
 9085SOL     OW39232   9.968   8.932   3.445  0.1141  0.1870 -0.6797
 9085SOL    HW139233   9.924   8.959   3.364 -0.7567  0.4542 -0.1344
 9085SOL    HW239234   9.947   8.839   3.453  2.4081 -0.5199 -2.1165
 9086SOL     OW39235   9.890   3.173   9.648 -0.0737  0.0441  0.1267
 9086SOL    HW139236   9.873   3.115   9.723  1.8371  0.8818  1.2812
 9086SOL    HW239237   9.879   3.261   9.683  0.1057  0.4294 -0.7716
 9087SOL     OW39238   7.798   9.540   7.055 -0.1186  0.1603 -0.2892
 9087SOL    HW139239   7.761   9.477   7.116 -0.9550  0.2780 -0.6632
 9087SOL    HW239240   7.892   9.520   7.054 -0.3107 -0.7957 -0.0971
 9088SOL     OW39241   6.264   7.356   1.474 -0.4627 -0.0482 -0.2313
 9088SOL    HW139242   6.263   7.401   1.390 -1.7303  1.2342  0.4258
 9088SOL    HW239243   6.354   7.363   1.504  0.2252 -1.2695 -1.8178
 9089SOL     OW39244   4.415   1.776   9.001  0.1287 -0.2016 -0.4333
 9089SOL    HW139245   4.413   1.861   9.045  1.8412 -0.1389 -0.3912
 9089SOL    HW239246   4.364   1.718   9.057 -1.4693  0.8739 -0.7012
 9090SOL     OW39247   7.933   2.759   6.025 -0.4922  0.1339  0.5649
 9090SOL    HW139248   7.884   2.818   6.082  1.8065  0.6086  2.1854
 9090SOL    HW239249   7.943   2.678   6.075 -0.6514 -0.3980 -0.2393
 9091SOL     OW39250   5.399  10.270   3.491 -0.0537 -0.1672  0.4079
 9091SOL    HW139251   5.368  10.200   3.547 -2.0524  1.0008  0.8498
 9091SOL    HW239252   5.335  10.340   3.502  0.2122  0.6198 -2.3060
 9092SOL     OW39253   8.221   6.052   7.053  0.2161  0.0329  0.5595
 9092SOL    HW139254   8.293   5.996   7.025 -0.6627 -0.4174 -0.9654
 9092SOL    HW239255   8.148   5.992   7.065  0.1196  0.4583  2.2618
 9093SOL     OW39256   7.206   6.635   4.873  0.1639  0.4584 -0.7964
 9093SOL    HW139257   7.260   6.701   4.829  1.4064  0.5268  0.7483
 9093SOL    HW239258   7.260   6.556   4.873 -0.5558 -0.0446 -0.9733
 9094SOL     OW39259   7.775   5.768   5.551 -0.0300  0.0150  0.0341
 9094SOL    HW139260   7.730   5.775   5.634 -1.7654  0.8652 -0.9385
 9094SOL    HW239261   7.844   5.835   5.555  0.2211 -0.2779  0.9382
 9095SOL     OW39262   4.562   2.750  10.314 -0.6031  0.8201  0.1872
 9095SOL    HW139263   4.636   2.734  10.373 -1.0250  0.2166  0.5569
 9095SOL    HW239264   4.587   2.710  10.231 -0.5768  0.4968  0.3528
 9096SOL     OW39265   3.000   0.418   6.911 -0.1465  0.1983  0.1370
 9096SOL    HW139266   2.983   0.352   6.979 -1.8131  0.3504 -0.0887
 9096SOL    HW239267   3.019   0.367   6.832 -1.7981 -0.0599 -0.1287
 9097SOL     OW39268   5.554  10.165   0.537 -0.0314  0.1308  0.0854
 9097SOL    HW139269   5.548  10.114   0.618 -2.1276  0.3219  0.1016
 9097SOL    HW239270   5.540  10.100   0.468  0.0575  0.2449 -0.0395
 9098SOL     OW39271   8.299   6.667   8.600 -0.0950 -0.4974 -0.2691
 9098SOL    HW139272   8.242   6.628   8.534 -0.8574 -2.1654  1.2967
 9098SOL    HW239273   8.354   6.595   8.630 -2.1883 -0.7853  3.4295
 9099SOL     OW39274   5.758   8.408   5.093 -0.2749 -0.7144  0.0373
 9099SOL    HW139275   5.727   8.498   5.095  1.3480 -0.1398  1.5361
 9099SOL    HW239276   5.773   8.390   5.000 -0.7384  0.5101 -0.2957
 9100SOL     OW39277   8.342   6.351   9.707 -0.3388  0.3069  0.9456
 9100SOL    HW139278   8.360   6.338   9.613  1.2371 -2.1622  1.4862
 9100SOL    HW239279   8.416   6.309   9.751 -1.7437  0.1717  3.3285
 9101SOL     OW39280   8.548   2.012   0.486  0.1597 -0.4225  0.1832
 9101SOL    HW139281   8.575   1.921   0.500 -0.3468 -0.5660  0.2747
 9101SOL    HW239282   8.549   2.024   0.391 -0.1387 -0.6414  0.1521
 9102SOL     OW39283   3.928   3.518   3.986  0.0863  0.3083 -0.3011
 9102SOL    HW139284   3.991   3.448   3.966 -1.1095 -0.8576 -0.1854
 9102SOL    HW239285   3.962   3.560   4.065 -0.1274 -1.4184  0.7588
 9103SOL     OW39286   1.133   6.981   0.821 -0.4149  0.1127 -0.3747
 9103SOL    HW139287   1.126   6.898   0.774  1.1064  0.4460 -1.2557
 9103SOL    HW239288   1.172   7.041   0.757  1.9055  0.5337  1.3014
 9104SOL     OW39289   1.528   1.152   7.469 -0.1839  0.5481  0.2602
 9104SOL    HW139290   1.585   1.216   7.427  1.8189 -1.3138 -0.0458
 9104SOL    HW239291   1.449   1.152   7.416  0.3178  1.8050 -0.5325
 9105SOL     OW39292   5.839   7.212   9.830  0.0553  0.1443  0.5482
 9105SOL    HW139293   5.798   7.260   9.758 -0.2894  0.1548  0.7514
 9105SOL    HW239294   5.911   7.164   9.788 -1.1790 -1.2164 -0.1344
 9106SOL     OW39295   6.612   9.753   4.301  0.4992 -0.2064  0.2119
 9106SOL    HW139296   6.538   9.813   4.289  1.6989  1.6260  1.4316
 9106SOL    HW239297   6.584   9.694   4.371 -0.9790 -1.6477 -1.4993
 9107SOL     OW39298   4.750   0.531   5.281 -0.0011 -0.3155 -0.2633
 9107SOL    HW139299   4.662   0.516   5.316 -0.0435  2.0888  0.8410
 9107SOL    HW239300   4.800   0.454   5.308 -1.3533 -0.9601  0.5051
 9108SOL     OW39301   3.342   4.853   9.906 -0.3985 -0.3286  0.2358
 9108SOL    HW139302   3.372   4.764   9.890 -2.2577 -0.8325 -0.6648
 9108SOL    HW239303   3.314   4.853   9.997 -2.1637 -1.2561 -0.2601
 9109SOL     OW39304   6.658   0.269   1.327 -1.1858 -0.0092 -0.3204
 9109SOL    HW139305   6.565   0.267   1.345 -1.0549  0.0753  0.4037
 9109SOL    HW239306   6.667   0.327   1.251 -1.5265  1.9515  1.0420
 9110SOL     OW39307   8.908   1.110   6.061 -0.0047 -0.1683 -0.2352
 9110SOL    HW139308   8.963   1.123   6.138  0.2715 -0.5493 -0.3654
 9110SOL    HW239309   8.838   1.175   6.070  1.0464  1.0633 -0.5881
 9111SOL     OW39310   8.736   4.642   0.286 -0.1811 -0.2429  0.6396
 9111SOL    HW139311   8.690   4.686   0.357 -0.0435  0.9923 -0.0087
 9111SOL    HW239312   8.676   4.648   0.212  0.0008 -0.8327  0.4439
 9112SOL     OW39313   0.805   6.898   3.078 -0.0077 -0.5560 -0.0618
 9112SOL    HW139314   0.721   6.854   3.067  0.4107 -1.6792  1.0071
 9112SOL    HW239315   0.851   6.845   3.143  2.1738 -0.9408 -1.7804
 9113SOL     OW39316   5.226   6.300   8.179  0.6295 -0.4446 -0.5312
 9113SOL    HW139317   5.260   6.371   8.234  0.6116 -2.2308  1.9372
 9113SOL    HW239318   5.142   6.333   8.147  0.9077  0.8687  0.0230
 9114SOL     OW39319   0.301   7.092   9.008 -0.1374  0.2649 -0.1260
 9114SOL    HW139320   0.361   7.159   8.975 -1.6012  0.9177 -1.5957
 9114SOL    HW239321   0.226   7.141   9.041 -0.2551 -0.5694  0.8767
 9115SOL     OW39322   4.642   3.012   2.050  0.0904 -0.0085  0.5906
 9115SOL    HW139323   4.653   2.955   2.126  3.0810  0.5513  0.6866
 9115SOL    HW239324   4.723   3.002   2.000 -0.6389  1.7503 -1.0783
 9116SOL     OW39325   6.302   5.028   5.692 -0.2235 -0.3446 -0.1169
 9116SOL    HW139326   6.360   5.048   5.766 -0.5154 -2.6014  0.7909
 9116SOL    HW239327   6.360   4.989   5.626 -0.5949 -2.3865  0.7006
 9117SOL     OW39328  10.391   3.063   3.420  0.3111  0.4047  0.6965
 9117SOL    HW139329  10.312   3.052   3.367  0.2946 -0.0903  0.8120
 9117SOL    HW239330  10.361   3.103   3.501  0.3214  1.0734  0.3744
 9118SOL     OW39331   9.806   7.317   0.358  0.0763 -0.6761  0.1147
 9118SOL    HW139332   9.818   7.251   0.289  1.2018  1.1246 -1.5037
 9118SOL    HW239333   9.854   7.282   0.433  4.0179 -0.0700 -1.8709
 9119SOL     OW39334   4.121   9.519   4.993 -0.0418 -0.6600 -0.3250
 9119SOL    HW139335   4.096   9.514   4.901  1.0214  1.4558 -0.7968
 9119SOL    HW239336   4.085   9.602   5.023 -0.3102 -1.2915  1.1655
 9120SOL     OW39337   2.672   0.731   8.740 -0.3404 -0.5548 -0.4742
 9120SOL    HW139338   2.652   0.822   8.760  1.5613 -0.0739 -0.4904
 9120SOL    HW239339   2.743   0.736   8.675 -0.2298 -2.0341 -0.5051
 9121SOL     OW39340   9.403   3.850   2.928  0.0198  0.0832 -0.3482
 9121SOL    HW139341   9.354   3.786   2.980  0.6146 -0.7999 -0.8411
 9121SOL    HW239342   9.371   3.839   2.839  1.8463 -1.3171 -0.8966
 9122SOL     OW39343   8.006   7.642   4.514  0.1095  0.2059 -0.3437
 9122SOL    HW139344   7.912   7.625   4.507 -0.0912  1.2006 -0.1785
 9122SOL    HW239345   8.014   7.704   4.587  0.9059  0.0422 -0.2809
 9123SOL     OW39346   6.265   1.552   3.807 -0.4776  0.5462 -0.5714
 9123SOL    HW139347   6.254   1.459   3.787 -1.3058  0.7064 -0.8885
 9123SOL    HW239348   6.354   1.572   3.777 -0.5968  0.0575 -1.2753
 9124SOL     OW39349   5.777   8.612   8.562  0.0838  0.0121 -0.3142
 9124SOL    HW139350   5.743   8.700   8.546  1.6310  0.6865 -0.0863
 9124SOL    HW239351   5.742   8.559   8.491 -0.3931  0.9423 -0.7879
 9125SOL     OW39352   1.201   7.637   3.518 -0.0867  0.0682  0.2232
 9125SOL    HW139353   1.127   7.652   3.460 -1.4247  1.0003  2.0841
 9125SOL    HW239354   1.164   7.640   3.606  2.3417  1.8737  1.2953
 9126SOL     OW39355   4.108   2.697   2.086 -0.2416 -0.0802  0.0257
 9126SOL    HW139356   4.164   2.629   2.124 -0.1272 -0.0378 -0.0696
 9126SOL    HW239357   4.134   2.778   2.130 -0.0036 -0.0044 -0.2503
 9127SOL     OW39358   6.014   2.902   7.692  0.1938  0.3701 -0.4434
 9127SOL    HW139359   5.967   2.883   7.773 -0.3100 -0.9764 -1.0156
 9127SOL    HW239360   6.106   2.909   7.719  0.0037  0.2254  0.2728
 9128SOL     OW39361   6.977   2.852   4.116  0.0362  0.4743  0.5668
 9128SOL    HW139362   6.975   2.814   4.028 -0.0237 -1.3193  1.2823
 9128SOL    HW239363   7.025   2.934   4.107  0.3487  0.1414 -1.0561
 9129SOL     OW39364   8.606   2.663   1.900  0.2196  0.3438  0.4325
 9129SOL    HW139365   8.532   2.602   1.892  0.7977 -0.4695  1.0434
 9129SOL    HW239366   8.673   2.627   1.842  0.0019  1.3057 -0.4342
 9130SOL     OW39367   4.721   9.482   8.403  0.0830 -0.2763  0.6878
 9130SOL    HW139368   4.709   9.499   8.497 -2.5322  0.4407  0.2967
 9130SOL    HW239369   4.771   9.401   8.399 -0.4591 -0.7621  2.7149
 9131SOL     OW39370   5.091   6.246   7.553  0.2644  0.3501  0.2269
 9131SOL    HW139371   5.169   6.192   7.543  0.6892  1.0545 -0.3496
 9131SOL    HW239372   5.048   6.241   7.468  1.2840  2.3847 -0.4693
 9132SOL     OW39373   4.935   2.188   2.729 -0.0806  0.1927  0.1370
 9132SOL    HW139374   4.840   2.199   2.724 -0.5028 -1.9133  1.8562
 9132SOL    HW239375   4.964   2.254   2.792 -0.5225  0.3382  0.1887
 9133SOL     OW39376   2.444   0.601   9.968 -0.2342 -0.2477 -0.2617
 9133SOL    HW139377   2.492   0.525   9.933 -2.7721 -2.5200  0.8246
 9133SOL    HW239378   2.431   0.580  10.061 -1.0746  1.4997  0.0476
 9134SOL     OW39379   5.852   8.838   3.810  0.7651  0.3429 -0.3333
 9134SOL    HW139380   5.819   8.926   3.830  0.6644  0.5309 -1.2886
 9134SOL    HW239381   5.800   8.809   3.735  0.4828 -0.7267  0.2600
 9135SOL     OW39382   0.558   3.436   8.320  0.2331  0.3902 -0.5475
 9135SOL    HW139383   0.490   3.498   8.348 -0.6570 -0.7780 -0.0475
 9135SOL    HW239384   0.597   3.405   8.401 -0.0238 -0.4551 -0.7359
 9136SOL     OW39385   4.860   0.790   5.325 -0.4643  0.1413  0.1158
 9136SOL    HW139386   4.839   0.697   5.329 -0.0852  0.0566  0.2059
 9136SOL    HW239387   4.775   0.835   5.325 -0.6357 -0.1796  0.6740
 9137SOL     OW39388   3.376   4.234   6.105  0.1241 -0.1037 -0.4052
 9137SOL    HW139389   3.292   4.214   6.146 -0.0445 -0.0247 -0.7113
 9137SOL    HW239390   3.370   4.326   6.080  0.3390 -0.0716 -0.3416
 9138SOL     OW39391   9.705   9.944   6.374 -0.6619 -0.6146 -0.4672
 9138SOL    HW139392   9.679   9.930   6.465 -2.3989 -1.8935 -1.0934
 9138SOL    HW239393   9.788   9.991   6.379 -0.3530 -1.3048  1.7681
 9139SOL     OW39394   3.741   7.290   5.608  0.0903  0.1241 -0.1519
 9139SOL    HW139395   3.779   7.377   5.597  1.2553  0.0008  2.2917
 9139SOL    HW239396   3.817   7.233   5.623 -0.7276 -1.1552 -0.6597
 9140SOL     OW39397   8.981   3.828   3.598 -0.0354  0.0913 -0.3024
 9140SOL    HW139398   8.912   3.768   3.568  0.1247 -0.7170  0.9097
 9140SOL    HW239399   9.045   3.772   3.641  1.7273  0.7404 -1.9058
 9141SOL     OW39400   4.181   6.459   5.312  0.1597  0.4026 -0.1099
 9141SOL    HW139401   4.265   6.420   5.289  0.4350  0.9845 -0.1010
 9141SOL    HW239402   4.120   6.385   5.312  1.1017 -0.4620  2.2590
 9142SOL     OW39403   4.018   0.287  10.253  0.1301  0.1478 -0.3211
 9142SOL    HW139404   3.956   0.296  10.180 -1.1613 -3.4409  0.1753
 9142SOL    HW239405   4.104   0.290  10.211 -0.3105  3.2083 -1.2667
 9143SOL     OW39406   3.772   3.913  10.323 -0.0908  0.1382  0.5559
 9143SOL    HW139407   3.721   3.933  10.402 -1.3418 -1.9868  0.3531
 9143SOL    HW239408   3.858   3.888  10.357 -0.4142 -0.1187  1.2090
 9144SOL     OW39409   2.008   1.217   0.389 -0.1343  0.0918  0.2937
 9144SOL    HW139410   2.013   1.305   0.351 -0.8430 -0.0822 -0.2431
 9144SOL    HW239411   1.933   1.177   0.344 -0.2496 -0.5419  1.0381
 9145SOL     OW39412  10.271   1.454  10.241  0.5672  0.5907  0.0396
 9145SOL    HW139413  10.268   1.446  10.146  1.0359 -0.7291  0.1150
 9145SOL    HW239414  10.249   1.545  10.258 -2.3203  0.2338 -1.1881
 9146SOL     OW39415   1.352   5.350   5.724  0.4411  0.3087 -0.2160
 9146SOL    HW139416   1.403   5.307   5.656  1.6927 -0.4526  1.1345
 9146SOL    HW239417   1.414   5.409   5.768 -0.6377  1.6676 -0.4622
 9147SOL     OW39418   3.772  10.261   7.455 -0.3008 -0.0894 -0.2032
 9147SOL    HW139419   3.766  10.337   7.513 -0.5788 -0.2235 -0.0506
 9147SOL    HW239420   3.823  10.197   7.504 -0.8946 -0.3589  0.0684
 9148SOL     OW39421   6.437   4.832   7.835 -0.0911 -0.0908  0.1359
 9148SOL    HW139422   6.483   4.749   7.823 -0.8009 -0.6642  1.2197
 9148SOL    HW239423   6.507   4.896   7.853  0.3623 -0.7592  0.8308
 9149SOL     OW39424   3.886   3.315   7.357 -0.4023  0.0031  0.1581
 9149SOL    HW139425   3.908   3.320   7.450 -0.5503 -0.3258  0.2075
 9149SOL    HW239426   3.791   3.325   7.353 -0.6243 -1.8277  0.1866
 9150SOL     OW39427   6.740   0.558   2.797 -0.3574  0.4176 -0.0472
 9150SOL    HW139428   6.735   0.645   2.838 -1.7626 -0.7733  2.5584
 9150SOL    HW239429   6.707   0.498   2.864  2.0325 -2.3738 -1.1320
 9151SOL     OW39430   8.866   5.903   0.801  0.2770  0.6354 -0.0191
 9151SOL    HW139431   8.771   5.900   0.792  0.0536 -0.5417  2.2319
 9151SOL    HW239432   8.882   5.909   0.895  2.4059 -3.7695  0.1611
 9152SOL     OW39433   2.517   0.261   7.327 -0.0629 -0.5271  0.1209
 9152SOL    HW139434   2.537   0.353   7.343 -0.3032 -0.6849  1.4266
 9152SOL    HW239435   2.580   0.213   7.381  2.2002 -1.2551 -2.8855
 9153SOL     OW39436   1.632   7.834   1.964 -0.7009  0.1956  0.2572
 9153SOL    HW139437   1.641   7.855   1.871  1.7330 -1.2914  0.0909
 9153SOL    HW239438   1.579   7.906   2.000 -3.4318 -0.2031 -2.5968
 9154SOL     OW39439   2.772   9.568   8.468 -0.5831  0.1119  0.2670
 9154SOL    HW139440   2.759   9.651   8.422  2.0303  0.2788 -0.3290
 9154SOL    HW239441   2.774   9.592   8.560  0.8215  0.8983  0.0722
 9155SOL     OW39442   4.062   8.948   2.317 -0.4202  0.4805 -0.4254
 9155SOL    HW139443   4.087   9.040   2.309 -0.5220  0.5629  0.1782
 9155SOL    HW239444   4.096   8.921   2.402 -0.3748 -0.0474 -0.6104
 9156SOL     OW39445   4.528   9.552   3.106 -0.2484 -0.3836  0.4456
 9156SOL    HW139446   4.452   9.495   3.089 -0.1333 -0.2592 -0.5500
 9156SOL    HW239447   4.542   9.598   3.023 -0.3361  1.1141  1.2309
 9157SOL     OW39448   3.118   9.181   5.056 -0.1167 -0.0534  0.0556
 9157SOL    HW139449   3.084   9.137   4.978 -1.3808  1.1084 -0.1042
 9157SOL    HW239450   3.213   9.170   5.052 -0.2685 -1.0883 -0.9685
 9158SOL     OW39451   1.700   3.160   7.735 -0.2829 -0.1159  0.8807
 9158SOL    HW139452   1.682   3.105   7.659  0.5930 -0.7843  1.1451
 9158SOL    HW239453   1.644   3.237   7.723 -0.0956 -0.1695 -0.4884
 9159SOL     OW39454   9.959   9.864   4.631  1.0022  0.2096  0.0976
 9159SOL    HW139455   9.922   9.778   4.614  0.4456  0.3989  0.3126
 9159SOL    HW239456   9.883   9.920   4.649  1.4312  0.4035  1.4486
 9160SOL     OW39457   7.122   2.458   8.470 -0.1477 -0.2168  0.0730
 9160SOL    HW139458   7.195   2.488   8.415  1.1720 -3.0171  0.1024
 9160SOL    HW239459   7.060   2.420   8.409 -0.0564 -0.7043  0.2791
 9161SOL     OW39460   4.257   3.909   8.501  0.2679  0.2253 -0.6551
 9161SOL    HW139461   4.326   3.865   8.452  0.1308  0.6925 -1.2849
 9161SOL    HW239462   4.303   3.964   8.564  0.4525 -0.1051 -0.4992
 9162SOL     OW39463   0.735   9.925   1.173 -0.0076 -0.0112  0.4057
 9162SOL    HW139464   0.814   9.899   1.125 -0.3152 -0.7953  0.3131
 9162SOL    HW239465   0.756  10.012   1.208  0.6452  0.0745 -0.1779
 9163SOL     OW39466   4.647   2.471   0.252  0.1004  0.0084  0.2213
 9163SOL    HW139467   4.657   2.501   0.162  2.2989 -0.5845  0.1911
 9163SOL    HW239468   4.725   2.504   0.297 -0.4948 -0.4743  1.6799
 9164SOL     OW39469   1.111   9.161   7.928  0.3996  0.4674 -0.0658
 9164SOL    HW139470   1.024   9.128   7.949 -0.3851  2.4510  0.0123
 9164SOL    HW239471   1.116   9.159   7.832  0.5908 -0.4024 -0.0401
 9165SOL     OW39472  10.138   6.718   0.778  0.1793  0.3367 -0.4501
 9165SOL    HW139473  10.149   6.645   0.839 -2.2994  0.2847  0.0635
 9165SOL    HW239474  10.180   6.793   0.821 -1.6182  0.3341  1.4789
 9166SOL     OW39475   3.108   7.484   9.193  1.0443 -0.3216 -0.8486
 9166SOL    HW139476   3.128   7.394   9.219  2.1156  0.7389  2.4377
 9166SOL    HW239477   3.012   7.487   9.193  0.8601 -2.1159 -3.9493
 9167SOL     OW39478   0.502   8.102   7.772  0.4259 -0.3650 -0.8607
 9167SOL    HW139479   0.447   8.089   7.850 -1.4400 -1.7476 -2.3200
 9167SOL    HW239480   0.591   8.105   7.806 -0.4103  0.7372  1.4907
 9168SOL     OW39481   2.967   2.619   4.130 -0.4037 -0.1713  0.0427
 9168SOL    HW139482   3.004   2.609   4.217 -0.0205 -2.6721 -0.3511
 9168SOL    HW239483   2.875   2.595   4.141 -0.2154 -1.0958 -0.3344
 9169SOL     OW39484   0.676   6.419   4.490 -0.3011  0.0245 -0.1452
 9169SOL    HW139485   0.749   6.432   4.430  1.1404 -1.8353  1.0729
 9169SOL    HW239486   0.619   6.356   4.445  0.1613 -0.4479 -0.0787
 9170SOL     OW39487   0.806   7.365   1.412  0.9066 -0.3603  0.5479
 9170SOL    HW139488   0.811   7.307   1.335  0.6764  0.7391 -0.3144
 9170SOL    HW239489   0.894   7.401   1.420  0.4350  1.0830 -0.4573
 9171SOL     OW39490   0.348   7.158   0.482  0.0812  0.2404  0.0331
 9171SOL    HW139491   0.302   7.076   0.466 -0.0670  0.3362 -0.0398
 9171SOL    HW239492   0.401   7.142   0.560 -0.3646  0.2413  0.3441
 9172SOL     OW39493   3.801   7.919   4.935  0.0208  0.3584 -0.3933
 9172SOL    HW139494   3.779   7.996   4.882  0.4649  1.3067  0.7356
 9172SOL    HW239495   3.891   7.935   4.964 -0.5126  0.3448  1.3732
 9173SOL     OW39496   6.510   5.785   6.963  0.1623 -0.6133 -0.6228
 9173SOL    HW139497   6.496   5.857   6.901 -0.8717  0.1904  0.5015
 9173SOL    HW239498   6.600   5.757   6.947  1.5477  2.6195  0.5737
 9174SOL     OW39499   7.774   0.747   0.261 -0.0058  0.0188 -0.5032
 9174SOL    HW139500   7.759   0.842   0.264 -0.1423  0.0373 -1.4282
 9174SOL    HW239501   7.748   0.722   0.173 -0.4283 -0.9678 -0.1069
 9175SOL     OW39502   8.212   9.878   3.631 -0.4999  0.0088  1.1193
 9175SOL    HW139503   8.213   9.895   3.725 -2.3300  0.6488  1.0724
 9175SOL    HW239504   8.143   9.812   3.620  2.0269 -2.7673  0.5429
 9176SOL     OW39505   3.217   5.695   6.346  0.0561 -0.5264  0.3971
 9176SOL    HW139506   3.162   5.629   6.303 -0.3383 -0.8138  1.3138
 9176SOL    HW239507   3.194   5.777   6.303  0.9387 -1.0470 -1.1232
 9177SOL     OW39508   0.755   5.806   6.961 -0.1349 -0.0497  0.1896
 9177SOL    HW139509   0.790   5.721   6.934 -0.2011 -0.0551  0.1218
 9177SOL    HW239510   0.824   5.869   6.939  0.9850 -0.3597  2.4678
 9178SOL     OW39511   2.011   8.252   0.201 -0.0503 -0.1516 -0.4513
 9178SOL    HW139512   1.950   8.279   0.132 -2.2424 -0.2001  1.3632
 9178SOL    HW239513   2.019   8.157   0.189 -2.5576 -0.6174  0.8657
 9179SOL     OW39514   4.924   2.667  10.141  0.1623 -0.3680 -0.1059
 9179SOL    HW139515   4.951   2.750  10.101  0.1566 -0.9513 -1.3765
 9179SOL    HW239516   4.830   2.661  10.122  0.6311 -1.8796 -2.4475
 9180SOL     OW39517  10.116   3.447   0.632 -0.2383  0.1599  1.0697
 9180SOL    HW139518  10.084   3.508   0.566  0.5166 -0.4168  0.1475
 9180SOL    HW239519  10.108   3.360   0.591  1.8661 -0.0609  1.0215
 9181SOL     OW39520   5.959   5.044   3.778 -0.3123 -0.0146 -0.2320
 9181SOL    HW139521   5.891   5.103   3.748 -1.1367 -0.1209  1.3136
 9181SOL    HW239522   5.993   5.085   3.858 -1.3501 -1.8881  1.2517
 9182SOL     OW39523   0.405   6.715   9.108 -0.0666  0.1598  0.2334
 9182SOL    HW139524   0.470   6.748   9.170 -0.5578  0.3495  0.6626
 9182SOL    HW239525   0.379   6.630   9.144 -0.7461  0.5084  0.5972
 9183SOL     OW39526   3.503   9.822   5.880  0.6214 -0.4290  0.0330
 9183SOL    HW139527   3.429   9.773   5.843  1.7204 -2.6695  0.6304
 9183SOL    HW239528   3.463   9.881   5.944 -0.7482 -0.7207 -0.5153
 9184SOL     OW39529   9.605   6.840   5.279 -0.3662  0.0697 -0.8347
 9184SOL    HW139530   9.639   6.916   5.232 -1.2249 -0.2357 -1.9871
 9184SOL    HW239531   9.511   6.843   5.264 -0.5296 -0.6518 -0.0198
 9185SOL     OW39532   3.589   2.400   7.730  0.1499  0.5234 -0.2857
 9185SOL    HW139533   3.680   2.429   7.745  0.1176  0.3618  0.2493
 9185SOL    HW239534   3.594   2.343   7.654  0.3174  1.4345 -0.9769
 9186SOL     OW39535   9.805   1.305   7.122 -0.4254  0.2724  0.7391
 9186SOL    HW139536   9.793   1.356   7.041  0.3805  1.4511  1.3256
 9186SOL    HW239537   9.895   1.322   7.147  0.1816 -2.2528  0.4696
 9187SOL     OW39538   1.990   9.587  10.007  0.1733 -0.2016 -0.4993
 9187SOL    HW139539   1.984   9.492   9.999 -0.3995 -0.2068 -0.0722
 9187SOL    HW239540   2.028   9.602  10.094  0.2456 -0.0410 -0.5576
 9188SOL     OW39541   9.289   3.889   1.936 -0.1260 -0.3013  0.6827
 9188SOL    HW139542   9.373   3.851   1.914 -0.0903  0.6700 -1.0339
 9188SOL    HW239543   9.239   3.817   1.975  0.3846 -1.7380 -1.2067
 9189SOL     OW39544   2.070   0.859   4.755  0.3492  0.5549 -0.4022
 9189SOL    HW139545   2.021   0.779   4.737  0.2433  0.5384 -0.0482
 9189SOL    HW239546   2.136   0.832   4.819  1.6270  0.2893 -1.7778
 9190SOL     OW39547   4.688   4.286   8.790  0.5738  0.4675 -0.0515
 9190SOL    HW139548   4.709   4.226   8.862 -0.6097  1.1831  0.9322
 9190SOL    HW239549   4.609   4.249   8.752  0.2206  1.0286  0.1331
 9191SOL     OW39550   2.643   6.031   3.620  0.3290  0.4071 -0.0791
 9191SOL    HW139551   2.607   6.039   3.708  0.2638 -1.7714  0.1436
 9191SOL    HW239552   2.572   6.060   3.562  0.2168  1.4206  0.5468
 9192SOL     OW39553   0.742   0.728   0.552  0.3595  0.1729  0.3896
 9192SOL    HW139554   0.718   0.806   0.502  1.6076  0.2840 -0.0548
 9192SOL    HW239555   0.828   0.703   0.518  0.0700 -1.2781  0.6733
 9193SOL     OW39556   0.927   1.202   1.625 -0.3325  0.0208 -0.3835
 9193SOL    HW139557   0.942   1.110   1.604  0.4430  0.0529 -0.0116
 9193SOL    HW239558   0.835   1.206   1.652 -0.8908 -0.3119 -2.1207
 9194SOL     OW39559   8.883   4.938   3.796  0.4573 -0.6041  0.6424
 9194SOL    HW139560   8.835   4.950   3.879  1.3082  1.6512  0.8752
 9194SOL    HW239561   8.851   4.854   3.763 -0.1366 -1.4590  3.1000
 9195SOL     OW39562   8.586   0.167   5.448 -0.0663  0.1288 -0.7320
 9195SOL    HW139563   8.501   0.206   5.427 -0.1235  1.5192  1.7329
 9195SOL    HW239564   8.565   0.076   5.471 -0.8218  0.3158 -0.6449
 9196SOL     OW39565   7.730   3.905   8.042  0.3625  0.0217 -0.4449
 9196SOL    HW139566   7.707   3.860   7.960  1.8515  0.6955 -1.2660
 9196SOL    HW239567   7.679   3.986   8.040  0.5584  0.1401 -0.8304
 9197SOL     OW39568   0.261   4.570   5.575  0.0475 -0.8052 -0.7674
 9197SOL    HW139569   0.208   4.490   5.575  0.0787 -0.8960 -3.0407
 9197SOL    HW239570   0.199   4.640   5.551  0.1119 -0.1720  0.7677
 9198SOL     OW39571   6.330   3.401   0.277  0.4726 -0.0134  0.7349
 9198SOL    HW139572   6.303   3.314   0.249  3.0106 -0.4206 -0.7482
 9198SOL    HW239573   6.411   3.387   0.325  0.6684  1.4997  0.8933
 9199SOL     OW39574   8.809   6.018   1.965 -1.1090 -0.0235  0.0239
 9199SOL    HW139575   8.757   6.019   2.045 -0.4937 -0.5121  0.4391
 9199SOL    HW239576   8.888   6.068   1.986 -0.8599 -0.3073 -0.2163
 9200SOL     OW39577   9.339   7.765   0.924  0.1488  0.1628 -0.6462
 9200SOL    HW139578   9.423   7.727   0.950 -0.0398  0.6056  0.7132
 9200SOL    HW239579   9.329   7.842   0.980 -0.6221  0.8064 -1.6269
 9201SOL     OW39580   4.167   4.993   0.517 -0.2085  0.1524 -0.2314
 9201SOL    HW139581   4.218   5.030   0.589 -0.2380  2.0625 -1.1265
 9201SOL    HW239582   4.156   4.901   0.540 -2.2235  1.1051  3.4214
 9202SOL     OW39583   0.514   3.841   4.136 -0.4273  0.4458  0.0053
 9202SOL    HW139584   0.451   3.870   4.202 -1.4647  2.0164 -1.5679
 9202SOL    HW239585   0.569   3.919   4.120  0.4195 -0.2012 -0.3109
 9203SOL     OW39586   1.681   8.603   8.999  0.6623 -0.4854  0.4826
 9203SOL    HW139587   1.644   8.575   8.915  0.6293  0.9759 -0.0126
 9203SOL    HW239588   1.742   8.533   9.023 -0.5326 -1.7194  0.0689
 9204SOL     OW39589   3.989   0.184   9.393  0.4393  0.0397  0.1789
 9204SOL    HW139590   3.916   0.209   9.450 -0.3372 -0.9159 -0.3809
 9204SOL    HW239591   4.036   0.117   9.443  0.5529  0.1772  0.2587
 9205SOL     OW39592   1.445   3.831   2.534  0.3325 -0.0395 -0.5451
 9205SOL    HW139593   1.519   3.775   2.556  0.8711 -0.3183 -2.7710
 9205SOL    HW239594   1.372   3.797   2.586  1.1994 -1.3291 -0.1321
 9206SOL     OW39595   0.754   7.139   0.754 -0.2674 -0.2063 -0.9966
 9206SOL    HW139596   0.718   7.148   0.842  0.5752 -1.0703 -0.5415
 9206SOL    HW239597   0.708   7.205   0.702 -0.1615  0.9185  0.2865
 9207SOL     OW39598   6.811   8.960   2.757 -0.2343  0.6792  0.8691
 9207SOL    HW139599   6.891   8.967   2.705 -0.5101 -1.0242  0.1545
 9207SOL    HW239600   6.765   9.043   2.741 -0.4784  0.1174 -1.9865
 9208SOL     OW39601   5.584   5.675   9.089  0.2840  0.3160  0.5695
 9208SOL    HW139602   5.604   5.733   9.162 -0.2346 -0.0798  1.0415
 9208SOL    HW239603   5.489   5.674   9.085  0.2310 -1.3455  1.2995
 9209SOL     OW39604   5.130   8.783   0.582  0.5057 -0.0041  0.0425
 9209SOL    HW139605   5.093   8.833   0.655 -0.8310  0.5422 -0.9810
 9209SOL    HW239606   5.063   8.786   0.514  0.9559 -2.0870 -0.5427
 9210SOL     OW39607   4.746   8.293   5.864  0.3627 -0.1024  0.1659
 9210SOL    HW139608   4.783   8.340   5.789  0.3424  0.1764  0.3302
 9210SOL    HW239609   4.818   8.287   5.926  0.4182 -0.4583  0.0677
 9211SOL     OW39610   5.858   8.172   0.466  0.6635 -0.1128 -0.3801
 9211SOL    HW139611   5.827   8.082   0.465 -1.8428  0.6959 -0.4999
 9211SOL    HW239612   5.942   8.168   0.512  0.9993 -2.5899 -1.0668
 9212SOL     OW39613   0.231   2.654   6.410  0.1923  0.7001  0.0368
 9212SOL    HW139614   0.264   2.584   6.355  1.9680  0.7545  0.9664
 9212SOL    HW239615   0.211   2.726   6.350  1.2377  0.4480 -0.6241
 9213SOL     OW39616   8.814   9.648   9.115 -0.0771  0.2369  0.6157
 9213SOL    HW139617   8.748   9.579   9.126  0.0387  0.2093  1.2074
 9213SOL    HW239618   8.897   9.601   9.107  0.3203  0.3094  3.3570
 9214SOL     OW39619   8.243   8.624   2.020 -0.6805  0.5401 -0.4456
 9214SOL    HW139620   8.309   8.673   1.971 -0.1532 -0.3791 -0.6795
 9214SOL    HW239621   8.164   8.676   2.012 -0.6001  0.4512 -2.2505
 9215SOL     OW39622   5.173   6.710   6.207 -0.3533  0.3095 -0.2688
 9215SOL    HW139623   5.126   6.713   6.124 -0.3773  0.6650 -0.2427
 9215SOL    HW239624   5.104   6.716   6.273 -0.4753 -1.3689 -0.1846
 9216SOL     OW39625   0.173   8.690   1.261  0.1562 -0.6787  0.4445
 9216SOL    HW139626   0.132   8.617   1.309 -0.5320 -0.6825 -0.1400
 9216SOL    HW239627   0.132   8.688   1.175  0.8007 -0.1603  0.1218
 9217SOL     OW39628   0.121   4.568  10.108  0.2493  0.2536  0.1693
 9217SOL    HW139629   0.063   4.625  10.157 -1.5598 -1.1372 -0.2555
 9217SOL    HW239630   0.190   4.626  10.075 -0.3037  1.7615  1.5635
 9218SOL     OW39631   0.662   2.716   3.503  0.0822 -0.6738 -0.0541
 9218SOL    HW139632   0.571   2.721   3.532  0.1495 -2.8528  0.6783
 9218SOL    HW239633   0.692   2.808   3.502 -1.3860 -0.1080  2.0735
 9219SOL     OW39634   7.807   9.148   5.852  0.2861  0.2272  0.3189
 9219SOL    HW139635   7.779   9.162   5.943  0.5669 -0.6052  0.5424
 9219SOL    HW239636   7.785   9.230   5.807 -0.2410  0.4926  1.0430
 9220SOL     OW39637   0.290   5.409   5.987  0.3735 -0.5132  0.0938
 9220SOL    HW139638   0.321   5.499   5.977 -0.2108 -0.2671  0.4630
 9220SOL    HW239639   0.370   5.356   5.980  0.7743  0.0564  0.2458
 9221SOL     OW39640   7.100   1.691   4.079 -0.1661  0.0580  0.3635
 9221SOL    HW139641   7.147   1.717   4.158  2.5251 -0.9189 -0.7891
 9221SOL    HW239642   7.129   1.752   4.012 -0.6310 -0.5049 -0.3735
 9222SOL     OW39643   0.924   8.926   8.394  0.0448  0.1967  0.3022
 9222SOL    HW139644   0.959   8.972   8.470 -0.6487  2.1870 -0.5100
 9222SOL    HW239645   1.000   8.909   8.339  0.4726 -0.7588  1.1643
 9223SOL     OW39646   9.427   4.149   2.560  0.2740  0.1203 -0.1757
 9223SOL    HW139647   9.337   4.118   2.562 -0.0700  1.0707 -0.1425
 9223SOL    HW239648   9.422   4.239   2.592  1.2022  0.2636 -0.3904
 9224SOL     OW39649   0.265   0.780   0.042 -0.0072  0.1940 -0.1694
 9224SOL    HW139650   0.184   0.729   0.049 -0.0774  0.1797 -1.0069
 9224SOL    HW239651   0.236   0.871   0.049 -0.3235  0.2780 -2.1131
 9225SOL     OW39652   9.202   6.223   1.880  0.2725  0.5015 -0.2008
 9225SOL    HW139653   9.121   6.230   1.932  0.0263 -2.4373 -0.0229
 9225SOL    HW239654   9.174   6.245   1.791 -0.1369  1.8976  0.2408
 9226SOL     OW39655   3.462   1.711   7.072  0.0545  0.3281 -0.1322
 9226SOL    HW139656   3.389   1.653   7.092 -0.4094  0.7188 -0.6343
 9226SOL    HW239657   3.437   1.795   7.110  0.2652  0.4487 -0.2578
 9227SOL     OW39658   3.609   9.061   0.286  0.2980 -0.1047  0.2060
 9227SOL    HW139659   3.634   9.096   0.200 -0.9180  1.5386  0.4707
 9227SOL    HW239660   3.613   9.136   0.345  0.8032 -1.1434  1.5430
 9228SOL     OW39661   2.872   9.275   7.935  0.5133  0.7391  0.3906
 9228SOL    HW139662   2.936   9.301   7.870  0.3560 -0.4214 -0.2565
 9228SOL    HW239663   2.877   9.179   7.938 -1.2831  0.5874  0.1799
 9229SOL     OW39664   6.940   0.296   8.305  0.1137 -0.4690  0.2935
 9229SOL    HW139665   6.989   0.318   8.385  1.5310 -1.3097 -0.3002
 9229SOL    HW239666   6.951   0.373   8.249 -0.1985 -0.2056  0.5881
 9230SOL     OW39667   6.718   3.034   3.190  0.0550  0.1871  0.0937
 9230SOL    HW139668   6.789   3.084   3.148 -0.1083  0.5480  0.2398
 9230SOL    HW239669   6.657   3.018   3.119  0.6515 -0.8159 -0.2085
 9231SOL     OW39670   7.426   9.042   4.335 -0.1600  0.1000 -0.5962
 9231SOL    HW139671   7.489   8.979   4.371  1.0616  1.2439 -0.6896
 9231SOL    HW239672   7.373   9.067   4.410  0.3306  0.1005 -0.2447
 9232SOL     OW39673   2.013  10.229   6.893  0.2965 -0.2446  0.1255
 9232SOL    HW139674   2.050  10.291   6.956  1.2470 -1.0149  0.3571
 9232SOL    HW239675   1.951  10.176   6.944 -0.0265  0.0821  0.0748
 9233SOL     OW39676   3.660   7.236   7.662 -0.3021  0.2867  0.1907
 9233SOL    HW139677   3.627   7.282   7.739  0.2342  3.0486 -1.1324
 9233SOL    HW239678   3.603   7.159   7.655 -1.2332  0.6787  2.5151
 9234SOL     OW39679   0.115   3.603   7.219  0.6047 -0.1821  0.3838
 9234SOL    HW139680   0.090   3.596   7.311 -3.7211 -0.7314 -0.5880
 9234SOL    HW239681   0.079   3.687   7.191 -1.1031 -1.4161 -1.4140
 9235SOL     OW39682   1.245   9.793   7.468  0.0485  0.0070  0.6569
 9235SOL    HW139683   1.169   9.752   7.428  0.6055 -0.4863  0.0720
 9235SOL    HW239684   1.253   9.751   7.554  0.7584 -1.3552 -0.0276
 9236SOL     OW39685   8.379  10.167   7.370 -0.3723  0.1063 -0.5988
 9236SOL    HW139686   8.301  10.215   7.341  0.0164  0.4387 -1.0909
 9236SOL    HW239687   8.449  10.232   7.372 -0.3350  0.0542  0.9166
 9237SOL     OW39688   3.799   0.707   0.479 -0.7990 -0.2478  0.0565
 9237SOL    HW139689   3.821   0.688   0.571 -0.7901 -0.1461  0.0756
 9237SOL    HW239690   3.775   0.622   0.442  0.2906 -0.4781 -0.1519
 9238SOL     OW39691   0.488   2.576   6.579  0.0894 -0.2160 -0.2849
 9238SOL    HW139692   0.404   2.601   6.541 -0.4525 -0.8529  0.4747
 9238SOL    HW239693   0.472   2.572   6.673  1.2252  0.6207 -0.0334
 9239SOL     OW39694   9.565   8.589   7.086  0.1402  0.0618  0.4423
 9239SOL    HW139695   9.485   8.581   7.139  0.9089  0.4510  1.7274
 9239SOL    HW239696   9.608   8.504   7.094 -0.3715 -0.3081 -0.6510
 9240SOL     OW39697   9.165  10.059   9.139 -0.3703  0.3326 -0.0100
 9240SOL    HW139698   9.073  10.079   9.151 -0.6216  0.0627 -1.4258
 9240SOL    HW239699   9.199  10.053   9.229 -1.5155  1.3006  0.5174
 9241SOL     OW39700   4.808   4.729   7.092 -0.5732 -0.1701 -0.4465
 9241SOL    HW139701   4.713   4.722   7.084 -0.6250  0.3525 -0.3721
 9241SOL    HW239702   4.832   4.793   7.025 -0.1978 -0.7495 -0.8706
 9242SOL     OW39703   9.385   3.849   7.004  0.1601  0.3852 -0.0671
 9242SOL    HW139704   9.433   3.784   7.055  1.7062  1.4978 -0.0294
 9242SOL    HW239705   9.446   3.875   6.935 -0.1692  2.2375  0.2920
 9243SOL     OW39706   0.635   4.076   3.812 -0.0515 -0.0103 -0.2318
 9243SOL    HW139707   0.730   4.072   3.804  0.1869  0.3280  1.7668
 9243SOL    HW239708   0.617   4.166   3.840 -1.1316  0.3902 -2.0723
 9244SOL     OW39709   2.620   0.934   8.141  0.1129 -0.4718  0.3550
 9244SOL    HW139710   2.649   0.865   8.202  1.5451 -0.1003  0.1224
 9244SOL    HW239711   2.595   1.006   8.198 -1.2382 -1.0986  0.5958
 9245SOL     OW39712  10.200   8.622   6.889  0.4717 -0.6559 -0.3676
 9245SOL    HW139713  10.184   8.716   6.876  0.4159 -0.2777  1.9387
 9245SOL    HW239714  10.115   8.588   6.918 -0.0316 -1.8756 -3.0128
 9246SOL     OW39715  10.299   6.844   6.510  0.2928 -0.0370  0.0172
 9246SOL    HW139716  10.244   6.768   6.529 -1.6543  0.6512 -2.3365
 9246SOL    HW239717  10.343   6.822   6.428  0.2995  1.0596 -0.2917
 9247SOL     OW39718   3.673   7.605   9.889  0.1688 -0.4280 -0.3111
 9247SOL    HW139719   3.636   7.522   9.861 -2.3200  0.0015  1.3395
 9247SOL    HW239720   3.602   7.668   9.879  0.6972  0.6881  2.0614
 9248SOL     OW39721   5.948   7.988   4.075  0.6920 -0.5806 -0.3266
 9248SOL    HW139722   6.031   7.940   4.075  2.1532  1.7526  1.0318
 9248SOL    HW239723   5.951   8.041   3.996  1.3708  0.7674  0.5518
 9249SOL     OW39724   5.256   0.995  10.293  0.1922 -0.0844 -0.0019
 9249SOL    HW139725   5.168   0.968  10.316  0.4922 -0.5980  0.5595
 9249SOL    HW239726   5.311   0.920  10.313  0.6935  0.0460 -0.8332
 9250SOL     OW39727   2.384   8.772   2.224 -0.0187 -0.5084 -0.2140
 9250SOL    HW139728   2.369   8.679   2.240  1.0255 -1.0551 -2.0964
 9250SOL    HW239729   2.479   8.780   2.213  0.1701  1.1637  1.8508
 9251SOL     OW39730   6.277   4.703   7.665 -1.0877  0.0533 -0.3042
 9251SOL    HW139731   6.349   4.656   7.623 -1.6135 -1.3417  0.2889
 9251SOL    HW239732   6.318   4.750   7.737 -1.0060 -2.5496  1.4719
 9252SOL     OW39733   2.301   7.954   2.345 -0.0686  0.4037  0.3393
 9252SOL    HW139734   2.261   7.905   2.273  0.6468  0.6146 -0.2109
 9252SOL    HW239735   2.339   8.031   2.303  0.6718  0.3447  0.8847
 9253SOL     OW39736   4.771   6.673   2.703  0.2613  0.1378  0.0259
 9253SOL    HW139737   4.758   6.732   2.628 -0.5419  0.9180  0.7661
 9253SOL    HW239738   4.754   6.585   2.668  0.7333  0.4080 -0.9081
 9254SOL     OW39739   2.840   1.526   8.405  0.0856  0.3289  0.5166
 9254SOL    HW139740   2.848   1.431   8.404 -0.3771  0.2279  2.1420
 9254SOL    HW239741   2.927   1.558   8.382  0.3392 -0.5000  0.3070
 9255SOL     OW39742   9.214   7.145   2.660 -0.4315  0.5767 -0.2229
 9255SOL    HW139743   9.188   7.143   2.568 -1.2487  0.7008 -0.0013
 9255SOL    HW239744   9.219   7.238   2.681 -0.2286  0.5484 -0.1419
 9256SOL     OW39745   5.071   4.268   7.925 -0.4614 -0.2379  0.0679
 9256SOL    HW139746   5.053   4.254   7.832 -0.8443 -1.2196  0.2849
 9256SOL    HW239747   5.163   4.241   7.935 -0.0310  1.0247 -0.2490
 9257SOL     OW39748   4.144   2.298   3.024  0.6808  0.8371  0.2487
 9257SOL    HW139749   4.112   2.209   3.040 -2.3078  1.6625 -0.3861
 9257SOL    HW239750   4.216   2.288   2.962 -0.7184 -1.0790 -1.1905
 9258SOL     OW39751   3.559   0.066   2.629 -0.7561 -0.1907 -0.3441
 9258SOL    HW139752   3.489   0.003   2.647 -0.6090 -0.4664 -0.7154
 9258SOL    HW239753   3.514   0.150   2.623 -0.7594 -0.0061  1.6796
 9259SOL     OW39754   4.615   6.393   6.272 -1.1724 -0.4151  0.5703
 9259SOL    HW139755   4.665   6.448   6.212 -0.4370 -0.4579  1.1391
 9259SOL    HW239756   4.651   6.412   6.358 -1.5065 -1.1431  0.8769
 9260SOL     OW39757   0.987   6.658   1.227 -0.2217  0.7097  0.1481
 9260SOL    HW139758   1.056   6.679   1.290  0.3121  1.1601 -0.5723
 9260SOL    HW239759   0.935   6.739   1.221 -1.4268  0.0711  1.4231
 9261SOL     OW39760   4.612   9.101   6.676  0.2338 -0.2293 -0.4447
 9261SOL    HW139761   4.522   9.089   6.706  0.4969  0.9085  0.8754
 9261SOL    HW239762   4.627   9.028   6.615 -1.4772 -0.5807 -0.4896
 9262SOL     OW39763   1.378  10.066   0.283 -0.2245  0.4699  0.2230
 9262SOL    HW139764   1.464  10.108   0.278  0.4733 -0.5970  2.1047
 9262SOL    HW239765   1.369  10.019   0.200  1.1351  0.4227  0.0759
 9263SOL     OW39766   2.193   4.350   6.782  0.5919  0.0480 -0.4236
 9263SOL    HW139767   2.133   4.307   6.843  1.5883 -2.1543 -0.8909
 9263SOL    HW239768   2.237   4.417   6.834  0.2177 -0.6659  0.8552
 9264SOL     OW39769   3.064   1.665   8.881  0.2271 -0.0213 -0.6857
 9264SOL    HW139770   2.982   1.714   8.892  0.2619 -0.0291 -0.3637
 9264SOL    HW239771   3.080   1.627   8.968  0.1370 -0.6970 -0.9593
 9265SOL     OW39772   1.178   4.505   6.244 -0.2585  0.2344  0.2922
 9265SOL    HW139773   1.100   4.504   6.300  0.0029  0.2632  0.6639
 9265SOL    HW239774   1.225   4.584   6.271 -0.3711  0.5063 -0.3081
 9266SOL     OW39775   7.156   4.282   7.584  0.1011  0.2336 -0.1794
 9266SOL    HW139776   7.250   4.270   7.570  0.4708  1.7038  0.8048
 9266SOL    HW239777   7.137   4.369   7.548 -0.6324  0.4448  0.6708
 9267SOL     OW39778   9.316   0.606   0.540 -0.2342  0.4585 -0.5728
 9267SOL    HW139779   9.272   0.521   0.532 -0.7001  0.6587 -0.1380
 9267SOL    HW239780   9.262   0.656   0.600 -0.3182  1.3034 -1.3342
 9268SOL     OW39781   3.816   4.307   8.224  0.1197 -0.3393 -0.2038
 9268SOL    HW139782   3.852   4.392   8.200 -1.1101 -0.0261 -1.0484
 9268SOL    HW239783   3.741   4.295   8.165  0.3511 -2.0720 -0.2056
 9269SOL     OW39784   0.497   1.287   9.656 -0.5454  0.2707 -0.5677
 9269SOL    HW139785   0.407   1.269   9.683 -0.6147 -0.3324 -1.1896
 9269SOL    HW239786   0.531   1.345   9.724 -1.2564  0.1318 -0.0852
 9270SOL     OW39787   1.432   9.286   6.351  0.1933 -0.9152 -0.0017
 9270SOL    HW139788   1.524   9.308   6.343 -0.1519  1.2800  1.2711
 9270SOL    HW239789   1.388   9.336   6.282 -0.2729 -0.1129  0.8579
 9271SOL     OW39790   7.117   9.563   3.465 -0.5219  0.1597 -0.0201
 9271SOL    HW139791   7.104   9.489   3.406  0.6890 -1.2347  1.3770
 9271SOL    HW239792   7.156   9.631   3.410 -0.1728 -0.8006 -1.0001
 9272SOL     OW39793   3.910   7.861   9.133  0.1991  0.2582 -0.3742
 9272SOL    HW139794   3.821   7.854   9.098 -0.6598  2.5053  1.1540
 9272SOL    HW239795   3.924   7.955   9.144  1.6571 -0.1672  2.0644
 9273SOL     OW39796   7.544   2.204   0.454  0.2398  0.3044 -0.7344
 9273SOL    HW139797   7.516   2.127   0.404  0.5807  0.0806 -0.5852
 9273SOL    HW239798   7.503   2.194   0.539 -0.9447  1.0632 -1.1896
 9274SOL     OW39799   3.439   8.472   1.910  0.3851 -0.0023  0.0032
 9274SOL    HW139800   3.400   8.544   1.960  0.0456  1.0174 -1.6556
 9274SOL    HW239801   3.525   8.458   1.951 -0.1583  0.2988  1.2939
 9275SOL     OW39802   4.528   2.805   6.052  0.0166  0.4231 -0.3090
 9275SOL    HW139803   4.460   2.739   6.042  1.5627 -1.2263 -0.4589
 9275SOL    HW239804   4.484   2.879   6.095 -1.9325 -0.3988 -0.7920
 9276SOL     OW39805   8.188   4.704   8.864 -1.0133  0.5295 -0.3774
 9276SOL    HW139806   8.124   4.773   8.878 -1.5168 -0.0769  0.4353
 9276SOL    HW239807   8.137   4.630   8.832 -0.7334  0.0510  0.2523
 9277SOL     OW39808   6.785  10.007   4.354 -0.0076  0.1913  0.4274
 9277SOL    HW139809   6.728   9.940   4.315  0.6517  0.3271 -0.8110
 9277SOL    HW239810   6.819   9.966   4.434 -0.1609 -0.6789  0.0595
 9278SOL     OW39811   7.023   9.988   1.424 -0.2572  0.2670 -0.4542
 9278SOL    HW139812   6.957  10.051   1.394  0.1756  0.6776 -0.5498
 9278SOL    HW239813   7.066   9.959   1.344 -0.4891 -0.1993 -0.4169
 9279SOL     OW39814   8.065   1.673   5.823 -0.0225 -0.8092 -0.2298
 9279SOL    HW139815   8.128   1.605   5.847 -0.1000 -1.0619 -0.7291
 9279SOL    HW239816   7.981   1.628   5.817 -0.3272 -0.3939  0.8263
 9280SOL     OW39817   1.676   4.137   4.161  0.4308  0.0103  0.2390
 9280SOL    HW139818   1.744   4.081   4.125  0.1978  0.8640 -1.6895
 9280SOL    HW239819   1.717   4.223   4.168  0.3678 -0.0668  1.7972
 9281SOL     OW39820  10.230   0.977  10.382 -0.2844  0.0167  0.3098
 9281SOL    HW139821  10.218   0.990  10.476  0.8187 -0.9252  0.5985
 9281SOL    HW239822  10.194   1.057  10.342 -2.8120 -0.5064  1.3652
 9282SOL     OW39823   4.053   0.852   6.379 -0.3787  0.1603 -0.0247
 9282SOL    HW139824   4.074   0.782   6.442  0.0701 -1.3652 -1.7830
 9282SOL    HW239825   3.960   0.870   6.392  0.1721  1.6082  2.6695
 9283SOL     OW39826   2.334   1.782   3.524  0.1565 -0.3737  0.3260
 9283SOL    HW139827   2.280   1.860   3.542 -1.1743 -1.0477 -0.5839
 9283SOL    HW239828   2.370   1.798   3.436  2.3726  0.5433  1.3185
 9284SOL     OW39829  10.311  10.006   9.168 -0.2124  0.3407  0.1961
 9284SOL    HW139830  10.355  10.091   9.174 -0.7070  0.5040  1.9630
 9284SOL    HW239831  10.229  10.025   9.123  0.8740  0.2521 -1.9814
 9285SOL     OW39832   5.136   9.318   7.318 -0.6447  0.4147 -0.0473
 9285SOL    HW139833   5.068   9.361   7.266  0.0414  0.4235 -0.9430
 9285SOL    HW239834   5.213   9.373   7.307 -0.2674 -0.0409  0.3093
 9286SOL     OW39835   0.678   7.241   4.878  0.5172  0.3630 -0.2294
 9286SOL    HW139836   0.588   7.256   4.907  0.2014  0.1040 -1.0659
 9286SOL    HW239837   0.682   7.279   4.791  0.4603 -1.9257 -1.3058
 9287SOL     OW39838   4.862   2.687   9.162  0.0550  0.1487  0.3545
 9287SOL    HW139839   4.842   2.636   9.240  0.4199 -0.8472 -0.1904
 9287SOL    HW239840   4.777   2.706   9.124 -0.0523 -0.7646  0.1206
 9288SOL     OW39841   5.386   1.547   9.999 -0.0650  0.0840 -0.4881
 9288SOL    HW139842   5.450   1.580  10.062  0.1429  0.0742 -0.6903
 9288SOL    HW239843   5.304   1.589  10.023 -0.7093 -2.1955  1.6913
 9289SOL     OW39844   1.417   9.376   9.253  0.5789  0.1818 -0.4485
 9289SOL    HW139845   1.395   9.422   9.334 -1.6338  1.2964 -1.5985
 9289SOL    HW239846   1.494   9.324   9.275 -0.0510  0.3029  2.4183
 9290SOL     OW39847   3.944   8.805   3.411  0.6393  0.4063  0.0373
 9290SOL    HW139848   3.864   8.856   3.426  0.0135 -0.2598 -0.8747
 9290SOL    HW239849   4.015   8.862   3.439 -0.0352  1.8547 -1.0571
 9291SOL     OW39850   9.473   9.201   1.224  0.2818  0.0220 -0.2856
 9291SOL    HW139851   9.497   9.109   1.219  1.1655  0.0790  1.6521
 9291SOL    HW239852   9.488   9.235   1.136 -1.1005 -1.8823 -1.3312
 9292SOL     OW39853   2.512   1.317   8.799 -0.1850 -0.4239 -0.0821
 9292SOL    HW139854   2.604   1.334   8.778  0.3759 -0.6789  1.9522
 9292SOL    HW239855   2.479   1.267   8.724  0.7909  1.2357 -1.6979
 9293SOL     OW39856   0.900   5.520   9.374  0.6686  0.0312  0.0506
 9293SOL    HW139857   0.843   5.471   9.316  0.9306 -0.1037 -0.0956
 9293SOL    HW239858   0.862   5.508   9.461  2.2027 -2.6958  0.4607
 9294SOL     OW39859   5.162   0.923   9.551 -0.3131  0.2010  0.2436
 9294SOL    HW139860   5.144   0.986   9.481 -2.5587  0.1814  0.7439
 9294SOL    HW239861   5.193   0.845   9.506  0.0280  0.7928 -0.5706
 9295SOL     OW39862   0.577   6.225   8.544 -0.1733  0.0933 -0.1060
 9295SOL    HW139863   0.654   6.277   8.563  0.3210 -0.4529 -0.5804
 9295SOL    HW239864   0.509   6.260   8.602  0.5473  0.2676  0.6406
 9296SOL     OW39865   3.843   8.023   6.844 -0.4917 -0.4988  0.3509
 9296SOL    HW139866   3.897   8.020   6.923  0.7284  0.2794 -0.4121
 9296SOL    HW239867   3.865   7.942   6.797  1.0549  0.3878 -0.5647
 9297SOL     OW39868   1.857   8.526   6.856 -0.2663 -0.1937  0.0469
 9297SOL    HW139869   1.848   8.498   6.765 -1.0686  0.7235 -0.1661
 9297SOL    HW239870   1.796   8.471   6.905 -0.8400  0.2511 -0.1692
 9298SOL     OW39871   3.748   1.041   3.843 -0.0535  0.3138 -0.2113
 9298SOL    HW139872   3.811   1.101   3.884 -0.3494  0.4442  0.0617
 9298SOL    HW239873   3.767   1.047   3.749 -0.4842  1.3174 -0.2484
 9299SOL     OW39874   6.889   2.955   2.484 -0.2440  0.4249  0.6100
 9299SOL    HW139875   6.896   2.867   2.521  0.9917 -0.0017 -0.5757
 9299SOL    HW239876   6.903   3.013   2.559 -0.2286 -0.3793  1.2536
 9300SOL     OW39877   8.216   6.247   6.498  0.7591  0.3127 -0.5479
 9300SOL    HW139878   8.290   6.282   6.548 -0.6065  2.8379 -0.0938
 9300SOL    HW239879   8.143   6.250   6.559 -0.1219 -0.3414 -1.5439
 9301SOL     OW39880   9.204   8.279   4.348 -0.9752 -0.2203  0.9305
 9301SOL    HW139881   9.209   8.358   4.402 -2.9043 -0.4131  1.4335
 9301SOL    HW239882   9.117   8.281   4.310  0.6396  0.5654 -3.2861
 9302SOL     OW39883   9.793   5.361   9.375 -0.4819 -0.7520 -0.3703
 9302SOL    HW139884   9.703   5.349   9.405  0.0771 -0.6299  1.5278
 9302SOL    HW239885   9.846   5.314   9.439  0.9384  1.0916 -0.0894
 9303SOL     OW39886   2.145   5.017   1.221  0.4943  0.2078 -0.0098
 9303SOL    HW139887   2.182   4.975   1.299 -0.5659  1.5556  1.2691
 9303SOL    HW239888   2.051   5.019   1.237  0.2933  0.8687 -1.1724
 9304SOL     OW39889   8.125   2.895   8.384 -0.6545  0.0914  0.4154
 9304SOL    HW139890   8.106   2.946   8.463  0.4175  0.4539  0.4426
 9304SOL    HW239891   8.131   2.959   8.314  0.7877  0.0255  0.4645
 9305SOL     OW39892   5.951   4.216   5.713  0.8968 -0.1886  0.1869
 9305SOL    HW139893   5.896   4.153   5.759 -0.4556  0.3606 -0.5990
 9305SOL    HW239894   5.985   4.168   5.638  0.3947 -0.1886 -0.0502
 9306SOL     OW39895   1.597   0.084   1.293 -0.1231 -0.2970 -0.1374
 9306SOL    HW139896   1.547   0.060   1.371 -2.0159 -2.2861 -1.8129
 9306SOL    HW239897   1.688   0.074   1.319 -0.6843 -0.7453  1.8490
 9307SOL     OW39898   8.196   8.384  10.285 -0.0106 -0.4148  0.2695
 9307SOL    HW139899   8.259   8.343  10.345  0.7158 -1.4135 -1.1250
 9307SOL    HW239900   8.112   8.379  10.332  0.7054 -0.1833  1.6419
 9308SOL     OW39901   8.497   1.188   9.105 -0.3024 -0.5493  0.7354
 9308SOL    HW139902   8.535   1.231   9.182  1.1890 -1.0469  0.2977
 9308SOL    HW239903   8.416   1.148   9.139  0.1088 -0.4065  1.9503
 9309SOL     OW39904   8.219   8.598   3.225 -0.7105  0.0893  0.2719
 9309SOL    HW139905   8.145   8.643   3.185 -0.8895  1.8419  2.3542
 9309SOL    HW239906   8.182   8.518   3.262 -1.2072  0.1000 -0.1998
 9310SOL     OW39907   7.805   1.519   4.771  0.0508 -0.3220 -0.1766
 9310SOL    HW139908   7.789   1.613   4.778 -1.0647 -0.4918 -0.2618
 9310SOL    HW239909   7.808   1.503   4.676 -0.9368 -0.5532 -0.1729
 9311SOL     OW39910   1.581   2.226   4.799  0.3444  0.3866  0.0965
 9311SOL    HW139911   1.571   2.233   4.704  0.2246 -0.7119  0.0141
 9311SOL    HW239912   1.564   2.314   4.832 -0.2771  0.6267 -0.8471
 9312SOL     OW39913   4.834   5.699   8.801 -0.0577  0.1502  0.3512
 9312SOL    HW139914   4.928   5.721   8.803 -0.0376  0.1816 -0.5418
 9312SOL    HW239915   4.821   5.658   8.715 -0.3343 -2.3161  1.4797
 9313SOL     OW39916   7.841   6.726   7.454  0.1696 -0.0959 -1.1205
 9313SOL    HW139917   7.931   6.698   7.441  0.7709  0.5037  1.1979
 9313SOL    HW239918   7.812   6.677   7.531  0.0943  2.9293  0.9405
 9314SOL     OW39919   6.219   0.999   7.343 -0.3692  0.4868  0.1099
 9314SOL    HW139920   6.173   0.999   7.259  1.1405  0.0994 -0.7572
 9314SOL    HW239921   6.224   0.907   7.367 -0.6930  0.5883  0.5724
 9315SOL     OW39922   5.550   5.209   9.959 -0.0149 -0.8520  0.0741
 9315SOL    HW139923   5.537   5.117   9.937  1.2177 -1.0318  0.0396
 9315SOL    HW239924   5.469   5.235  10.004  0.1947 -2.3546  1.3947
 9316SOL     OW39925   3.704   2.514   5.088  0.0050  0.3747 -0.0624
 9316SOL    HW139926   3.637   2.456   5.122  0.5452  0.1020  0.5652
 9316SOL    HW239927   3.785   2.483   5.129  1.3387 -2.1271 -4.0688
 9317SOL     OW39928   2.543   5.416   6.831  0.6493 -0.4546  0.2421
 9317SOL    HW139929   2.588   5.332   6.839 -0.1178 -1.0899 -1.4602
 9317SOL    HW239930   2.559   5.443   6.741 -0.2503  0.5417  0.3630
 9318SOL     OW39931   9.762   8.252   0.568 -0.5256  0.6910  0.4338
 9318SOL    HW139932   9.747   8.212   0.654  1.3301 -0.9840  0.0659
 9318SOL    HW239933   9.855   8.272   0.567  0.2431 -2.1364 -2.1739
 9319SOL     OW39934   0.703   7.665   8.980 -0.0855  0.1459 -0.1552
 9319SOL    HW139935   0.638   7.617   8.929 -1.0484 -0.0411  1.1871
 9319SOL    HW239936   0.724   7.607   9.053  0.0357  1.0436  0.5484
 9320SOL     OW39937   2.764   8.779  10.135  0.4352 -0.6607  0.0098
 9320SOL    HW139938   2.742   8.772  10.228 -2.4822  0.6512 -0.4913
 9320SOL    HW239939   2.762   8.689  10.103 -1.1311 -0.9024  0.7105
 9321SOL     OW39940   6.181   8.130   8.662  0.1809 -0.2834  0.6071
 9321SOL    HW139941   6.189   8.046   8.616 -0.3239 -0.7237  1.3027
 9321SOL    HW239942   6.244   8.187   8.618 -0.3903 -0.6325 -0.7488
 9322SOL     OW39943   8.777   9.954   8.691  0.0051 -0.2651 -0.2738
 9322SOL    HW139944   8.793   9.869   8.650 -0.8387 -0.6178  0.1135
 9322SOL    HW239945   8.732   9.933   8.772 -0.5359  0.5792 -0.3520
 9323SOL     OW39946   4.991   8.625   0.113  0.2388  0.4209 -0.1918
 9323SOL    HW139947   4.993   8.630   0.018  1.9694  1.1828 -0.1531
 9323SOL    HW239948   5.028   8.540   0.135  3.1766  1.5820 -0.1926
 9324SOL     OW39949   3.963   9.947   6.156 -0.0058  0.1584  0.4401
 9324SOL    HW139950   3.878   9.978   6.124 -0.9141 -0.4597  2.1061
 9324SOL    HW239951   3.942   9.868   6.206  0.9654  1.9966  4.0763
 9325SOL     OW39952   5.084   1.929   0.416 -0.3240  0.5304  0.1648
 9325SOL    HW139953   5.073   1.954   0.324 -0.8139  0.4048  0.1843
 9325SOL    HW239954   5.022   1.857   0.428 -0.0854  0.3852  0.5300
 9326SOL     OW39955   7.403   0.961   3.621  0.6814 -0.4853 -0.4842
 9326SOL    HW139956   7.498   0.966   3.610  0.6067 -0.3013 -1.0609
 9326SOL    HW239957   7.371   1.048   3.596  0.3197 -0.6839 -0.7217
 9327SOL     OW39958   9.284  10.172   0.698 -0.4410  0.4523  0.2887
 9327SOL    HW139959   9.250  10.160   0.787 -0.4839 -0.3034  0.1760
 9327SOL    HW239960   9.206  10.192   0.645 -0.6368 -0.6428  0.1459
 9328SOL     OW39961   3.886   4.300   5.253 -0.6549 -0.1740 -0.8042
 9328SOL    HW139962   3.880   4.205   5.257 -0.4381 -0.2136 -1.3585
 9328SOL    HW239963   3.799   4.331   5.279 -1.0294 -0.5480 -1.5787
 9329SOL     OW39964   8.094   3.910   5.028 -0.5794 -0.4674 -0.2011
 9329SOL    HW139965   8.114   4.003   5.029  3.6487 -1.1561 -1.2909
 9329SOL    HW239966   8.107   3.881   5.119 -0.7280 -0.2325 -0.1034
 9330SOL     OW39967   5.262   9.156   2.636 -0.2056  0.1197  0.5791
 9330SOL    HW139968   5.233   9.231   2.688  1.4750  0.4188  1.1223
 9330SOL    HW239969   5.194   9.090   2.651 -0.4331  0.6584  2.1063
 9331SOL     OW39970   7.116   3.724   0.304  0.0501  0.1846  0.1049
 9331SOL    HW139971   7.167   3.681   0.373  0.1031 -0.4180 -0.2992
 9331SOL    HW239972   7.024   3.705   0.327  0.0859 -0.5363 -0.3085
 9332SOL     OW39973   9.800   0.129   8.330 -0.3948 -0.2358  0.1919
 9332SOL    HW139974   9.838   0.041   8.338  1.9626  0.8030  1.6397
 9332SOL    HW239975   9.871   0.188   8.356 -0.8407  2.3301 -3.6041
 9333SOL     OW39976   4.617   0.301   3.261  0.1986 -0.0848  0.1520
 9333SOL    HW139977   4.613   0.363   3.334  1.1045 -0.2448  0.3537
 9333SOL    HW239978   4.706   0.267   3.264 -0.3138 -1.5127  0.1334
 9334SOL     OW39979   0.820   0.738   0.135  0.1665  0.1222 -0.7483
 9334SOL    HW139980   0.772   0.714   0.056 -2.0499 -0.5052  0.7010
 9334SOL    HW239981   0.774   0.693   0.206  2.4536  0.1645  0.8559
 9335SOL     OW39982   3.810   5.275   9.978  0.7915 -0.3802 -0.3262
 9335SOL    HW139983   3.765   5.191   9.978  0.1275 -0.0393  0.4254
 9335SOL    HW239984   3.821   5.297   9.885  0.4379 -1.0103 -0.5200
 9336SOL     OW39985   0.540   0.004   8.675 -0.0092  0.0931  0.4991
 9336SOL    HW139986   0.479  -0.021   8.744 -1.2341 -1.9093 -1.1745
 9336SOL    HW239987   0.622  -0.039   8.699 -0.8003 -1.7418  0.0903
 9337SOL     OW39988   8.517   9.291   9.729 -0.5325  0.4588  0.1716
 9337SOL    HW139989   8.518   9.368   9.672  0.2036  1.7841  1.8911
 9337SOL    HW239990   8.427   9.284   9.759 -0.9894 -0.4127 -1.3075
 9338SOL     OW39991   9.269   9.846   4.828  0.6921 -0.1552 -0.1692
 9338SOL    HW139992   9.216   9.768   4.841 -0.2585  0.3578 -0.8353
 9338SOL    HW239993   9.260   9.895   4.909  0.8774 -0.4938  0.0573
 9339SOL     OW39994   3.519   5.755   6.275 -0.1963  0.0303 -0.1763
 9339SOL    HW139995   3.536   5.664   6.249  1.4921  0.3988 -0.4445
 9339SOL    HW239996   3.466   5.791   6.204 -1.1057 -0.7968  0.0561
 9340SOL     OW39997   6.742   7.569   0.829 -0.1951  0.8591 -1.0343
 9340SOL    HW139998   6.672   7.603   0.774 -2.3016 -1.0079  0.3298
 9340SOL    HW239999   6.708   7.487   0.864  1.0558  1.7666  2.8119
 9341SOL     OW40000   2.686   9.301   1.501 -0.2230  0.0449 -0.4628
 9341SOL    HW140001   2.633   9.301   1.580 -0.7622 -0.3062 -0.8154
 9341SOL    HW240002   2.641   9.360   1.441  0.5890  0.8945 -0.2560
 9342SOL     OW40003   3.379   6.617   4.582  0.6839 -0.3796 -0.1211
 9342SOL    HW140004   3.345   6.703   4.555 -0.4627 -1.6443 -3.1276
 9342SOL    HW240005   3.330   6.596   4.661 -1.1628  0.5493 -0.9530
 9343SOL     OW40006   5.065   0.003   8.283  0.0314 -0.4085  0.4089
 9343SOL    HW140007   5.076  -0.082   8.327  2.4149 -0.0858  0.5405
 9343SOL    HW240008   5.128   0.060   8.326 -0.4632  1.0301 -0.7254
 9344SOL     OW40009   7.201   4.691   4.294  0.5419 -1.1041  0.0158
 9344SOL    HW140010   7.262   4.755   4.329 -0.9108 -0.5890  1.7455
 9344SOL    HW240011   7.226   4.681   4.202  1.9334  0.5747  0.1725
 9345SOL     OW40012   5.389   6.738   7.724  0.2406 -0.1104  0.1834
 9345SOL    HW140013   5.437   6.655   7.731  1.7155  0.6402 -0.4962
 9345SOL    HW240014   5.297   6.714   7.734  0.7820 -1.4908  2.4618
 9346SOL     OW40015   9.319   6.369   7.895 -0.3405  0.5819 -0.7914
 9346SOL    HW140016   9.259   6.368   7.970  0.7288 -2.8998  0.2054
 9346SOL    HW240017   9.390   6.427   7.922  0.3368 -1.0840  1.2450
 9347SOL     OW40018   7.003   7.038   9.826  0.7998 -0.0194  0.4964
 9347SOL    HW140019   7.092   7.045   9.792  0.7244 -1.1802  0.0181
 9347SOL    HW240020   6.956   7.112   9.786  1.4092  0.2850  0.3347
 9348SOL     OW40021   7.113   0.197   1.081  0.2469 -0.0102  0.2839
 9348SOL    HW140022   7.085   0.109   1.055  0.1627  0.3493 -0.8502
 9348SOL    HW240023   7.209   0.192   1.079  0.3141  0.7244 -2.7254
 9349SOL     OW40024   9.285   5.356   8.636 -0.3598  0.3262  0.1715
 9349SOL    HW140025   9.305   5.273   8.592 -0.9061 -1.9518  3.8375
 9349SOL    HW240026   9.371   5.395   8.655 -0.0943  0.5032 -1.2674
 9350SOL     OW40027   5.929   8.139   8.561 -0.2892  0.2563 -0.0061
 9350SOL    HW140028   5.974   8.140   8.646  0.7800  1.5617 -0.5645
 9350SOL    HW240029   5.999   8.139   8.497 -1.0954 -0.4475 -0.9250
 9351SOL     OW40030   1.208   2.104   6.221 -0.2022 -0.6098 -0.3130
 9351SOL    HW140031   1.149   2.045   6.175  0.1041  0.2359 -1.8505
 9351SOL    HW240032   1.278   2.122   6.157 -0.1287  1.1578  0.2295
 9352SOL     OW40033   7.038   0.765   9.557 -0.5425  0.2273  0.1134
 9352SOL    HW140034   7.017   0.710   9.481 -0.7363 -1.0533  1.0680
 9352SOL    HW240035   7.092   0.710   9.613  0.1698  1.3893  0.6145
 9353SOL     OW40036   1.696   1.860   4.665  0.0692  0.1491 -0.0274
 9353SOL    HW140037   1.669   1.775   4.630  0.6890  0.0468 -0.2665
 9353SOL    HW240038   1.628   1.882   4.729 -0.6892 -0.0002 -0.7629
 9354SOL     OW40039   0.666   2.011   1.078  0.3296  0.2562 -0.1873
 9354SOL    HW140040   0.726   1.986   1.008  0.9259  3.9058 -1.1985
 9354SOL    HW240041   0.717   2.001   1.158  0.5729 -1.3238 -0.5082
 9355SOL     OW40042   2.502   4.066   7.351  0.0677  0.0891  0.6426
 9355SOL    HW140043   2.541   3.992   7.397 -0.3435 -0.4284  0.1716
 9355SOL    HW240044   2.577   4.120   7.326  0.3424  0.0536  1.3457
 9356SOL     OW40045   7.567   8.711   5.237 -0.1244  0.2193  0.0913
 9356SOL    HW140046   7.533   8.631   5.277  0.2041  0.1216  0.1753
 9356SOL    HW240047   7.523   8.782   5.284  0.1385  0.1019  0.5133
 9357SOL     OW40048   0.944   9.654  10.196 -0.0394 -0.3756  0.0994
 9357SOL    HW140049   0.878   9.715  10.229 -0.6403 -1.1448  0.3393
 9357SOL    HW240050   0.942   9.666  10.101  1.1454  1.2758  0.2149
 9358SOL     OW40051   2.457   9.670  10.308  0.0496 -0.1504  0.1415
 9358SOL    HW140052   2.374   9.648  10.265  0.0675 -0.4935  0.2845
 9358SOL    HW240053   2.439   9.659  10.401 -0.1981  1.2672  0.2846
 9359SOL     OW40054   7.294   4.957   8.104  0.2085  0.1640 -0.7167
 9359SOL    HW140055   7.331   4.928   8.020  1.1091  1.6598 -0.8684
 9359SOL    HW240056   7.327   5.046   8.115 -1.0028  0.4805  0.5887
 9360SOL     OW40057   8.718   8.395   6.181 -0.4089  0.3747 -0.1680
 9360SOL    HW140058   8.696   8.483   6.209 -2.3570  0.1794 -0.9328
 9360SOL    HW240059   8.800   8.375   6.226 -0.4011  2.2213  0.7135
 9361SOL     OW40060   3.574   6.915   9.946  0.2834 -0.0218 -0.1244
 9361SOL    HW140061   3.512   6.850   9.912 -0.3140  1.0965 -1.2610
 9361SOL    HW240062   3.648   6.863   9.978 -1.5896 -1.4563  2.1577
 9362SOL     OW40063   2.474   6.771   1.813  0.0213 -0.5243 -0.3794
 9362SOL    HW140064   2.379   6.768   1.821 -0.1324 -2.5360 -2.0671
 9362SOL    HW240065   2.503   6.818   1.891 -2.3446  0.3093  0.0893
 9363SOL     OW40066   1.954   8.633   1.464 -0.7415 -0.1896  0.0436
 9363SOL    HW140067   1.995   8.716   1.439  1.0744 -0.7472  0.9667
 9363SOL    HW240068   1.861   8.648   1.451 -0.5624  2.2786  0.9109
 9364SOL     OW40069   1.055   3.638   1.674  0.6608  0.2811 -0.4722
 9364SOL    HW140070   0.991   3.694   1.717  1.7989  0.8733  0.5147
 9364SOL    HW240071   1.049   3.554   1.719  0.6318  0.3592 -0.3315
 9365SOL     OW40072   6.626   6.811   8.575  0.3308  0.0488 -0.3102
 9365SOL    HW140073   6.712   6.824   8.617 -0.0573  0.6479  0.3248
 9365SOL    HW240074   6.591   6.900   8.566 -1.4588 -0.3295  2.1084
 9366SOL     OW40075   9.685   2.371   8.698 -0.0647 -0.2085 -0.1440
 9366SOL    HW140076   9.593   2.368   8.726 -0.1481 -2.1704 -0.4808
 9366SOL    HW240077   9.703   2.464   8.685 -1.7179  0.2896  0.8524
 9367SOL     OW40078   4.564   8.492   8.947 -0.4170 -0.4553 -0.3546
 9367SOL    HW140079   4.533   8.402   8.959  0.9945 -1.5993 -3.9368
 9367SOL    HW240080   4.513   8.525   8.873 -0.5863  1.5833  0.6222
 9368SOL     OW40081   4.228   1.399   4.921  0.1954  0.1354  0.6584
 9368SOL    HW140082   4.216   1.493   4.908  0.9027 -0.0597 -1.9504
 9368SOL    HW240083   4.188   1.359   4.843  1.9801 -1.5666  0.5529
 9369SOL     OW40084   7.868   1.717   4.437  0.4650 -0.5064 -0.0408
 9369SOL    HW140085   7.836   1.627   4.427  0.4180 -0.3892 -1.0238
 9369SOL    HW240086   7.956   1.715   4.400  0.2609 -0.0335 -0.5771
 9370SOL     OW40087   8.748   1.708   6.000 -0.0236  0.3093 -0.1076
 9370SOL    HW140088   8.806   1.747   6.065  0.0594  1.4007 -0.8175
 9370SOL    HW240089   8.807   1.666   5.937 -0.0902 -0.3650  0.2659
 9371SOL     OW40090   4.943   2.207   5.382 -0.2450  0.7410  0.6720
 9371SOL    HW140091   4.941   2.134   5.320 -2.5192 -0.6283  2.2155
 9371SOL    HW240092   4.971   2.167   5.464  1.8858  2.3638  0.8122
 9372SOL     OW40093   4.549   1.191   3.979 -0.2503  0.1308  0.0354
 9372SOL    HW140094   4.538   1.105   3.939  1.4135 -0.3711  0.5469
 9372SOL    HW240095   4.556   1.173   4.073  0.3278  0.7903  0.1291
 9373SOL     OW40096   0.066   9.574   9.014 -0.3453 -0.1178  0.0019
 9373SOL    HW140097   0.063   9.479   9.004  1.5343 -0.1738 -0.2912
 9373SOL    HW240098   0.018   9.607   8.938 -0.6718 -0.8181 -0.1049
 9374SOL     OW40099   2.524   7.666   9.541  0.3049 -0.3702  0.1268
 9374SOL    HW140100   2.565   7.751   9.527  0.7169 -0.4210  0.9397
 9374SOL    HW240101   2.432   7.678   9.516  1.1092 -0.7421 -3.5642
 9375SOL     OW40102   7.258   0.234   2.018 -0.4708 -0.0451  0.4191
 9375SOL    HW140103   7.178   0.287   2.013  0.7153  1.9360  1.4207
 9375SOL    HW240104   7.236   0.163   2.079 -1.5778  0.1850  0.3176
 9376SOL     OW40105   5.436   1.896   0.201  0.9197 -0.5445 -0.4458
 9376SOL    HW140106   5.412   1.909   0.293  3.3532 -0.2862  0.2355
 9376SOL    HW240107   5.463   1.804   0.197 -0.9389 -1.0973 -1.4053
 9377SOL     OW40108   3.515   4.324   0.152  0.1396  0.0416  0.9597
 9377SOL    HW140109   3.458   4.315   0.229 -0.7236  0.0555  0.3346
 9377SOL    HW240110   3.505   4.242   0.104 -1.1841  0.9318 -0.3568
 9378SOL     OW40111   5.417   8.935   4.650  0.3524  0.4149  0.0453
 9378SOL    HW140112   5.387   8.965   4.736  2.4252  1.8644  0.3325
 9378SOL    HW240113   5.450   9.014   4.607 -0.1340 -0.3776 -1.9033
 9379SOL     OW40114   3.220   9.460   6.657  0.2790  0.4937 -0.3714
 9379SOL    HW140115   3.237   9.508   6.576  1.3143 -0.6978 -0.8832
 9379SOL    HW240116   3.290   9.486   6.716  0.3404  0.2660 -0.3455
 9380SOL     OW40117   4.517   9.140   8.863  0.2005 -0.2393 -0.2417
 9380SOL    HW140118   4.496   9.203   8.794  0.6805 -0.3410 -0.4852
 9380SOL    HW240119   4.488   9.182   8.944  1.7766  0.9034 -0.2356
 9381SOL     OW40120   0.008   4.687   7.662  0.0439 -0.3303  0.2860
 9381SOL    HW140121   0.066   4.763   7.660  0.7837 -0.8818 -1.6659
 9381SOL    HW240122  -0.031   4.684   7.575  1.9457 -3.5407 -0.6470
 9382SOL     OW40123   1.662   0.112   6.958  0.0288  0.0405  0.3164
 9382SOL    HW140124   1.704   0.077   6.879 -0.7515 -1.0744  0.3658
 9382SOL    HW240125   1.667   0.040   7.021 -2.1380 -0.2465  0.2396
 9383SOL     OW40126   5.447   1.742   6.086 -0.5692 -0.2759 -0.1717
 9383SOL    HW140127   5.363   1.715   6.049 -0.3630  0.2500 -1.0598
 9383SOL    HW240128   5.509   1.733   6.013 -0.0260  0.1879  0.2229
 9384SOL     OW40129   5.369   9.099   2.349  0.1534  0.0009 -0.5125
 9384SOL    HW140130   5.327   9.100   2.435  0.0245 -0.5415 -0.5688
 9384SOL    HW240131   5.303   9.137   2.290  0.3444  0.6327 -0.3323
 9385SOL     OW40132   3.702   0.114   0.589  0.1480  0.1133  0.2653
 9385SOL    HW140133   3.625   0.171   0.581  0.7356  0.9643  0.5714
 9385SOL    HW240134   3.725   0.093   0.499  0.9420  1.7679  0.0393
 9386SOL     OW40135   1.832   6.597   4.466 -0.4157  0.3579 -0.4258
 9386SOL    HW140136   1.754   6.545   4.487 -0.1784 -0.7400 -2.0737
 9386SOL    HW240137   1.896   6.572   4.532 -0.4668 -1.1330 -0.8965
 9387SOL     OW40138   7.897   9.050   8.113 -0.7975 -0.0571 -0.2856
 9387SOL    HW140139   7.816   9.092   8.085 -0.4611  0.3712 -0.6270
 9387SOL    HW240140   7.869   8.981   8.173 -1.6509 -1.7156 -2.4401
 9388SOL     OW40141   7.835   9.368   9.079 -0.0926 -0.3773 -0.0279
 9388SOL    HW140142   7.813   9.300   9.143 -0.5083 -0.7944 -0.6016
 9388SOL    HW240143   7.782   9.443   9.104 -0.4887 -0.6430 -0.0581
 9389SOL     OW40144   4.541   9.968   5.492 -0.5387  0.5138  0.0025
 9389SOL    HW140145   4.624  10.014   5.484 -0.2222  0.0694  0.5953
 9389SOL    HW240146   4.484  10.029   5.539 -0.4390  0.6942 -0.1113
 9390SOL     OW40147   5.225   1.732   2.791  0.6685 -0.2632  0.0504
 9390SOL    HW140148   5.130   1.732   2.806  0.2904 -1.7459 -1.9740
 9390SOL    HW240149   5.241   1.813   2.742  0.3870 -0.1883  0.0774
 9391SOL     OW40150   3.190   6.001   6.749  0.0447 -0.8986  0.1391
 9391SOL    HW140151   3.221   5.941   6.682 -1.4735 -0.6864 -0.7921
 9391SOL    HW240152   3.095   6.000   6.741 -0.0555  1.9537 -0.2426
 9392SOL     OW40153   9.860   4.804   1.819  0.2079  0.3781  0.2787
 9392SOL    HW140154   9.912   4.727   1.796 -2.3806 -1.1547 -0.8208
 9392SOL    HW240155   9.832   4.788   1.909 -2.1703 -1.2255 -0.6346
 9393SOL     OW40156   9.394   4.672   9.567  0.3312  0.0973  0.3450
 9393SOL    HW140157   9.300   4.679   9.552  0.2125 -1.0858  0.4234
 9393SOL    HW240158   9.434   4.721   9.494 -0.3284 -0.6280 -0.5248
 9394SOL     OW40159   2.974   0.020   4.564 -0.2348 -0.7236 -0.1018
 9394SOL    HW140160   2.983  -0.016   4.476  2.1567 -1.4776  0.3790
 9394SOL    HW240161   3.047  -0.018   4.613 -1.2185  0.0613  2.0901
 9395SOL     OW40162   7.538   1.378   0.994 -0.6500  0.1425  0.4477
 9395SOL    HW140163   7.458   1.334   0.966 -0.1177 -0.4314 -0.2109
 9395SOL    HW240164   7.540   1.460   0.945 -1.0255  0.3404  0.7577
 9396SOL     OW40165   3.137   6.649   5.014  0.1360  0.2311 -0.3720
 9396SOL    HW140166   3.091   6.711   5.071  0.8365  0.8289 -0.4333
 9396SOL    HW240167   3.230   6.670   5.026  0.3336 -0.1668 -1.1288
 9397SOL     OW40168   0.655   0.875   6.592 -0.2783  0.1051  0.4424
 9397SOL    HW140169   0.605   0.825   6.657  0.2666 -0.7846  0.1892
 9397SOL    HW240170   0.590   0.932   6.552 -1.8899 -3.0521 -1.9543
 9398SOL     OW40171   0.346   7.614   1.997 -0.0791 -0.2259 -0.2230
 9398SOL    HW140172   0.421   7.619   2.056 -0.6072  0.7714  0.3883
 9398SOL    HW240173   0.279   7.569   2.048 -0.2657 -0.0983 -0.3544
 9399SOL     OW40174   5.623   9.198   6.518  0.7940  0.6807  0.2423
 9399SOL    HW140175   5.619   9.282   6.474  0.5128  0.7831  0.4645
 9399SOL    HW240176   5.641   9.219   6.609 -0.5649  0.5804  0.5595
 9400SOL     OW40177   4.651   2.730   9.795 -0.3003  0.3025  0.0128
 9400SOL    HW140178   4.557   2.725   9.776 -0.6082  0.9402  1.2519
 9400SOL    HW240179   4.686   2.789   9.728 -1.0654  1.2725  0.4442
 9401SOL     OW40180   0.764  10.220   8.695 -0.0824  0.2363 -0.2041
 9401SOL    HW140181   0.814  10.178   8.766 -0.1019  0.1183 -0.2587
 9401SOL    HW240182   0.831  10.244   8.631 -0.0955  0.0602 -0.2863
 9402SOL     OW40183   3.880   4.027   7.516  0.2421  0.9495  0.1213
 9402SOL    HW140184   3.968   3.991   7.506  0.6196  2.3176 -2.2548
 9402SOL    HW240185   3.828   3.954   7.548  1.7364 -0.6025 -0.8176
 9403SOL     OW40186   0.505   0.506   6.035  0.5492  0.3737 -0.3746
 9403SOL    HW140187   0.528   0.466   5.951 -1.7266  0.4726 -1.1192
 9403SOL    HW240188   0.472   0.593   6.013 -2.5774 -0.5312  0.2224
 9404SOL     OW40189   0.324   4.990   1.852  0.2321 -0.2682 -0.0836
 9404SOL    HW140190   0.273   5.070   1.839  0.4873 -0.3247 -1.6973
 9404SOL    HW240191   0.383   5.010   1.924  1.8203  1.8320 -1.8221
 9405SOL     OW40192   2.780   6.255   3.138  0.1234 -0.4295  0.1045
 9405SOL    HW140193   2.735   6.182   3.095 -0.0608 -0.8209  0.9435
 9405SOL    HW240194   2.869   6.223   3.152 -0.2731 -0.9834  1.5717
 9406SOL     OW40195   4.018   6.166   4.620  0.2449  0.2953 -0.0421
 9406SOL    HW140196   3.964   6.223   4.564 -1.7818 -0.4875  1.0104
 9406SOL    HW240197   4.027   6.214   4.702  0.8434  0.2528 -0.0819
 9407SOL     OW40198   7.152   0.109   7.930 -0.0676 -0.0547  0.3016
 9407SOL    HW140199   7.225   0.126   7.871 -0.4731  0.2271 -0.1283
 9407SOL    HW240200   7.104   0.192   7.934  0.7183  0.3595  2.1266
 9408SOL     OW40201   0.917   8.893   5.760 -0.6422  0.1630  0.3295
 9408SOL    HW140202   0.961   8.921   5.840 -0.0771  1.4745 -0.3980
 9408SOL    HW240203   0.939   8.800   5.751  0.5862  0.3728  0.8896
 9409SOL     OW40204   5.698  10.331   2.604 -0.2401  0.0745  0.7744
 9409SOL    HW140205   5.772  10.279   2.637 -0.7488 -0.6671  0.7849
 9409SOL    HW240206   5.623  10.299   2.654 -0.4113  1.5719  1.5363
 9410SOL     OW40207   7.627   6.927   1.494  0.0425 -0.6384 -0.6033
 9410SOL    HW140208   7.718   6.916   1.468  1.0774 -0.8764  2.6067
 9410SOL    HW240209   7.585   6.967   1.418  3.0714  0.5419 -1.8363
 9411SOL     OW40210   5.417   5.611   2.852  0.6180 -0.4795 -0.7414
 9411SOL    HW140211   5.488   5.587   2.911 -1.3161  0.7379  2.3173
 9411SOL    HW240212   5.413   5.706   2.856  1.3056 -0.1825 -4.1141
 9412SOL     OW40213   6.195   4.732   5.831  0.5097 -0.6503  0.5144
 9412SOL    HW140214   6.277   4.751   5.784  1.0836 -2.2781  0.7825
 9412SOL    HW240215   6.222   4.676   5.904 -0.7557 -0.6184  1.0252
 9413SOL     OW40216   2.264   2.791   8.791 -0.0323 -0.7450  0.4905
 9413SOL    HW140217   2.265   2.856   8.861  0.6671 -1.0662  0.7796
 9413SOL    HW240218   2.229   2.712   8.831 -0.1694 -0.7692  0.3273
 9414SOL     OW40219   2.124  10.138   5.348  0.3650 -0.4415 -0.4056
 9414SOL    HW140220   2.088  10.107   5.432  1.6822 -0.2566  0.2515
 9414SOL    HW240221   2.132  10.059   5.295 -0.9266 -0.4976 -0.5603
 9415SOL     OW40222   2.250   5.931   5.299 -0.0641 -0.0169 -0.3061
 9415SOL    HW140223   2.334   5.945   5.342  0.4489 -2.2272 -0.4786
 9415SOL    HW240224   2.244   6.001   5.233  0.6345  1.4256  1.0834
 9416SOL     OW40225   8.490   6.057   6.109 -0.6013 -0.1067 -0.0461
 9416SOL    HW140226   8.424   6.126   6.111 -0.1180  0.3400  0.5054
 9416SOL    HW240227   8.487   6.018   6.196  1.2325  1.2149  0.6520
 9417SOL     OW40228   3.077   6.459   4.561  0.5010 -0.1032  0.0515
 9417SOL    HW140229   3.140   6.394   4.530 -0.9128 -2.0777  1.0501
 9417SOL    HW240230   3.112   6.489   4.644  1.9868  1.7465 -1.1612
 9418SOL     OW40231  10.364   3.031   1.031  0.6214  0.1786  0.0237
 9418SOL    HW140232  10.276   2.998   1.011  0.8175  0.2691 -1.0383
 9418SOL    HW240233  10.351   3.085   1.109 -0.3801  0.6376 -0.4325
 9419SOL     OW40234   0.532   5.435   1.428 -0.0661  0.2552  0.4287
 9419SOL    HW140235   0.556   5.381   1.503 -0.4611  1.1645  1.2233
 9419SOL    HW240236   0.615   5.468   1.395  0.1271 -0.3328  0.3170
 9420SOL     OW40237   5.079   4.572   5.454 -0.1267  0.6865 -0.0336
 9420SOL    HW140238   5.073   4.667   5.457  0.5176  0.7159  1.5191
 9420SOL    HW240239   5.111   4.552   5.366  0.6489  1.9833 -0.0720
 9421SOL     OW40240   7.833   0.250   2.190 -0.0038 -0.3579 -0.1995
 9421SOL    HW140241   7.887   0.329   2.182 -0.7066  0.0236 -1.5438
 9421SOL    HW240242   7.785   0.262   2.272  1.1949 -0.2355  0.5036
 9422SOL     OW40243   2.395   9.657   4.978 -0.0503 -0.2595 -0.2561
 9422SOL    HW140244   2.389   9.744   4.938 -0.0183 -0.5287 -0.8498
 9422SOL    HW240245   2.457   9.609   4.924  1.7099  0.0477  1.3832
 9423SOL     OW40246   0.819   6.913   1.470 -0.0209  0.1591  0.0453
 9423SOL    HW140247   0.738   6.864   1.478  0.4996 -0.6737  0.4086
 9423SOL    HW240248   0.866   6.895   1.552  0.3519  0.9602  0.0246
 9424SOL     OW40249   6.008   9.675   4.475  0.1522  0.1995  0.0775
 9424SOL    HW140250   6.020   9.620   4.398  0.2114  0.3355 -0.0124
 9424SOL    HW240251   5.916   9.666   4.498 -0.1462  1.0558 -0.7080
 9425SOL     OW40252   8.790   6.635   5.384 -0.0370  0.0600  0.1011
 9425SOL    HW140253   8.789   6.730   5.373 -1.5602  0.1071  0.3638
 9425SOL    HW240254   8.714   6.604   5.334 -0.0528 -0.9247  0.7049
 9426SOL     OW40255   7.358   6.203   7.520 -0.2687  0.1464 -0.5682
 9426SOL    HW140256   7.381   6.290   7.489 -1.9862  0.7394 -0.2781
 9426SOL    HW240257   7.437   6.151   7.507  0.6583  1.6419 -1.1137
 9427SOL     OW40258   3.453   3.298   8.117  0.0028 -0.2195  0.1109
 9427SOL    HW140259   3.408   3.223   8.080  0.9395 -0.8389  0.2098
 9427SOL    HW240260   3.503   3.263   8.191  0.6830  0.4324 -0.0221
 9428SOL     OW40261   4.747   8.788   0.111 -0.1157 -0.5970 -0.0322
 9428SOL    HW140262   4.842   8.773   0.113  0.0616  0.5023  1.0875
 9428SOL    HW240263   4.735   8.853   0.043  0.0597 -0.0655  0.4344
 9429SOL     OW40264   4.570   0.861   4.030 -0.1601 -0.0835  0.3817
 9429SOL    HW140265   4.606   0.821   4.109 -0.3710 -2.8203 -0.8129
 9429SOL    HW240266   4.475   0.859   4.043 -0.1621  0.2638  0.4240
 9430SOL     OW40267   9.335   7.534   9.050 -0.1727  0.0808  0.1036
 9430SOL    HW140268   9.369   7.517   8.962 -1.7322 -2.3321 -0.1470
 9430SOL    HW240269   9.264   7.470   9.060 -1.4632  1.7347  2.3206
 9431SOL     OW40270   8.533  10.173   1.415 -0.0620  0.2348 -0.5571
 9431SOL    HW140271   8.509  10.143   1.503 -1.9398 -0.6284 -1.2992
 9431SOL    HW240272   8.624  10.147   1.406 -0.3380 -1.3077  0.5000
 9432SOL     OW40273   4.781   6.273   5.588 -0.1249 -0.2199  0.3772
 9432SOL    HW140274   4.732   6.248   5.667 -0.7196 -0.2930 -0.0109
 9432SOL    HW240275   4.714   6.289   5.522  0.3047  1.0756  0.2283
 9433SOL     OW40276   9.366   3.509   8.833  0.0724 -0.6943  0.0977
 9433SOL    HW140277   9.453   3.468   8.835  0.6560 -0.0214 -3.6790
 9433SOL    HW240278   9.376   3.588   8.886  2.3341  0.2124 -1.5160
 9434SOL     OW40279   7.723   5.997   8.854  0.0151 -0.3026 -0.1929
 9434SOL    HW140280   7.769   5.975   8.935  0.5120 -0.9718 -0.6470
 9434SOL    HW240281   7.713   6.092   8.857  0.7744 -0.2298  0.2648
 9435SOL     OW40282   0.742   4.237   7.711 -0.2564  0.2632  0.5536
 9435SOL    HW140283   0.656   4.210   7.743 -0.8288  1.5863  0.1907
 9435SOL    HW240284   0.741   4.332   7.718  0.3385  0.4700 -1.5430
 9436SOL     OW40285   2.886   2.813   9.775 -0.2068 -0.2443 -0.3583
 9436SOL    HW140286   2.907   2.904   9.755  0.0032 -0.2118 -0.0082
 9436SOL    HW240287   2.807   2.794   9.724 -1.8447  0.9464  1.5929
 9437SOL     OW40288   5.118   1.420   0.935  0.1719  0.1945  0.1139
 9437SOL    HW140289   5.069   1.423   0.853 -0.3164 -0.7529  0.3577
 9437SOL    HW240290   5.131   1.512   0.959 -1.3119  0.4686 -0.0611
 9438SOL     OW40291   7.208   4.824   9.193 -0.1127 -0.0609 -0.3007
 9438SOL    HW140292   7.192   4.908   9.236  0.7724  0.5558 -1.1301
 9438SOL    HW240293   7.239   4.848   9.106 -1.2397 -1.2730 -1.0729
 9439SOL     OW40294   9.753  10.294   2.423 -0.4989  0.4813  0.3017
 9439SOL    HW140295   9.766  10.215   2.370 -1.6590  0.7130 -0.3423
 9439SOL    HW240296   9.804  10.362   2.379  0.7331  0.0573  1.0118
 9440SOL     OW40297   8.456   6.211   8.408 -0.7306 -0.1199  0.2786
 9440SOL    HW140298   8.386   6.276   8.399 -1.8097 -1.1621  0.9228
 9440SOL    HW240299   8.448   6.156   8.330  0.3294  0.6174 -0.3822
 9441SOL     OW40300   6.440   0.105   3.209 -0.3099 -0.7771 -0.2453
 9441SOL    HW140301   6.480   0.043   3.269  0.4713 -0.5928 -0.5588
 9441SOL    HW240302   6.486   0.092   3.126  0.2194  0.5260 -0.1965
 9442SOL     OW40303   6.882  10.280   1.804  0.0446 -0.3716 -0.0177
 9442SOL    HW140304   6.908  10.331   1.880  0.6851 -1.6394  0.6532
 9442SOL    HW240305   6.958  10.224   1.787 -0.8314 -1.4695 -0.3906
 9443SOL     OW40306   2.957   4.454   0.425 -0.1563  0.7681  0.5453
 9443SOL    HW140307   3.010   4.468   0.504 -0.6748  0.0686  1.0272
 9443SOL    HW240308   2.883   4.401   0.455  0.6505 -1.2378 -0.7745
 9444SOL     OW40309   7.204   1.241   9.045  0.2171 -0.1941  0.1105
 9444SOL    HW140310   7.166   1.265   8.960 -1.4027 -1.0125  0.5592
 9444SOL    HW240311   7.140   1.272   9.109  0.3444 -1.5346  0.9126
 9445SOL     OW40312   7.593   1.788   0.335 -0.1512  0.1283 -0.1218
 9445SOL    HW140313   7.622   1.871   0.371 -1.4114  1.2374 -1.5318
 9445SOL    HW240314   7.566   1.736   0.411 -0.3513  1.4148  0.7067
 9446SOL     OW40315   3.055   4.180   6.841 -0.0052  0.2206  0.8253
 9446SOL    HW140316   2.983   4.131   6.881 -0.6548  1.2697  0.9929
 9446SOL    HW240317   3.033   4.183   6.748 -0.0899  0.4048  0.8521
 9447SOL     OW40318   0.321   2.711   2.031  0.2140  0.1157  0.4226
 9447SOL    HW140319   0.376   2.634   2.016  3.5977  2.8038 -2.9051
 9447SOL    HW240320   0.307   2.749   1.944 -1.4788  3.1611  1.8349
 9448SOL     OW40321   9.912   4.849   4.099  0.4228 -0.3410  0.2507
 9448SOL    HW140322   9.832   4.876   4.143  0.9294 -0.2234  1.1232
 9448SOL    HW240323   9.887   4.840   4.007 -0.1701  1.4270  0.1938
 9449SOL     OW40324  10.132   0.356  10.365  0.4535  0.1548 -0.8175
 9449SOL    HW140325  10.075   0.285  10.397 -0.1024  0.6644 -0.6464
 9449SOL    HW240326  10.209   0.351  10.421 -0.7702  1.4295  1.1023
 9450SOL     OW40327   9.817   4.240   9.081  0.3457  0.1483  0.2238
 9450SOL    HW140328   9.911   4.243   9.067  0.1941 -1.7532 -1.8460
 9450SOL    HW240329   9.779   4.274   9.000 -0.7332 -0.1739  0.5668
 9451SOL     OW40330   9.372   4.267   3.589  0.5650 -0.5736  0.3260
 9451SOL    HW140331   9.389   4.256   3.495  1.2628 -3.8813  0.6905
 9451SOL    HW240332   9.350   4.178   3.619  2.0742  0.0268  3.6147
 9452SOL     OW40333   2.144   2.032   3.688  0.1959  0.3311  0.3030
 9452SOL    HW140334   2.224   2.046   3.739 -0.8976  1.6432  1.7427
 9452SOL    HW240335   2.073   2.063   3.745 -1.1615  1.2591 -1.7624
 9453SOL     OW40336   8.516   8.067   1.106 -0.0292  0.6308 -0.7450
 9453SOL    HW140337   8.436   8.111   1.135 -0.7385  0.3407 -2.1607
 9453SOL    HW240338   8.573   8.067   1.183 -1.8330 -0.1910  0.6593
 9454SOL     OW40339   8.535   1.015   5.263  0.1427  0.0727  0.1764
 9454SOL    HW140340   8.549   1.047   5.352  1.0367  0.7100 -0.1861
 9454SOL    HW240341   8.525   1.094   5.210  1.5365 -0.2368 -0.5923
 9455SOL     OW40342   8.256   1.743   7.440  0.3420  0.2992 -0.0480
 9455SOL    HW140343   8.224   1.753   7.530  0.0907  2.3509 -0.3163
 9455SOL    HW240344   8.311   1.820   7.426  0.1256  0.1775 -1.7545
 9456SOL     OW40345   9.925   8.670   7.863 -0.2549 -0.5812 -0.0882
 9456SOL    HW140346  10.004   8.667   7.809  1.1457 -0.8645  1.8672
 9456SOL    HW240347   9.951   8.628   7.946 -2.9550 -2.1991  0.0433
 9457SOL     OW40348   2.878   1.739   8.637 -0.0462  0.9407  0.2813
 9457SOL    HW140349   2.973   1.727   8.635 -0.1387 -0.0981  1.3170
 9457SOL    HW240350   2.849   1.714   8.550  0.3454 -1.5083  0.7986
 9458SOL     OW40351   1.650   2.383   3.349 -0.1422 -0.8071  0.7008
 9458SOL    HW140352   1.736   2.362   3.385  0.3609 -0.4857 -0.2647
 9458SOL    HW240353   1.662   2.380   3.254 -1.3130 -1.1907  0.5463
 9459SOL     OW40354   5.011   6.667   4.018  0.1421 -0.5000  0.1017
 9459SOL    HW140355   5.056   6.709   4.092  0.9034  0.7280 -1.0235
 9459SOL    HW240356   4.933   6.721   4.004 -0.4919 -1.2768  0.5810
 9460SOL     OW40357   4.840   1.730   1.133  0.0427 -0.4232 -0.1870
 9460SOL    HW140358   4.817   1.652   1.184 -0.6739 -1.1114 -1.5033
 9460SOL    HW240359   4.936   1.728   1.128 -0.0067 -2.0349 -1.3539
 9461SOL     OW40360  10.339   0.922   5.669  0.8753 -0.4516 -0.0281
 9461SOL    HW140361  10.295   0.974   5.735  1.8702 -0.8790  1.0120
 9461SOL    HW240362  10.279   0.850   5.649  0.3546 -0.0313  0.0126
 9462SOL     OW40363   8.120   2.511   0.181 -0.2947 -0.2554  0.3473
 9462SOL    HW140364   8.188   2.447   0.202  0.2618 -0.3398 -1.4868
 9462SOL    HW240365   8.114   2.567   0.258 -1.1156 -2.7468  2.2051
 9463SOL     OW40366   0.452   3.809   7.236 -0.2381  0.0760 -0.7377
 9463SOL    HW140367   0.482   3.828   7.147 -1.2463  2.0689 -0.7071
 9463SOL    HW240368   0.510   3.860   7.293 -1.5933  1.4145 -0.4917
 9464SOL     OW40369   1.150   4.415   5.845  0.1407  0.3984 -0.0867
 9464SOL    HW140370   1.102   4.465   5.911  1.4633  1.7607 -0.1031
 9464SOL    HW240371   1.223   4.375   5.893  0.8674  1.0498 -0.6261
 9465SOL     OW40372   6.645   0.559   9.446 -0.2865 -0.1358  0.2843
 9465SOL    HW140373   6.719   0.500   9.461 -2.1033 -2.2963  1.3888
 9465SOL    HW240374   6.644   0.571   9.351  0.5425 -1.3950  0.0844
 9466SOL     OW40375  10.333   7.538   5.287  0.1856  0.6176  0.0168
 9466SOL    HW140376  10.386   7.481   5.342  1.1322 -0.8106 -2.2586
 9466SOL    HW240377  10.381   7.621   5.284  1.5222 -0.1512 -0.7294
 9467SOL     OW40378   2.852   5.839   7.635 -0.2295  0.2781  0.2513
 9467SOL    HW140379   2.858   5.913   7.574 -2.0012  0.9814  0.8622
 9467SOL    HW240380   2.943   5.819   7.658  0.5903 -0.4456 -3.0823
 9468SOL     OW40381   1.179   2.775   8.360  0.2558  0.0899 -0.2629
 9468SOL    HW140382   1.242   2.827   8.310 -0.4219 -0.5395 -1.8285
 9468SOL    HW240383   1.107   2.759   8.299  0.2381 -2.3123  0.3048
 9469SOL     OW40384   9.168   2.886   8.024 -0.2997  0.1831 -0.3967
 9469SOL    HW140385   9.119   2.849   7.951  0.3943 -2.3740  0.3274
 9469SOL    HW240386   9.258   2.853   8.011  0.2491  1.2196  0.6033
 9470SOL     OW40387   9.027   8.004   9.752  0.5113 -0.2988 -0.0768
 9470SOL    HW140388   8.961   8.073   9.762 -1.2598 -1.9195 -0.0935
 9470SOL    HW240389   9.031   7.962   9.838 -1.8314 -3.0144 -1.1145
 9471SOL     OW40390   4.416   7.994   6.980  0.2502 -0.2493 -0.2185
 9471SOL    HW140391   4.380   8.075   6.945  1.1304  0.7626  1.0630
 9471SOL    HW240392   4.375   7.985   7.066  1.7051  0.0227  0.5486
 9472SOL     OW40393   7.836   6.488   2.178 -0.1495  0.1022 -0.8831
 9472SOL    HW140394   7.778   6.442   2.238  0.3103  0.5379 -0.0806
 9472SOL    HW240395   7.890   6.544   2.235 -0.3874  1.2894 -1.7809
 9473SOL     OW40396   4.791   0.474   6.907  0.4339  0.2980  0.1069
 9473SOL    HW140397   4.805   0.568   6.897  2.8225  0.0753  0.7036
 9473SOL    HW240398   4.718   0.467   6.969 -0.4269  1.7172 -0.6949
 9474SOL     OW40399   9.957   8.023  10.279 -0.4574  0.1638 -0.1407
 9474SOL    HW140400   9.930   7.992  10.366  3.8897 -0.4730  1.2534
 9474SOL    HW240401   9.941   7.948  10.221 -0.5736 -0.5812  0.8248
 9475SOL     OW40402   3.125   8.900   8.346 -0.2676  0.4265 -0.7588
 9475SOL    HW140403   3.109   8.986   8.306 -1.8856  0.6918  0.3724
 9475SOL    HW240404   3.098   8.837   8.280  3.0205  0.6452 -2.5022
 9476SOL     OW40405   8.406   0.461   9.172  0.5059  0.2164  0.4496
 9476SOL    HW140406   8.325   0.412   9.154  0.2116  1.1875 -1.1411
 9476SOL    HW240407   8.476   0.400   9.150  0.1690 -0.0305  0.0370
 9477SOL     OW40408   4.159   6.308   3.633 -0.2542  0.0420 -0.3543
 9477SOL    HW140409   4.169   6.391   3.680 -1.0783 -0.4435  0.7368
 9477SOL    HW240410   4.102   6.330   3.559 -1.3152  0.2803  0.4986
 9478SOL     OW40411   7.783   3.760   6.245  0.0977  0.3054  0.0529
 9478SOL    HW140412   7.749   3.786   6.159  1.5784 -0.3063 -0.7635
 9478SOL    HW240413   7.750   3.826   6.305 -2.2598 -0.0954 -0.7042
 9479SOL     OW40414   8.179   6.452   3.584  0.1000 -0.3302  0.0465
 9479SOL    HW140415   8.162   6.358   3.582  1.2849 -0.5931  0.9262
 9479SOL    HW240416   8.270   6.459   3.612  0.5971  1.0402 -1.7414
 9480SOL     OW40417   6.628   5.522   4.771 -0.2054  0.4131 -0.1891
 9480SOL    HW140418   6.711   5.549   4.734  0.0375  0.3324  0.2868
 9480SOL    HW240419   6.627   5.560   4.859 -0.7654  0.5997 -0.2688
 9481SOL     OW40420   6.395   5.677   4.810  0.3044 -0.1922 -0.2910
 9481SOL    HW140421   6.470   5.622   4.786  1.4478  1.3734 -0.4314
 9481SOL    HW240422   6.432   5.764   4.823 -1.3243  0.3752  0.8126
 9482SOL     OW40423   8.814   3.175   0.150  0.4516  0.0321 -0.0489
 9482SOL    HW140424   8.890   3.212   0.193  0.3706  0.0373  0.0882
 9482SOL    HW240425   8.739   3.220   0.188  0.3343 -0.4645  0.3196
 9483SOL     OW40426   7.706   3.378   5.746 -0.4903 -0.2176  0.2458
 9483SOL    HW140427   7.646   3.304   5.744  0.3335 -0.8946 -0.7579
 9483SOL    HW240428   7.766   3.357   5.818 -1.5280  0.5511  1.3719
 9484SOL     OW40429   5.637   8.192   4.124  0.7096  0.4190  0.1336
 9484SOL    HW140430   5.555   8.232   4.151  0.1076  0.3479 -1.4858
 9484SOL    HW240431   5.633   8.102   4.157  0.3947  0.5727  0.5274
 9485SOL     OW40432   2.132   3.833   5.447  0.2045  0.6941 -0.1910
 9485SOL    HW140433   2.051   3.813   5.494  1.0181  0.1139  1.0289
 9485SOL    HW240434   2.142   3.762   5.385  0.2247  0.2766  0.2804
 9486SOL     OW40435   8.868   0.796   9.789  1.1259 -0.0143 -0.2406
 9486SOL    HW140436   8.938   0.818   9.851  0.4538 -1.6279  1.1648
 9486SOL    HW240437   8.788   0.801   9.841  0.5052 -1.1480 -1.0514
 9487SOL     OW40438   9.678   7.382   9.102 -0.1114 -0.6950 -0.0086
 9487SOL    HW140439   9.653   7.343   9.019  1.0442 -0.2996 -0.5620
 9487SOL    HW240440   9.600   7.374   9.157 -1.3540  0.2258 -1.5400
 9488SOL     OW40441   3.890   0.949   9.036 -0.2810  0.2652  0.5717
 9488SOL    HW140442   3.911   0.860   9.063  0.7620  0.8243  1.7046
 9488SOL    HW240443   3.808   0.941   8.988  0.4113 -1.4530 -0.3991
 9489SOL     OW40444  10.085  10.371   9.795 -0.1452  0.0923  0.3299
 9489SOL    HW140445  10.072  10.386   9.888  0.2201  1.1205  0.2264
 9489SOL    HW240446  10.014  10.419   9.753 -1.3747 -1.8020  0.1165
 9490SOL     OW40447   4.978   6.056   3.570  0.0564  0.3744 -0.6597
 9490SOL    HW140448   4.959   6.109   3.492  0.8949  1.0074 -0.4532
 9490SOL    HW240449   4.925   6.096   3.639  0.0899  0.4556 -0.6806
 9491SOL     OW40450  10.253  10.195   3.626 -0.2437 -0.2242 -0.4336
 9491SOL    HW140451  10.160  10.182   3.643 -0.3026 -1.5477 -1.5918
 9491SOL    HW240452  10.262  10.189   3.531  1.1235 -1.0356 -0.2828
 9492SOL     OW40453   5.020   7.120   8.961  0.2596 -0.6863 -0.1243
 9492SOL    HW140454   4.933   7.089   8.987  0.7781 -2.6054 -0.5632
 9492SOL    HW240455   5.032   7.088   8.872  0.4451  1.7278 -1.0593
 9493SOL     OW40456   3.298   8.989   5.678 -0.1624  0.2750  0.0063
 9493SOL    HW140457   3.264   8.951   5.759 -0.8147 -3.0991 -1.6392
 9493SOL    HW240458   3.393   8.977   5.683 -0.3169 -1.3997 -0.2840
 9494SOL     OW40459   2.868   9.708   6.122 -0.3219  0.5759  0.5809
 9494SOL    HW140460   2.827   9.704   6.036  0.0732  1.6028  0.3383
 9494SOL    HW240461   2.877   9.801   6.141  0.4840  0.3657  1.3061
 9495SOL     OW40462   2.048   2.349   3.190 -0.0296 -0.5055 -0.1439
 9495SOL    HW140463   1.997   2.306   3.259 -2.4292 -1.3079 -2.2398
 9495SOL    HW240464   1.988   2.413   3.152  1.4820  0.4662 -0.9829
 9496SOL     OW40465  10.302   7.153  10.113 -0.0414 -0.2609  0.2614
 9496SOL    HW140466  10.337   7.072  10.075 -0.5372 -0.4434  0.1891
 9496SOL    HW240467  10.226   7.125  10.164  1.2765 -0.1924  2.4081
 9497SOL     OW40468   3.463  10.125   9.739 -0.0592  0.1591  0.2857
 9497SOL    HW140469   3.466  10.184   9.814 -0.1216  0.4842  0.0354
 9497SOL    HW240470   3.503  10.175   9.668  0.9017 -0.4959  0.3400
 9498SOL     OW40471   7.027   1.390   8.005 -0.5851  0.3121  0.2120
 9498SOL    HW140472   7.121   1.404   8.019 -0.1770 -0.6457 -1.2895
 9498SOL    HW240473   7.009   1.434   7.922 -1.7362  1.4018  0.9948
 9499SOL     OW40474   8.472   9.960   2.556  0.1153  0.1362 -0.0913
 9499SOL    HW140475   8.467   9.903   2.479  0.8478  0.2071 -0.2049
 9499SOL    HW240476   8.504  10.043   2.521  1.1301 -0.0399  0.3815
 9500SOL     OW40477   2.710   6.274   8.398 -0.0470  0.2946  0.2585
 9500SOL    HW140478   2.770   6.301   8.468 -0.2234 -1.6541  1.2489
 9500SOL    HW240479   2.735   6.327   8.322  2.2270  0.2887  0.9408
 9501SOL     OW40480   2.135   5.770   5.832  0.0997 -1.0020 -0.5492
 9501SOL    HW140481   2.104   5.856   5.859 -2.6638 -2.0130 -0.2688
 9501SOL    HW240482   2.174   5.785   5.746 -0.0372  0.5487 -0.3722
 9502SOL     OW40483   2.688   7.728   2.020 -0.1809 -0.1190  0.4937
 9502SOL    HW140484   2.682   7.778   1.938 -3.0821 -0.5053  0.3420
 9502SOL    HW240485   2.689   7.794   2.089  1.2860  0.1900  0.1993
 9503SOL     OW40486   5.455  10.105   9.204  0.7481 -0.7696 -0.0040
 9503SOL    HW140487   5.484  10.014   9.201 -0.8842 -1.3388  0.4519
 9503SOL    HW240488   5.371  10.106   9.158  1.2095  0.7292 -0.9078
 9504SOL     OW40489   1.784   2.208   3.672  0.1749 -0.2324 -0.3709
 9504SOL    HW140490   1.865   2.228   3.719 -0.3281  0.6693  0.1453
 9504SOL    HW240491   1.715   2.238   3.730 -0.5426 -0.9804 -0.8117
 9505SOL     OW40492   9.958   9.493   4.491  0.3638 -0.1734 -0.5020
 9505SOL    HW140493  10.032   9.538   4.450 -0.2340  0.9066 -0.4369
 9505SOL    HW240494   9.997   9.446   4.565  0.9075  0.8734 -0.1002
 9506SOL     OW40495   9.565   6.074   6.303  0.1764  0.7176 -0.0232
 9506SOL    HW140496   9.573   6.025   6.222  1.4729 -1.7130  1.4527
 9506SOL    HW240497   9.655   6.086   6.333 -0.1585  3.1754  0.2290
 9507SOL     OW40498   7.142   6.840   8.623 -0.7073 -0.1823  0.2217
 9507SOL    HW140499   7.192   6.758   8.631  2.3494  1.5610  0.5471
 9507SOL    HW240500   7.137   6.855   8.528 -0.2077 -0.1815  0.1906
 9508SOL     OW40501   0.162   7.985   4.756 -0.4465  0.0037 -0.2343
 9508SOL    HW140502   0.237   7.965   4.700 -0.1271  1.7889 -0.4951
 9508SOL    HW240503   0.090   8.002   4.694 -0.5819  0.1115 -0.0482
 9509SOL     OW40504   1.102   8.750   6.372  0.1521 -0.3580  0.4313
 9509SOL    HW140505   1.067   8.704   6.295 -0.6347  0.1849  0.4485
 9509SOL    HW240506   1.174   8.695   6.402  0.8661 -0.2796 -1.0545
 9510SOL     OW40507   9.703   2.084   5.627  0.6423 -0.3534  0.0406
 9510SOL    HW140508   9.702   2.052   5.536  1.4240 -0.6978  0.1432
 9510SOL    HW240509   9.781   2.139   5.632  0.2539  0.1753  0.3405
 9511SOL     OW40510   1.710   6.739   8.465  0.2064 -0.0738 -0.1650
 9511SOL    HW140511   1.678   6.826   8.489 -0.1191 -0.3902  0.5980
 9511SOL    HW240512   1.647   6.679   8.506  0.0276 -0.6614 -1.2583
 9512SOL     OW40513   2.190   4.768   1.878  0.3829  0.1098 -0.3609
 9512SOL    HW140514   2.231   4.848   1.845 -0.9299  0.9684 -0.0273
 9512SOL    HW240515   2.098   4.778   1.854 -0.4275  0.2477  2.4554
 9513SOL     OW40516   2.627   1.832   4.960 -0.5421  0.8780  0.1009
 9513SOL    HW140517   2.672   1.869   4.884 -1.4570 -0.5844 -1.2241
 9513SOL    HW240518   2.686   1.762   4.990 -0.5749  0.8949  0.2046
 9514SOL     OW40519   6.656   7.716   7.005  0.0742  0.5586 -0.5780
 9514SOL    HW140520   6.712   7.649   6.964 -0.5803  0.6715 -1.6801
 9514SOL    HW240521   6.696   7.799   6.980 -0.1293  0.6178 -0.7118
 9515SOL     OW40522   5.793   9.545   7.822  0.1189  0.0713  0.2452
 9515SOL    HW140523   5.782   9.450   7.829  0.4362 -0.0189 -0.4022
 9515SOL    HW240524   5.881   9.556   7.786  0.9296  0.6717  2.2473
 9516SOL     OW40525   4.954   7.333   7.879 -0.0722  0.5085 -0.0788
 9516SOL    HW140526   4.933   7.425   7.897  1.3269  0.6691  0.8720
 9516SOL    HW240527   4.965   7.293   7.965  0.1838 -0.3480 -0.4969
 9517SOL     OW40528   8.377   9.050   5.119 -0.0435  0.7185 -0.0027
 9517SOL    HW140529   8.390   9.055   5.024 -1.7959  0.8501 -0.2792
 9517SOL    HW240530   8.374   9.142   5.148 -0.3382  0.6991  0.0342
 9518SOL     OW40531   8.360   1.365   8.852 -0.7207 -0.3725  0.4370
 9518SOL    HW140532   8.405   1.360   8.936  0.8567 -0.8700 -0.3951
 9518SOL    HW240533   8.283   1.420   8.869  0.2064  0.5414  1.9137
 9519SOL     OW40534   2.061   7.195   0.854 -0.1500  0.2015 -0.1478
 9519SOL    HW140535   2.018   7.205   0.939  0.6463  1.3043  0.1451
 9519SOL    HW240536   1.989   7.179   0.793 -1.2489  3.5772  0.0587
 9520SOL     OW40537   3.304   3.121   1.483  0.2099 -0.5765 -0.2790
 9520SOL    HW140538   3.269   3.153   1.567  0.2973  0.2842 -0.5559
 9520SOL    HW240539   3.268   3.033   1.474  2.3652 -1.8158  1.9706
 9521SOL     OW40540   0.317   0.338   2.241 -0.1879  0.0941 -0.6628
 9521SOL    HW140541   0.390   0.278   2.228 -0.9675 -1.2368  0.8460
 9521SOL    HW240542   0.258   0.320   2.168 -0.6737 -1.4120  0.0632
 9522SOL     OW40543   7.631   2.317   0.224  0.4301 -0.0339  0.1441
 9522SOL    HW140544   7.723   2.342   0.227 -0.2441  2.8166  0.0367
 9522SOL    HW240545   7.612   2.285   0.312  1.1779  0.8871  0.6631
 9523SOL     OW40546   3.166   8.169   7.217 -0.1831 -0.4262  0.1193
 9523SOL    HW140547   3.103   8.194   7.149 -0.0821 -0.7047 -0.0760
 9523SOL    HW240548   3.246   8.216   7.195 -0.4771  0.3655  0.6770
 9524SOL     OW40549   6.975  10.092   5.974 -0.1062  0.0760  0.1190
 9524SOL    HW140550   6.996  10.164   5.914  0.0320 -0.8997 -1.0494
 9524SOL    HW240551   7.060  10.054   5.996 -0.2613 -0.4866 -0.2480
 9525SOL     OW40552   9.236   3.400   7.585  0.0639 -0.0052  0.1561
 9525SOL    HW140553   9.323   3.427   7.615 -1.0241  0.6161  3.1082
 9525SOL    HW240554   9.215   3.323   7.639 -1.6202  0.5158  0.2893
 9526SOL     OW40555   8.630   1.000   0.351 -0.1503 -0.7269 -0.7421
 9526SOL    HW140556   8.666   0.949   0.423 -1.5685  0.5149  0.9661
 9526SOL    HW240557   8.699   1.004   0.285  0.0996 -4.5790 -0.9042
 9527SOL     OW40558   2.887   0.529   8.805 -0.0361  0.4428 -0.1393
 9527SOL    HW140559   2.827   0.603   8.794 -0.2263  0.2426 -0.4727
 9527SOL    HW240560   2.964   0.567   8.848 -0.6886  0.5653  0.9559
 9528SOL     OW40561   0.284   1.131   2.707  0.0655  0.0659 -0.6361
 9528SOL    HW140562   0.359   1.073   2.692  0.3663  0.2761  0.0023
 9528SOL    HW240563   0.280   1.141   2.802 -2.2900 -1.9155 -0.4165
 9529SOL     OW40564   7.101   5.280   0.895  0.4147  0.6586  0.2752
 9529SOL    HW140565   7.079   5.319   0.810  1.5200  1.2879  0.2656
 9529SOL    HW240566   7.021   5.234   0.921 -0.2676  1.2846 -0.6428
 9530SOL     OW40567   0.131   5.517   6.900 -0.2187  0.1470 -0.1046
 9530SOL    HW140568   0.145   5.439   6.953 -0.0729  0.5246  0.4211
 9530SOL    HW240569   0.082   5.576   6.957 -1.7621 -0.1616 -1.0348
 9531SOL     OW40570   6.776   7.795   3.420 -0.4131  0.0734 -0.1890
 9531SOL    HW140571   6.693   7.829   3.385 -0.4132 -1.2116 -1.5549
 9531SOL    HW240572   6.753   7.759   3.505 -1.1104  0.3991 -0.2326
 9532SOL     OW40573   2.285   6.687   4.712  0.0386  0.2598  0.3061
 9532SOL    HW140574   2.248   6.775   4.711 -0.2759  0.1264 -0.1074
 9532SOL    HW240575   2.346   6.687   4.786 -0.6860  0.5180  0.9057
 9533SOL     OW40576   4.190   1.896   5.463  0.1071 -0.1565 -0.4842
 9533SOL    HW140577   4.117   1.836   5.446 -0.8004  0.2376  1.6458
 9533SOL    HW240578   4.261   1.840   5.494 -0.2636 -0.2917  0.1439
 9534SOL     OW40579   0.694   4.679   9.613 -0.0373 -0.5959 -0.4303
 9534SOL    HW140580   0.720   4.588   9.599  0.4888 -0.6740  0.9647
 9534SOL    HW240581   0.598   4.677   9.611 -0.0779 -1.4414  0.9870
 9535SOL     OW40582   3.702   7.490   9.564  0.4888  0.0323 -0.2705
 9535SOL    HW140583   3.700   7.558   9.631  1.2003  0.1443 -0.3531
 9535SOL    HW240584   3.631   7.513   9.504 -0.9350 -0.7321  1.0547
 9536SOL     OW40585   6.275   4.838   3.211  0.0696  0.2073 -0.1222
 9536SOL    HW140586   6.189   4.837   3.168  0.6688  0.1726 -1.3895
 9536SOL    HW240587   6.334   4.800   3.146  1.2433  1.3086  0.2468
 9537SOL     OW40588   3.857   9.357   4.224 -0.1780  0.0348  0.1704
 9537SOL    HW140589   3.896   9.321   4.145  1.0694  2.0810 -0.2298
 9537SOL    HW240590   3.887   9.448   4.226 -0.7110  0.2268  2.6531
 9538SOL     OW40591   9.897   0.011   1.049  0.1053 -0.1845 -0.8248
 9538SOL    HW140592   9.814   0.037   1.089 -0.2079 -0.8817 -0.9899
 9538SOL    HW240593   9.959   0.079   1.074 -0.9003  1.2745 -2.1253
 9539SOL     OW40594   6.660   3.884   7.895  0.9157 -0.3793 -0.4999
 9539SOL    HW140595   6.632   3.824   7.964  0.8730 -1.0066 -1.0443
 9539SOL    HW240596   6.752   3.902   7.915  0.3758  1.1013  0.8741
 9540SOL     OW40597   7.301   2.730   5.900  0.3799  0.0684 -0.3608
 9540SOL    HW140598   7.383   2.689   5.927  0.1075  0.6491  1.5241
 9540SOL    HW240599   7.298   2.812   5.950 -0.2817  1.1751 -2.1093
 9541SOL     OW40600   4.514   7.681  10.209  0.0882  0.2748  0.7540
 9541SOL    HW140601   4.589   7.734  10.235  0.8222 -0.7047  0.7042
 9541SOL    HW240602   4.507   7.694  10.114 -0.0977  0.7261  0.8276
 9542SOL     OW40603   9.527   9.410   4.358 -0.1956 -0.8917 -0.2009
 9542SOL    HW140604   9.505   9.320   4.379  0.7107 -1.4814 -1.6423
 9542SOL    HW240605   9.619   9.407   4.329  1.2683  1.1130  3.4758
 9543SOL     OW40606   6.253   9.136   0.982  0.2652 -0.6483 -0.0399
 9543SOL    HW140607   6.280   9.050   0.951 -0.2990 -0.2806 -1.6367
 9543SOL    HW240608   6.173   9.155   0.933  0.8384  1.1320 -0.3521
 9544SOL     OW40609   9.285   3.257   5.776  0.0201  0.5762  0.6115
 9544SOL    HW140610   9.303   3.222   5.863  0.9847 -0.8426 -0.1098
 9544SOL    HW240611   9.337   3.336   5.770  0.2166  0.4962  1.2023
 9545SOL     OW40612   0.635   8.620   3.689  0.0523 -0.2330  0.0796
 9545SOL    HW140613   0.716   8.586   3.727  0.0390 -1.1057 -0.6415
 9545SOL    HW240614   0.664   8.694   3.636  0.2435  0.1087  0.6535
 9546SOL     OW40615   5.044   4.596   9.212 -0.0273 -0.0951  0.3492
 9546SOL    HW140616   5.106   4.554   9.153  0.7834  0.7395  0.6044
 9546SOL    HW240617   4.962   4.548   9.197  0.4766 -0.7172 -0.5231
 9547SOL     OW40618   1.786   9.830   9.701 -0.2106 -0.1781  0.0118
 9547SOL    HW140619   1.700   9.837   9.743 -0.6542  2.4579 -1.1195
 9547SOL    HW240620   1.770   9.781   9.621 -1.0269  1.4002 -0.8553
 9548SOL     OW40621   0.523   5.722   4.246 -0.0010 -0.2703 -0.2562
 9548SOL    HW140622   0.615   5.740   4.268  0.9623 -2.5787 -2.0860
 9548SOL    HW240623   0.495   5.659   4.311 -0.1397  0.0161 -0.0341
 9549SOL     OW40624   5.949   1.098   3.184  0.2429  0.3276  0.3974
 9549SOL    HW140625   5.963   1.003   3.181  0.8106  0.3202  2.4159
 9549SOL    HW240626   5.983   1.125   3.269 -1.6949  2.0663  0.6919
 9550SOL     OW40627   1.866   8.892   8.444  0.5675  0.1545 -0.1348
 9550SOL    HW140628   1.911   8.974   8.463  0.5397 -0.0053  0.6209
 9550SOL    HW240629   1.773   8.915   8.445  0.5815  0.2390 -0.5355
 9551SOL     OW40630   9.999   3.893   7.236  0.0731 -0.0343 -0.0884
 9551SOL    HW140631   9.965   3.896   7.325  1.1319 -1.2605  0.3869
 9551SOL    HW240632  10.066   3.961   7.234  0.5423 -0.4766  0.2826
 9552SOL     OW40633   6.115   1.826   0.624  0.1783 -0.1495  0.3462
 9552SOL    HW140634   6.208   1.846   0.632  0.1500  1.1182 -1.8023
 9552SOL    HW240635   6.071   1.910   0.638 -0.6207 -0.6147  0.7254
 9553SOL     OW40636   7.850   0.887  10.191  0.2276 -0.1589  0.3710
 9553SOL    HW140637   7.875   0.795  10.190  0.3738 -0.1359  1.3753
 9553SOL    HW240638   7.804   0.899  10.274  0.3419  0.7111  0.3194
 9554SOL     OW40639   9.569   8.828   5.418 -0.0594  0.0052 -0.2653
 9554SOL    HW140640   9.627   8.903   5.406  0.4277 -0.5767 -1.8085
 9554SOL    HW240641   9.560   8.791   5.330 -0.1113 -1.8635  0.4878
 9555SOL     OW40642   8.888   8.224   3.582  0.0314 -0.6485  0.4528
 9555SOL    HW140643   8.922   8.176   3.507  1.0079  0.4885  0.1268
 9555SOL    HW240644   8.953   8.209   3.651  0.1834 -0.0899  0.4423
 9556SOL     OW40645   5.942   5.570   5.558 -0.0487 -0.3452 -0.2418
 9556SOL    HW140646   5.890   5.559   5.638  2.2994 -0.2084  1.4132
 9556SOL    HW240647   6.019   5.620   5.586  0.7353 -0.0326 -2.6792
 9557SOL     OW40648   0.782   8.169   4.240  0.4215  0.1809 -0.0697
 9557SOL    HW140649   0.734   8.089   4.263  0.6384  0.0239 -0.1508
 9557SOL    HW240650   0.797   8.213   4.323  3.3912 -1.6093  0.4836
 9558SOL     OW40651   4.769   9.289   6.275 -0.6823  0.5257 -0.1275
 9558SOL    HW140652   4.750   9.197   6.261 -0.7646  0.7122 -1.3499
 9558SOL    HW240653   4.862   9.291   6.300 -0.8893  0.0564  0.7161
 9559SOL     OW40654   7.259   0.877   8.783  0.1076 -0.4857 -0.4318
 9559SOL    HW140655   7.199   0.936   8.827  2.5701  1.5034  0.4588
 9559SOL    HW240656   7.266   0.801   8.841 -1.1070 -0.5194 -0.3129
 9560SOL     OW40657   3.943   4.700   5.723 -0.1294  0.1099 -0.1925
 9560SOL    HW140658   3.969   4.649   5.646 -0.8055 -0.5828  0.0233
 9560SOL    HW240659   4.024   4.739   5.754  0.5027 -1.1707 -0.1329
 9561SOL     OW40660   6.279   0.329   3.495 -0.1333 -0.2717  0.2386
 9561SOL    HW140661   6.357   0.281   3.522  0.4972  1.1365  1.0324
 9561SOL    HW240662   6.301   0.364   3.409 -0.1979 -0.5325  0.1152
 9562SOL     OW40663   5.738   3.275   5.799  0.7806 -0.3324  0.1357
 9562SOL    HW140664   5.709   3.260   5.709  0.5876  0.2453  0.0993
 9562SOL    HW240665   5.778   3.192   5.825 -0.5441 -1.0226  0.0599
 9563SOL     OW40666   9.975   0.995   6.242  0.1676 -0.0419 -0.6968
 9563SOL    HW140667   9.901   0.934   6.248 -0.9357  1.3973  2.2293
 9563SOL    HW240668   9.935   1.076   6.210  0.0976  1.1017  2.0182
 9564SOL     OW40669   2.858   3.649   8.674  0.2227  0.2396  0.0098
 9564SOL    HW140670   2.913   3.586   8.721 -0.2912 -0.1576  0.0965
 9564SOL    HW240671   2.911   3.728   8.669  0.6759 -0.0323  0.3772
 9565SOL     OW40672   8.661   4.700   9.622  0.1399 -0.0016  0.3774
 9565SOL    HW140673   8.634   4.616   9.585 -2.1625  0.6613  0.3709
 9565SOL    HW240674   8.622   4.700   9.710  1.6321  0.3525  1.0699
 9566SOL     OW40675   6.662   7.725   5.691  0.0100 -0.4258 -0.2321
 9566SOL    HW140676   6.727   7.774   5.641  1.2354 -2.9218 -1.2707
 9566SOL    HW240677   6.612   7.677   5.624 -0.6580 -1.1375  0.7439
 9567SOL     OW40678   0.178   3.178   8.757 -0.3175 -0.3457  0.0226
 9567SOL    HW140679   0.204   3.183   8.666  1.2911  0.4654  0.5004
 9567SOL    HW240680   0.222   3.100   8.790  1.0345  0.6577  0.6676
 9568SOL     OW40681   2.059   2.204   7.664 -0.1026 -0.1289  0.0169
 9568SOL    HW140682   1.987   2.265   7.652 -0.3193 -0.2665  0.6140
 9568SOL    HW240683   2.016   2.119   7.676  0.2052 -0.5414 -1.5201
 9569SOL     OW40684   2.534   2.828   3.397 -0.3924  0.5141  0.2234
 9569SOL    HW140685   2.593   2.883   3.346 -0.1081  1.1804  1.2451
 9569SOL    HW240686   2.538   2.863   3.486 -0.1834 -1.1528  0.9215
 9570SOL     OW40687   2.782   8.487   0.387  0.5555  0.2181  0.4038
 9570SOL    HW140688   2.829   8.409   0.356 -0.4969 -0.4537  0.4222
 9570SOL    HW240689   2.807   8.556   0.326  1.1932 -0.2383  0.1373
 9571SOL     OW40690   8.462   1.211   6.819  0.1861  0.7772  0.2091
 9571SOL    HW140691   8.422   1.138   6.773 -0.7151  0.2114  1.8280
 9571SOL    HW240692   8.529   1.171   6.875  2.1861  1.5815 -1.4629
 9572SOL     OW40693   2.772   0.415   3.143 -0.4551 -0.0773  0.2250
 9572SOL    HW140694   2.711   0.361   3.092 -2.7464  2.1278  0.3995
 9572SOL    HW240695   2.781   0.370   3.226 -0.9515 -1.0349 -0.2266
 9573SOL     OW40696   5.352   8.774   3.319 -0.2787  0.1257  0.4665
 9573SOL    HW140697   5.308   8.755   3.236  0.6255  0.1734 -0.0341
 9573SOL    HW240698   5.416   8.842   3.297  1.0819 -0.9890  0.8359
 9574SOL     OW40699   8.467  10.114   4.369 -0.1262 -0.1067  0.4912
 9574SOL    HW140700   8.397  10.168   4.332 -0.9304 -1.6830 -0.3404
 9574SOL    HW240701   8.441  10.103   4.461 -1.0910 -0.8380  0.1456
 9575SOL     OW40702   6.185   4.610   1.868 -0.0335 -0.0596 -0.0302
 9575SOL    HW140703   6.109   4.668   1.867  1.4922  2.0892 -2.0320
 9575SOL    HW240704   6.232   4.631   1.787  1.3910 -3.1173 -0.1300
 9576SOL     OW40705   7.382   1.109   2.062  0.3774  0.0700 -0.5230
 9576SOL    HW140706   7.467   1.114   2.105 -0.2030 -0.9116  0.7873
 9576SOL    HW240707   7.366   1.016   2.049 -0.4331  0.2534 -0.9292
 9577SOL     OW40708   1.270   0.378   2.193 -0.3146 -0.3552  0.1190
 9577SOL    HW140709   1.223   0.441   2.247  1.0810  0.4716  0.4095
 9577SOL    HW240710   1.308   0.316   2.255 -1.1476 -1.1389 -0.1253
 9578SOL     OW40711   8.798   3.269   7.572 -0.6351 -0.8140  0.8709
 9578SOL    HW140712   8.868   3.210   7.543  2.0916  1.0356  3.1327
 9578SOL    HW240713   8.789   3.250   7.665  0.0730  1.9759  1.5840
 9579SOL     OW40714   4.877  10.314   4.784  0.1498  0.1743  0.2829
 9579SOL    HW140715   4.816  10.271   4.844 -0.2003 -1.3709 -1.0960
 9579SOL    HW240716   4.964  10.291   4.818  0.0372 -3.2458 -1.3263
 9580SOL     OW40717   6.552   5.213   8.847  0.0264  0.2605 -0.1506
 9580SOL    HW140718   6.573   5.134   8.896  1.1081  0.3131 -0.5042
 9580SOL    HW240719   6.487   5.185   8.782 -1.8265  0.2985  1.5896
 9581SOL     OW40720   0.969   5.879   2.068  0.4754  0.3947 -0.1571
 9581SOL    HW140721   0.959   5.964   2.111  0.4412 -1.0100  2.8971
 9581SOL    HW240722   0.948   5.815   2.136 -1.4608 -2.0994 -2.8085
 9582SOL     OW40723   6.889   3.780   5.695  0.2628  0.2971  0.4936
 9582SOL    HW140724   6.855   3.693   5.676 -0.3169  0.5911  0.1705
 9582SOL    HW240725   6.984   3.769   5.696  0.1978 -0.2983  0.2728
 9583SOL     OW40726   3.890   8.439   9.062 -0.0058 -0.2555 -0.4483
 9583SOL    HW140727   3.821   8.413   9.001  0.2588  1.0751 -1.3445
 9583SOL    HW240728   3.956   8.481   9.008  1.4848 -1.3725  0.4221
 9584SOL     OW40729   0.839   8.524   7.930  0.4070  0.2202 -0.1239
 9584SOL    HW140730   0.794   8.607   7.917 -1.1145 -0.7131 -1.2301
 9584SOL    HW240731   0.769   8.458   7.923  1.7206 -1.2109 -0.2807
 9585SOL     OW40732   1.870   4.056   0.803  0.0307  0.1083 -0.4723
 9585SOL    HW140733   1.850   4.104   0.723  0.5862 -0.0748 -0.7273
 9585SOL    HW240734   1.963   4.033   0.794 -0.4426 -1.7921 -0.7486
 9586SOL     OW40735   9.210   9.133   6.033 -0.0987 -0.7673 -0.2919
 9586SOL    HW140736   9.161   9.117   6.113  0.8935  0.2722  0.5419
 9586SOL    HW240737   9.302   9.126   6.058  0.3571  2.3701 -0.6285
 9587SOL     OW40738   8.094   0.187   4.688  0.0687 -0.2697 -0.1921
 9587SOL    HW140739   8.165   0.138   4.729  0.9464 -1.4174 -2.8364
 9587SOL    HW240740   8.021   0.125   4.684 -0.0475 -0.1304 -0.2304
 9588SOL     OW40741   4.539   3.926   6.302  0.1989 -0.0125 -0.0153
 9588SOL    HW140742   4.584   3.948   6.384 -0.7492  0.2423  0.4566
 9588SOL    HW240743   4.513   4.011   6.266  0.4891 -0.1333 -0.5115
 9589SOL     OW40744   1.928   4.042   4.486 -0.3283  0.1174 -0.0925
 9589SOL    HW140745   1.952   4.041   4.578  0.7110  0.0998 -0.3470
 9589SOL    HW240746   1.850   3.985   4.480  0.0239 -0.4591  0.6567
 9590SOL     OW40747   3.348   1.510   8.567  0.0067  0.5471  0.4886
 9590SOL    HW140748   3.344   1.423   8.527 -1.3049  0.7780  0.0677
 9590SOL    HW240749   3.415   1.557   8.517 -1.6299  0.8441 -1.5327
 9591SOL     OW40750   8.846   9.878   5.679 -0.2559  0.5084  0.9667
 9591SOL    HW140751   8.800   9.900   5.598 -2.0833 -0.4574  1.6921
 9591SOL    HW240752   8.922   9.827   5.650 -0.4270  0.8791 -0.1810
 9592SOL     OW40753   3.618   6.067   2.128  0.0693  0.0007 -0.4186
 9592SOL    HW140754   3.543   6.031   2.081  0.6327 -0.8431 -0.6856
 9592SOL    HW240755   3.665   6.119   2.063  0.0378  0.0524 -0.4001
 9593SOL     OW40756   6.984   2.123   5.552 -0.3064 -0.0448 -0.2164
 9593SOL    HW140757   7.001   2.217   5.562 -0.0021 -0.1609  0.4161
 9593SOL    HW240758   6.898   2.110   5.591 -1.8346  0.4821 -3.1040
 9594SOL     OW40759   9.986   4.567   2.405 -0.2488  0.1600 -0.0073
 9594SOL    HW140760   9.968   4.585   2.497 -1.3976  1.4681 -0.4568
 9594SOL    HW240761   9.925   4.498   2.381 -1.6768  1.5057 -0.3814
 9595SOL     OW40762   0.418   6.009   7.254  0.2244  0.7442 -0.8018
 9595SOL    HW140763   0.485   6.067   7.290 -1.0783  1.6072  0.3342
 9595SOL    HW240764   0.335   6.050   7.278 -0.7930 -1.9250  0.7462
 9596SOL     OW40765   8.300   2.772   3.250  1.0583  0.1016 -0.2816
 9596SOL    HW140766   8.284   2.677   3.250  0.8502  0.1044  1.2766
 9596SOL    HW240767   8.382   2.781   3.299  0.6008  0.7764  0.3790
 9597SOL     OW40768  10.025   2.770   5.728  0.5095  0.0555  0.3057
 9597SOL    HW140769   9.990   2.816   5.652  2.8622  0.6782 -0.4968
 9597SOL    HW240770  10.060   2.839   5.784  1.2119 -0.5428  0.6300
 9598SOL     OW40771   6.828   2.296  10.330  0.5519 -0.1802  0.6474
 9598SOL    HW140772   6.773   2.373  10.343  0.9620  0.1108  0.6875
 9598SOL    HW240773   6.812   2.271  10.239  2.2355  1.4359 -0.1775
 9599SOL     OW40774   8.175   0.283   8.097  0.2669 -0.6808  0.0246
 9599SOL    HW140775   8.263   0.249   8.078  0.7805 -0.1783  1.4046
 9599SOL    HW240776   8.164   0.355   8.034 -0.2486 -2.3606 -1.9196
 9600SOL     OW40777   2.920   4.067   7.888  0.1611 -0.0979  0.1293
 9600SOL    HW140778   2.911   4.159   7.914  0.2138 -0.5487  1.8509
 9600SOL    HW240779   2.854   4.021   7.940  0.6739 -1.1417 -0.1299
 9601SOL     OW40780   9.848   4.799   8.705 -0.2279 -0.1987 -0.6676
 9601SOL    HW140781   9.880   4.749   8.629  0.1343 -1.6554  0.4058
 9601SOL    HW240782   9.754   4.806   8.690  0.2844  4.6557 -4.1729
 9602SOL     OW40783   0.194   0.815   8.916 -0.0242 -0.4175 -0.0503
 9602SOL    HW140784   0.119   0.861   8.952 -1.2188 -1.4811 -1.0800
 9602SOL    HW240785   0.270   0.868   8.942 -1.1351  0.8032  0.8141
 9603SOL     OW40786   4.311   4.426   1.366  0.1954 -0.0337  0.2435
 9603SOL    HW140787   4.394   4.385   1.342 -0.2050 -0.6901 -0.0421
 9603SOL    HW240788   4.336   4.507   1.411  1.0363 -1.2567  2.0923
 9604SOL     OW40789  10.300   9.305   8.884  0.2894  0.0191 -0.2045
 9604SOL    HW140790  10.244   9.369   8.929  1.3127  1.0188 -0.2979
 9604SOL    HW240791  10.321   9.240   8.952 -1.8375 -1.0024 -0.4473
 9605SOL     OW40792   0.405   5.965   2.360  0.0764  0.5950 -0.2917
 9605SOL    HW140793   0.378   6.056   2.347  2.8958  1.3066 -1.8985
 9605SOL    HW240794   0.488   5.957   2.314  1.2144 -2.1517  1.9281
 9606SOL     OW40795   7.411   4.692   7.663  0.0260  0.4277 -0.2764
 9606SOL    HW140796   7.496   4.648   7.667  0.2931  1.0511  2.4841
 9606SOL    HW240797   7.401   4.716   7.571  3.1652  0.9439 -0.5705
 9607SOL     OW40798   1.175   9.209   3.238  0.5405  0.4902 -0.4927
 9607SOL    HW140799   1.264   9.243   3.235  0.3589  1.1411  0.8180
 9607SOL    HW240800   1.144   9.229   3.326 -0.9691  0.4541 -0.9755
 9608SOL     OW40801   7.265   8.325   3.725  0.3909  0.1795  0.4163
 9608SOL    HW140802   7.340   8.358   3.775 -1.0090  0.6608  2.2794
 9608SOL    HW240803   7.277   8.230   3.724  1.5125  0.3060 -0.1624
 9609SOL     OW40804   3.857   8.765   5.234 -0.2764 -0.4405 -0.4347
 9609SOL    HW140805   3.818   8.833   5.180 -0.2906  0.1067  0.2566
 9609SOL    HW240806   3.886   8.698   5.171 -0.4681  0.0912 -1.0985
 9610SOL     OW40807   3.675   4.648   5.859  0.1452 -0.2864  0.1759
 9610SOL    HW140808   3.751   4.687   5.817 -0.7976  0.1763 -1.1705
 9610SOL    HW240809   3.601   4.700   5.828 -0.7537 -0.8798  1.2493
 9611SOL     OW40810   5.357   1.336   5.426 -0.8090  0.2271  0.0675
 9611SOL    HW140811   5.434   1.280   5.411 -0.1092  0.8636  1.1849
 9611SOL    HW240812   5.299   1.283   5.479 -1.1393 -0.2404 -0.7412
 9612SOL     OW40813   9.514   3.622   7.832  0.6539  0.4930  0.4948
 9612SOL    HW140814   9.515   3.539   7.785 -0.6846  0.8591 -0.2167
 9612SOL    HW240815   9.583   3.674   7.790 -0.6263  0.8787 -1.2264
 9613SOL     OW40816   1.751  10.358   5.130 -0.3543 -0.5610 -0.6040
 9613SOL    HW140817   1.725  10.326   5.216 -1.1931  0.9144 -0.2653
 9613SOL    HW240818   1.694  10.434   5.115  0.3525 -0.2939 -2.0951
 9614SOL     OW40819   9.201   6.895   8.255 -0.0169  0.3300 -0.5412
 9614SOL    HW140820   9.282   6.869   8.211 -0.0408  0.5495 -0.7211
 9614SOL    HW240821   9.223   6.897   8.348  1.2395  3.8951 -0.7604
 9615SOL     OW40822   1.298   7.040   6.001  0.2969 -0.0348  0.0589
 9615SOL    HW140823   1.346   7.100   6.060 -0.8447  1.1617 -0.1801
 9615SOL    HW240824   1.331   6.953   6.023  0.0135  0.3865  2.3906
 9616SOL     OW40825  10.230   6.227   7.314  0.2352 -0.1090 -0.3561
 9616SOL    HW140826  10.194   6.303   7.360  0.1397 -1.1075  1.3324
 9616SOL    HW240827  10.269   6.262   7.234 -0.5700  1.5775 -0.0380
 9617SOL     OW40828   0.812   3.656   6.141  0.0470  0.5142  0.0153
 9617SOL    HW140829   0.877   3.655   6.212 -1.3479 -1.4541  1.3442
 9617SOL    HW240830   0.800   3.564   6.118 -0.7370  1.0102 -1.6959
 9618SOL     OW40831   8.430   3.622   2.431 -0.1315  0.0736 -0.0062
 9618SOL    HW140832   8.422   3.547   2.373 -1.8131 -1.0342  1.5546
 9618SOL    HW240833   8.409   3.697   2.376 -0.0005 -0.7363 -1.2071
 9619SOL     OW40834   6.303   0.126   4.325 -0.3473 -0.0055 -0.4436
 9619SOL    HW140835   6.381   0.160   4.280 -0.3087 -1.8232 -1.8823
 9619SOL    HW240836   6.338   0.085   4.404 -0.3141  2.4252  0.8925
 9620SOL     OW40837   8.501   6.172   4.002  0.1980  1.0244 -0.4245
 9620SOL    HW140838   8.579   6.143   3.955 -0.4025  1.3435 -1.6695
 9620SOL    HW240839   8.445   6.094   4.006  1.0363  0.4486  1.5619
 9621SOL     OW40840   4.228   3.174   6.880 -0.3179  0.2899 -0.2826
 9621SOL    HW140841   4.295   3.203   6.941 -0.8828 -1.4254  1.2412
 9621SOL    HW240842   4.151   3.156   6.934 -1.2547 -0.0591 -1.6690
 9622SOL     OW40843   2.330   8.988   1.282 -0.0548  0.8377 -0.0682
 9622SOL    HW140844   2.255   9.021   1.332  1.4427  2.4500  1.2096
 9622SOL    HW240845   2.357   9.062   1.228  1.5619  0.8262  0.6657
 9623SOL     OW40846   0.481   3.863   2.702  0.1707  0.2624 -0.7317
 9623SOL    HW140847   0.514   3.786   2.749 -0.0994  0.6747  0.1647
 9623SOL    HW240848   0.446   3.828   2.620  0.6321 -0.4855 -0.6175
 9624SOL     OW40849   5.195   3.864   6.015  0.2334 -0.1843  0.1004
 9624SOL    HW140850   5.234   3.779   6.037  0.0665 -0.0471  0.9714
 9624SOL    HW240851   5.109   3.862   6.057  0.5889  0.7590  0.9060
 9625SOL     OW40852   4.747   0.016   4.403 -0.3395 -0.4125 -0.1628
 9625SOL    HW140853   4.791   0.085   4.355 -3.2575  2.2399  0.5810
 9625SOL    HW240854   4.667  -0.001   4.353 -0.5590 -1.9286  0.6455
 9626SOL     OW40855   5.816   1.847   8.576  0.4086 -0.4809 -0.0739
 9626SOL    HW140856   5.805   1.866   8.483  1.3895  1.2128  0.1052
 9626SOL    HW240857   5.732   1.871   8.615  0.4851  0.2394 -0.3372
 9627SOL     OW40858   6.570   7.193   2.305 -0.1775  0.1034 -0.2491
 9627SOL    HW140859   6.653   7.230   2.274  1.5913 -0.9486  2.8119
 9627SOL    HW240860   6.510   7.268   2.307  0.8209  1.0173 -1.9768
 9628SOL     OW40861   5.322   2.976   7.295 -0.7052  0.0464  0.6288
 9628SOL    HW140862   5.276   2.906   7.250  1.6943  0.4251 -2.7478
 9628SOL    HW240863   5.406   2.938   7.321  0.4267  1.4171 -0.8048
 9629SOL     OW40864   8.218   3.056   9.843 -0.1373 -0.2568  0.5587
 9629SOL    HW140865   8.245   3.066   9.752  1.0145 -3.4676  0.4137
 9629SOL    HW240866   8.173   2.971   9.846 -0.6094 -0.0084  2.8937
 9630SOL     OW40867   0.732   6.631   9.506  0.5177 -0.3670 -0.1774
 9630SOL    HW140868   0.722   6.543   9.543 -0.1585  0.0138  0.5843
 9630SOL    HW240869   0.647   6.673   9.520  0.4267  0.0049 -1.6636
 9631SOL     OW40870   1.452  10.337   1.510 -0.3077  0.3740  0.5424
 9631SOL    HW140871   1.488  10.277   1.575  1.2505  0.2602 -0.3818
 9631SOL    HW240872   1.432  10.282   1.434  2.0714  1.0866 -0.6912
 9632SOL     OW40873   4.713   9.559   8.687  0.3546  0.2663 -0.1889
 9632SOL    HW140874   4.680   9.640   8.724  2.3523  1.2464 -0.4506
 9632SOL    HW240875   4.795   9.542   8.734  0.3455 -1.2118 -0.6507
 9633SOL     OW40876   3.164   3.802   9.171  0.4973 -0.3814 -0.1143
 9633SOL    HW140877   3.241   3.760   9.133  1.9242  3.4855 -2.0304
 9633SOL    HW240878   3.197   3.851   9.246 -0.9226 -1.7233  1.4838
 9634SOL     OW40879   8.478   4.863  10.094 -0.3420  0.2045  0.2786
 9634SOL    HW140880   8.540   4.905  10.153  0.3291 -1.1066  0.5489
 9634SOL    HW240881   8.393   4.901  10.116  0.0622  0.5296  1.3121
 9635SOL     OW40882   9.458   1.541   1.106  0.3569  0.1653 -0.2362
 9635SOL    HW140883   9.389   1.606   1.117 -0.6520 -0.9736  0.3822
 9635SOL    HW240884   9.416   1.469   1.059  0.4867 -1.4433  1.9677
 9636SOL     OW40885   7.198   1.059   6.807  0.7691  0.0763 -0.5066
 9636SOL    HW140886   7.203   1.008   6.726 -0.3497  1.2148 -1.3296
 9636SOL    HW240887   7.119   1.113   6.797  0.1070 -0.3694  1.7113
 9637SOL     OW40888   7.193   1.071   3.836  0.6534 -0.1988 -0.0205
 9637SOL    HW140889   7.135   1.143   3.810 -0.3389 -1.5099 -1.6435
 9637SOL    HW240890   7.268   1.078   3.777  0.7927 -0.1991  0.1565
 9638SOL     OW40891   6.059   2.078   6.641  0.0192 -0.4358 -0.1313
 9638SOL    HW140892   6.093   2.039   6.560  0.7373 -0.6180  0.2533
 9638SOL    HW240893   6.028   2.164   6.614  2.3509  0.4555 -0.2067
 9639SOL     OW40894   6.213   3.712   5.057 -0.3837  0.2050 -0.0943
 9639SOL    HW140895   6.157   3.789   5.062 -1.2768 -0.4606  0.3201
 9639SOL    HW240896   6.238   3.695   5.148 -2.1329 -1.3724  0.1577
 9640SOL     OW40897   1.003   2.726   2.333 -0.3954  0.1937 -0.4228
 9640SOL    HW140898   1.087   2.703   2.294 -1.1583  0.5322 -2.4029
 9640SOL    HW240899   1.007   2.821   2.345  0.0008  0.0428  0.8381
 9641SOL     OW40900   5.326   4.682   4.767 -0.4155 -0.1207  0.0066
 9641SOL    HW140901   5.334   4.733   4.848 -0.6750 -1.2290  0.7529
 9641SOL    HW240902   5.338   4.591   4.795 -0.2140 -0.4985 -1.2558
 9642SOL     OW40903   1.172   1.286   4.915 -0.5924 -0.5508 -0.6918
 9642SOL    HW140904   1.212   1.220   4.858  1.2852 -0.5531  0.5324
 9642SOL    HW240905   1.206   1.265   5.002 -2.7251 -0.0512  0.3328
 9643SOL     OW40906   3.596   7.295   3.897 -0.1571 -0.1800  0.4378
 9643SOL    HW140907   3.687   7.323   3.907 -0.3054  0.4342  0.1309
 9643SOL    HW240908   3.545   7.372   3.925 -0.5773 -0.3864  0.2364
 9644SOL     OW40909   6.748   3.116   9.708 -0.2656  0.3278 -0.8087
 9644SOL    HW140910   6.658   3.125   9.678 -0.7086 -0.6820  0.1268
 9644SOL    HW240911   6.801   3.131   9.630 -1.2460  0.6945 -1.4272
 9645SOL     OW40912   8.155   6.794   0.541 -0.3870 -0.0978 -0.3843
 9645SOL    HW140913   8.099   6.863   0.577  1.1886  1.4041 -0.7069
 9645SOL    HW240914   8.130   6.789   0.449 -1.2123 -0.6970 -0.1373
 9646SOL     OW40915   6.348  10.259   2.870  0.6205 -0.3175 -0.1866
 9646SOL    HW140916   6.376  10.222   2.954  0.9669  2.2497  0.9376
 9646SOL    HW240917   6.430  10.287   2.828  0.3324  0.0039 -0.5403
 9647SOL     OW40918   2.503   2.086   3.439  0.1574  0.2276 -0.3084
 9647SOL    HW140919   2.548   2.044   3.513 -0.8100 -0.6816 -0.2040
 9647SOL    HW240920   2.479   2.173   3.471  0.2352  0.0446  0.2657
 9648SOL     OW40921   2.925   7.064   0.284 -0.3871  0.1922  0.2084
 9648SOL    HW140922   3.005   7.040   0.236 -1.2478  0.8795 -1.6873
 9648SOL    HW240923   2.864   6.992   0.267 -0.4433  0.0565  0.9711
 9649SOL     OW40924   9.632   2.252   1.423 -0.4406  0.4437 -0.5089
 9649SOL    HW140925   9.686   2.172   1.427  1.0548  1.2443 -2.6705
 9649SOL    HW240926   9.668   2.309   1.491 -1.0740 -0.4187  0.5869
 9650SOL     OW40927   7.019   0.855   3.426  0.5625 -0.1581 -0.1749
 9650SOL    HW140928   7.016   0.888   3.516  0.0281 -2.1063  0.5797
 9650SOL    HW240929   7.109   0.870   3.398  1.6440 -2.2843  1.8537
 9651SOL     OW40930   7.387   8.706   2.645 -0.2597 -0.5009  0.1839
 9651SOL    HW140931   7.422   8.620   2.618 -0.5467 -1.0875  1.5894
 9651SOL    HW240932   7.359   8.692   2.735 -0.7682  0.9613  0.2606
 9652SOL     OW40933   5.361   3.185   7.479  0.2031 -0.1307  0.1063
 9652SOL    HW140934   5.359   3.110   7.419 -0.1294  0.9672 -1.3073
 9652SOL    HW240935   5.316   3.153   7.558  0.0341 -1.3979 -0.4742
 9653SOL     OW40936   3.112   0.546   4.618  0.4171  0.4896  0.6975
 9653SOL    HW140937   3.070   0.500   4.690 -1.5382  0.0359 -0.6437
 9653SOL    HW240938   3.108   0.639   4.642  0.0769  0.3201  1.2990
 9654SOL     OW40939   1.080   7.665   9.397 -0.4074  0.3713 -0.1642
 9654SOL    HW140940   1.158   7.613   9.413 -0.3303  0.6837  0.5173
 9654SOL    HW240941   1.069   7.717   9.477 -2.5453 -1.2418  0.7053
 9655SOL     OW40942   0.458   2.658   0.705  0.4603 -0.3068  0.2229
 9655SOL    HW140943   0.451   2.749   0.677 -1.6269  0.6293  3.2522
 9655SOL    HW240944   0.370   2.623   0.694 -0.0124 -0.4126  3.4275
 9656SOL     OW40945   7.204   1.670   0.323 -0.0398 -0.3632 -0.2051
 9656SOL    HW140946   7.193   1.576   0.332  1.1383 -0.4247  1.0466
 9656SOL    HW240947   7.164   1.692   0.239  0.3344 -2.0874 -0.8686
 9657SOL     OW40948   0.521   7.724   9.545 -0.0001  0.2316 -0.0434
 9657SOL    HW140949   0.488   7.814   9.542  0.2279  0.3284  0.3085
 9657SOL    HW240950   0.545   7.710   9.637  0.0136 -0.1722 -0.1057
 9658SOL     OW40951   1.387   9.289   1.185  0.2255 -0.1212 -0.0735
 9658SOL    HW140952   1.351   9.309   1.271 -0.7265 -0.5980 -0.3476
 9658SOL    HW240953   1.353   9.359   1.128 -1.0384 -1.0560 -0.5133
 9659SOL     OW40954   0.949   4.198   8.419 -0.4216  0.2154  0.5283
 9659SOL    HW140955   0.913   4.251   8.490  1.8638 -0.6947  2.4883
 9659SOL    HW240956   0.872   4.167   8.371 -1.9666  2.1910  1.5870
 9660SOL     OW40957  10.042   4.773   4.996  0.1905  0.0746 -0.1676
 9660SOL    HW140958  10.036   4.779   5.091  0.8236  1.5385 -0.1889
 9660SOL    HW240959  10.094   4.694   4.980 -0.0639 -0.2774  0.6887
 9661SOL     OW40960   7.137   6.078   6.785  0.0329  0.3860 -0.0335
 9661SOL    HW140961   7.129   6.124   6.701 -1.2652 -2.0222 -1.3277
 9661SOL    HW240962   7.049   6.081   6.821  0.1346 -0.3309  0.2748
 9662SOL     OW40963   8.514   2.285   7.512  0.0603  0.0696 -0.4501
 9662SOL    HW140964   8.445   2.248   7.457  0.5897 -1.5498 -0.0632
 9662SOL    HW240965   8.467   2.341   7.575 -0.8533 -0.6166 -0.5042
 9663SOL     OW40966   5.895   1.549   6.864  0.3666  0.1381 -0.2428
 9663SOL    HW140967   5.860   1.515   6.946  0.6233  0.3464 -0.0439
 9663SOL    HW240968   5.967   1.490   6.842  1.0632  0.7664  0.3052
 9664SOL     OW40969   4.663   4.336   3.558 -0.1135  0.4687 -0.0016
 9664SOL    HW140970   4.603   4.396   3.602 -1.2195  0.4485 -1.4049
 9664SOL    HW240971   4.632   4.249   3.582  0.2619  0.4481  0.4275
 9665SOL     OW40972   8.021   2.403   9.790 -0.0959 -0.4129  0.3428
 9665SOL    HW140973   7.934   2.431   9.764  0.0037 -1.1393 -0.8911
 9665SOL    HW240974   8.016   2.307   9.793  0.5246 -0.4409  0.7517
 9666SOL     OW40975   3.154   8.915   8.987 -0.2790 -0.6737  0.3003
 9666SOL    HW140976   3.187   8.944   9.072  0.9987 -0.3499 -0.2811
 9666SOL    HW240977   3.231   8.914   8.931 -1.2442 -0.0200 -1.0913
 9667SOL     OW40978   7.545   2.585   5.295 -0.1685  0.2266  0.3431
 9667SOL    HW140979   7.454   2.598   5.269  0.0030 -0.1199 -0.4702
 9667SOL    HW240980   7.557   2.642   5.371 -1.4196 -0.7108  1.2918
 9668SOL     OW40981   4.001   8.574   0.667 -0.3629  0.7752  0.0110
 9668SOL    HW140982   4.022   8.631   0.592 -0.5325  0.2697 -0.4304
 9668SOL    HW240983   3.915   8.604   0.696  0.0523  1.5029  0.5251
 9669SOL     OW40984   8.053   9.254   6.795  0.7430  0.4738 -0.7481
 9669SOL    HW140985   8.062   9.242   6.701 -0.2117 -0.4131 -0.7490
 9669SOL    HW240986   7.993   9.184   6.823  4.4857 -2.2717  1.2773
 9670SOL     OW40987   9.631   4.003   2.710  0.0920  0.1302  0.0364
 9670SOL    HW140988   9.717   4.045   2.703  0.9908 -1.5427  0.5888
 9670SOL    HW240989   9.568   4.074   2.693  1.5886  1.1152 -1.6778
 9671SOL     OW40990   8.374   3.522   9.736  0.0753 -0.2498 -0.0817
 9671SOL    HW140991   8.347   3.438   9.700  1.3670 -1.0041  0.6233
 9671SOL    HW240992   8.347   3.586   9.671 -0.2440 -1.2834 -0.9941
 9672SOL     OW40993   1.640   3.722   3.200  0.1928  0.4169  0.7420
 9672SOL    HW140994   1.546   3.703   3.210  0.2656 -0.0101  0.6456
 9672SOL    HW240995   1.658   3.704   3.108  0.0484  1.9946  0.3838
 9673SOL     OW40996   7.915   2.875   2.925  0.2036 -0.3334  0.2347
 9673SOL    HW140997   8.004   2.902   2.948 -0.6482  1.5128  1.6029
 9673SOL    HW240998   7.881   2.836   3.005 -0.0241 -1.6741 -0.4888
 9674SOL     OW40999   3.150   4.718   5.619  0.2669 -0.1853 -0.1566
 9674SOL    HW141000   3.155   4.808   5.651 -0.1389 -0.1113 -0.2934
 9674SOL    HW241001   3.123   4.727   5.528  1.6617 -0.3812 -0.6085
 9675SOL     OW41002   5.985   3.243   6.066 -0.3971  0.0975  0.0399
 9675SOL    HW141003   6.077   3.219   6.079 -1.0668 -2.6742  0.3383
 9675SOL    HW241004   5.944   3.164   6.029 -2.6501  1.2703 -0.1744
 9676SOL     OW41005   5.033   6.319   5.615  0.3791  0.1737  0.2056
 9676SOL    HW141006   4.939   6.303   5.613  0.1686  1.3627 -1.2300
 9676SOL    HW241007   5.072   6.232   5.609 -0.6587 -0.2251 -1.3642
 9677SOL     OW41008   6.902   7.522   1.479 -0.0471 -0.0878 -0.3883
 9677SOL    HW141009   6.961   7.575   1.424  0.6461 -1.3164 -0.8745
 9677SOL    HW241010   6.887   7.443   1.427 -0.6514 -0.5850  0.5359
 9678SOL     OW41011   7.051   8.247   3.363 -0.7929  0.0231 -0.3275
 9678SOL    HW141012   6.995   8.179   3.401  0.1810 -0.2071  0.7479
 9678SOL    HW241013   7.028   8.248   3.270 -0.3033 -2.3340 -0.5320
 9679SOL     OW41014   8.496   6.531   9.296  0.8967 -0.4571 -0.3007
 9679SOL    HW141015   8.565   6.484   9.249  1.3120  0.6327 -0.8309
 9679SOL    HW241016   8.447   6.577   9.228  2.0966  1.9305  0.3184
 9680SOL     OW41017   4.298   9.750   7.971  0.1344  0.1985 -0.2666
 9680SOL    HW141018   4.393   9.741   7.969  0.2803  0.4869  2.0599
 9680SOL    HW241019   4.269   9.686   8.036 -1.0992  0.9692 -0.0154
 9681SOL     OW41020   7.103   9.564   8.111  0.7712 -0.0253 -0.0329
 9681SOL    HW141021   7.013   9.543   8.137  0.8682 -2.8844 -1.6452
 9681SOL    HW241022   7.148   9.581   8.194 -1.2014  1.5985  0.8062
 9682SOL     OW41023   9.223   4.257   5.892  0.2925  0.4405 -0.2507
 9682SOL    HW141024   9.140   4.284   5.853 -1.1002 -1.1027  1.4605
 9682SOL    HW241025   9.199   4.222   5.978  2.9660  1.8789  1.2430
 9683SOL     OW41026  10.010   3.071   4.908  0.1170 -0.9742  0.3102
 9683SOL    HW141027   9.942   3.016   4.944 -0.6472 -0.3752 -0.1797
 9683SOL    HW241028   9.984   3.160   4.931  0.9160 -0.7507  0.4085
 9684SOL     OW41029   8.486   0.926   9.267  0.3177  0.3045  0.4111
 9684SOL    HW141030   8.551   0.968   9.323  0.5716  1.4185 -0.6903
 9684SOL    HW241031   8.537   0.891   9.193 -0.3763  1.8564 -0.8570
 9685SOL     OW41032   9.634   4.446   1.677  0.2496  0.3580  0.4171
 9685SOL    HW141033   9.671   4.507   1.740  0.7285 -0.9018  1.4097
 9685SOL    HW241034   9.548   4.423   1.713  1.0307 -1.3260  1.3491
 9686SOL     OW41035   5.586   7.762  10.246  0.2081 -0.1394  0.3803
 9686SOL    HW141036   5.639   7.760  10.166 -0.4033  0.1266 -0.0407
 9686SOL    HW241037   5.516   7.699  10.230  1.5475 -2.1060  1.7839
 9687SOL     OW41038   6.649   8.866   1.514 -0.0118  0.3404  0.0819
 9687SOL    HW141039   6.585   8.840   1.580 -0.0259 -1.0616 -0.4577
 9687SOL    HW241040   6.597   8.888   1.437  0.0624  0.9503  0.2028
 9688SOL     OW41041   3.778   8.177   4.335  0.1927  0.0602 -0.0184
 9688SOL    HW141042   3.782   8.136   4.249  1.9139  0.2775 -0.0857
 9688SOL    HW241043   3.754   8.107   4.395 -0.4830 -0.2111 -0.5892
 9689SOL     OW41044   7.076   4.730   7.763 -0.5167  0.0945  0.5562
 9689SOL    HW141045   6.990   4.765   7.787 -1.9771 -0.9143 -2.6138
 9689SOL    HW241046   7.128   4.808   7.743 -0.5195  0.7377  2.7745
 9690SOL     OW41047   3.116   1.594   8.386  0.0545 -0.3907 -0.0655
 9690SOL    HW141048   3.163   1.524   8.340  0.0506  0.1998 -1.0061
 9690SOL    HW241049   3.180   1.629   8.448  0.5303 -0.2785 -0.6078
 9691SOL     OW41050   5.850  10.006   5.030  0.2375  0.5988 -0.2737
 9691SOL    HW141051   5.927  10.063   5.037  0.6118 -0.0088  0.7047
 9691SOL    HW241052   5.783  10.052   5.080  0.7842 -0.1898  1.2498
 9692SOL     OW41053   1.352   2.817   1.864  0.4688 -0.7064  0.0144
 9692SOL    HW141054   1.262   2.786   1.871 -0.0605  0.7236 -0.0169
 9692SOL    HW241055   1.393   2.792   1.948 -0.7189  0.8338  1.1124
 9693SOL     OW41056   0.969   4.178   4.305 -0.0327 -0.2800  0.5001
 9693SOL    HW141057   0.908   4.251   4.316 -0.4696 -0.5624 -0.0311
 9693SOL    HW241058   0.918   4.100   4.326  0.4517 -0.4302  1.1263
 9694SOL     OW41059   5.567   3.766   7.361  0.0636  0.5199 -0.2231
 9694SOL    HW141060   5.624   3.836   7.329 -1.6596  1.9879 -0.2561
 9694SOL    HW241061   5.589   3.758   7.453  3.4479 -2.1406 -1.0769
 9695SOL     OW41062   4.621   2.989   2.977  0.5752  0.4443 -0.0935
 9695SOL    HW141063   4.691   3.051   2.957  2.6663 -1.9573 -0.8193
 9695SOL    HW241064   4.616   2.933   2.899 -0.8057 -0.6531  0.7243
 9696SOL     OW41065   5.197   1.175   9.911 -0.2519  0.0798 -0.2356
 9696SOL    HW141066   5.262   1.222   9.859 -1.4365  0.9701 -0.9632
 9696SOL    HW241067   5.236   1.090   9.928  1.0628  0.5677 -0.7164
 9697SOL     OW41068   6.267   7.969   0.944 -0.4851 -0.0844 -0.3175
 9697SOL    HW141069   6.281   8.062   0.924 -1.7438 -0.1183 -1.4943
 9697SOL    HW241070   6.350   7.940   0.981  0.7325  0.9505 -2.0633
 9698SOL     OW41071   6.895   2.879   3.628  0.2427 -0.0388 -0.7840
 9698SOL    HW141072   6.847   2.863   3.547  1.6977  1.3049 -1.9699
 9698SOL    HW241073   6.835   2.852   3.698 -0.8291 -1.7607 -2.3029
 9699SOL     OW41074   4.074   8.469   9.748  0.6749  0.2381  0.4904
 9699SOL    HW141075   4.102   8.384   9.782  1.8794  0.3507 -0.1546
 9699SOL    HW241076   4.106   8.533   9.812 -0.3233  0.2249  1.0312
 9700SOL     OW41077   1.533   1.430   4.138 -1.0193 -0.3507 -0.5673
 9700SOL    HW141078   1.542   1.523   4.120  1.6007 -0.3675  0.2540
 9700SOL    HW241079   1.446   1.421   4.177 -0.7550  1.9936  0.7273
 9701SOL     OW41080   9.880   6.783   4.896 -0.1659 -0.1854 -0.6565
 9701SOL    HW141081   9.802   6.836   4.878  0.2508  0.8869  0.5111
 9701SOL    HW241082   9.860   6.698   4.859 -1.2009  0.5533 -1.8842
 9702SOL     OW41083   8.754   0.837   9.514 -0.5377 -0.3140 -0.2680
 9702SOL    HW141084   8.720   0.914   9.469 -0.7889 -0.5818 -0.5351
 9702SOL    HW241085   8.812   0.873   9.582 -1.0806  0.1334 -0.0310
 9703SOL     OW41086   2.744   9.085   0.386  0.1206 -0.2450  0.4207
 9703SOL    HW141087   2.790   9.009   0.421  0.6017 -1.3108 -2.2615
 9703SOL    HW241088   2.807   9.156   0.392  0.0774 -0.2995  1.8874
 9704SOL     OW41089   1.436   6.919   8.824  0.0817  0.1545 -0.7326
 9704SOL    HW141090   1.360   6.976   8.832  0.3078  0.5568 -1.3615
 9704SOL    HW241091   1.433   6.863   8.902 -1.4160 -0.5148 -1.2292
 9705SOL     OW41092   4.138   9.372   5.311 -0.4056 -0.6231 -0.5431
 9705SOL    HW141093   4.112   9.338   5.225  0.0804 -1.3286 -0.4231
 9705SOL    HW241094   4.056   9.375   5.361 -0.6278 -0.5881 -0.9056
 9706SOL     OW41095   4.264   4.633   9.352 -0.4989 -0.4646 -0.1447
 9706SOL    HW141096   4.203   4.612   9.283 -0.8540 -0.2688  0.1070
 9706SOL    HW241097   4.218   4.696   9.408 -0.1392 -0.4480  0.1456
 9707SOL     OW41098   0.790   3.462   0.485  0.2314  1.0221  0.0789
 9707SOL    HW141099   0.696   3.455   0.500  0.3166  1.3465  0.8256
 9707SOL    HW241100   0.804   3.554   0.462  0.3376  0.9171 -0.2866
 9708SOL     OW41101   9.283   0.842   5.568  0.4157 -0.2211  0.2611
 9708SOL    HW141102   9.223   0.770   5.548  1.2682 -0.8692 -0.0501
 9708SOL    HW241103   9.368   0.799   5.577  0.4993  0.3291  2.9654
 9709SOL     OW41104   8.587   2.776   7.862 -0.3686  0.0636 -0.1216
 9709SOL    HW141105   8.554   2.744   7.946 -3.2244  0.5730 -0.9152
 9709SOL    HW241106   8.662   2.720   7.843 -2.4566 -3.3323  0.6246
 9710SOL     OW41107   2.779   0.571   1.879 -0.1814 -0.3514  0.4023
 9710SOL    HW141108   2.780   0.507   1.808  1.2832  1.3556 -1.1929
 9710SOL    HW241109   2.722   0.641   1.848 -0.7717 -0.2675  1.6009
 9711SOL     OW41110   3.354   3.489   0.774  0.2242 -0.1547  0.0795
 9711SOL    HW141111   3.324   3.517   0.860  1.1078 -1.1015  0.7177
 9711SOL    HW241112   3.283   3.513   0.715 -0.2916  0.7335  1.0243
 9712SOL     OW41113   5.518   5.515   6.496 -0.4686  0.0581  0.4859
 9712SOL    HW141114   5.544   5.424   6.478 -1.8527 -0.3436  0.4341
 9712SOL    HW241115   5.541   5.528   6.588  2.9123  0.8218 -0.3069
 9713SOL     OW41116   1.839   9.877   6.839  0.2237 -0.2780 -0.6358
 9713SOL    HW141117   1.912   9.850   6.784 -0.7420  1.2424 -2.7890
 9713SOL    HW241118   1.875   9.875   6.928  2.9798  0.6137 -1.6071
 9714SOL     OW41119   2.931   4.483   6.188 -0.5159  0.0947  0.5297
 9714SOL    HW141120   2.838   4.505   6.176 -0.6111 -0.9934 -1.0904
 9714SOL    HW241121   2.976   4.541   6.126 -0.0888  0.5928  1.2866
 9715SOL     OW41122   0.419   8.250   4.460  0.4987 -0.5129 -0.5791
 9715SOL    HW141123   0.483   8.301   4.410  1.7347 -2.1800 -0.8023
 9715SOL    HW241124   0.469   8.174   4.492 -0.3538  0.1962  2.7824
 9716SOL     OW41125   5.186   2.412   4.527 -0.2216  0.4362 -0.1144
 9716SOL    HW141126   5.126   2.471   4.573  1.4538  1.0872  1.3546
 9716SOL    HW241127   5.197   2.338   4.586  0.0894  0.1234 -0.5532
 9717SOL     OW41128   4.766   1.624   9.738 -0.0638  0.0601  0.7124
 9717SOL    HW141129   4.722   1.640   9.654  0.2845 -0.6015  0.4046
 9717SOL    HW241130   4.714   1.675   9.801 -0.0140  1.0003  0.0267
 9718SOL     OW41131   3.846   5.305   1.264  0.1114 -0.5859  0.4203
 9718SOL    HW141132   3.762   5.275   1.298 -0.1068  0.3653  0.7283
 9718SOL    HW241133   3.882   5.360   1.333  0.9320 -0.8703  0.2372
 9719SOL     OW41134   3.451   4.626   8.021  0.1445  0.0585  0.6839
 9719SOL    HW141135   3.491   4.579   7.948 -0.1318 -1.0096  1.1971
 9719SOL    HW241136   3.523   4.672   8.064  0.2361  1.1035 -0.5360
 9720SOL     OW41137   4.198   1.157   9.766 -0.5556  0.2757 -0.0188
 9720SOL    HW141138   4.158   1.077   9.800  1.0670 -1.4676 -1.9309
 9720SOL    HW241139   4.230   1.203   9.844 -3.7302  0.4450  1.3576
 9721SOL     OW41140   5.100   5.203   2.306 -0.4348 -0.0624  0.0391
 9721SOL    HW141141   5.127   5.161   2.387 -0.0011  0.1672  0.0176
 9721SOL    HW241142   5.181   5.212   2.255 -0.3549  1.5199  0.3828
 9722SOL     OW41143   5.419   9.276   5.584  0.0351  0.4308  0.0532
 9722SOL    HW141144   5.443   9.213   5.516 -0.0210 -1.9123  2.0546
 9722SOL    HW241145   5.486   9.265   5.652 -2.0543 -0.3227  2.1438
 9723SOL     OW41146   2.456   6.745  10.171  0.4884  0.1707  0.2317
 9723SOL    HW141147   2.435   6.695  10.091  0.2615  0.1857  0.2807
 9723SOL    HW241148   2.503   6.822  10.139  0.5848  0.0688  0.1296
 9724SOL     OW41149   3.633   6.695   9.443 -0.6030 -0.5970  0.2620
 9724SOL    HW141150   3.559   6.708   9.503 -0.8820 -1.2860  0.0811
 9724SOL    HW241151   3.593   6.659   9.364 -0.1125 -0.6249  0.0236
 9725SOL     OW41152   0.829   8.826   6.449 -0.8063  0.1369  0.0581
 9725SOL    HW141153   0.921   8.799   6.452 -1.3337 -1.7695  0.7307
 9725SOL    HW241154   0.828   8.904   6.394  0.8865 -1.2860 -2.1357
 9726SOL     OW41155   6.864   6.402   6.476  0.7515  0.0436 -0.2841
 9726SOL    HW141156   6.894   6.483   6.435 -0.2184  0.8129  0.4943
 9726SOL    HW241157   6.943   6.347   6.480  0.8070 -0.3418 -3.6924
 9727SOL     OW41158   1.692   2.973   6.962 -0.1874 -0.0035 -0.0639
 9727SOL    HW141159   1.723   3.022   7.038 -1.9539 -1.5459  1.7594
 9727SOL    HW241160   1.745   2.894   6.961  1.4345  1.0140 -1.9332
 9728SOL     OW41161   0.374  10.268   8.883  0.2695 -0.1685  0.0709
 9728SOL    HW141162   0.373  10.172   8.875 -0.3485 -0.1133 -0.6833
 9728SOL    HW241163   0.445  10.287   8.944 -1.0019 -1.2319  2.0093
 9729SOL     OW41164   9.978   8.715   4.243  0.2189  0.4727  0.0976
 9729SOL    HW141165  10.063   8.691   4.205  0.1987  0.0397  0.3161
 9729SOL    HW241166   9.973   8.810   4.232  0.6758  0.4859 -0.0329
 9730SOL     OW41167   0.433   0.027   5.110 -0.0318  0.0217 -0.9072
 9730SOL    HW141168   0.410  -0.064   5.132  0.1286 -0.0296 -0.9518
 9730SOL    HW241169   0.469   0.022   5.022 -1.6010  0.3631 -1.6103
 9731SOL     OW41170   9.063   4.192   8.197 -0.2850  0.1675  0.0916
 9731SOL    HW141171   9.024   4.111   8.167  1.2179 -1.1474  1.4317
 9731SOL    HW241172   9.022   4.209   8.282 -1.1184  1.2477 -0.4998
 9732SOL     OW41173   8.582   5.789   8.414  0.0964 -0.9684  0.1964
 9732SOL    HW141174   8.665   5.832   8.434  0.5840 -1.3488 -0.8681
 9732SOL    HW241175   8.608   5.708   8.369 -0.8411 -1.3221  0.2691
 9733SOL     OW41176   8.066   9.171   0.999 -0.1436 -0.4816 -0.4692
 9733SOL    HW141177   8.078   9.140   1.088 -2.7702 -1.3270 -0.3204
 9733SOL    HW241178   8.111   9.107   0.944  0.3238 -0.7085  0.1765
 9734SOL     OW41179   8.662   6.432   0.942  0.4523  0.1959 -0.1240
 9734SOL    HW141180   8.595   6.500   0.955  1.8535  1.3238  1.7887
 9734SOL    HW241181   8.716   6.465   0.871 -0.6811 -0.5120 -1.3778
 9735SOL     OW41182   2.476   9.802   9.765  0.0383  0.1410 -0.1254
 9735SOL    HW141183   2.460   9.753   9.846  0.4696  0.7773  0.3439
 9735SOL    HW241184   2.520   9.739   9.707 -1.1482 -0.6270 -0.2485
 9736SOL     OW41185   1.242   6.084   3.902 -0.7290 -0.0564  0.2006
 9736SOL    HW141186   1.208   6.162   3.945 -0.9640 -0.3396  0.5331
 9736SOL    HW241187   1.239   6.016   3.970 -2.3309 -0.8462 -0.6071
 9737SOL     OW41188   3.562   6.494   6.984 -0.7052 -0.1117 -0.3235
 9737SOL    HW141189   3.619   6.479   7.059 -0.6400 -0.4959 -0.4440
 9737SOL    HW241190   3.537   6.586   6.989  1.5629  0.6259 -1.3917
 9738SOL     OW41191   1.873   2.694   8.795 -0.0310  0.4209  0.0327
 9738SOL    HW141192   1.800   2.634   8.812  0.2726 -0.3685 -1.2808
 9738SOL    HW241193   1.857   2.726   8.706  0.6719  1.0604  0.1313
 9739SOL     OW41194   3.303  10.057   8.047 -0.2833  0.0095  0.1409
 9739SOL    HW141195   3.389  10.018   8.063 -0.6895  0.2422  3.6309
 9739SOL    HW241196   3.242  10.000   8.094 -1.7960  1.0020 -0.5253
 9740SOL     OW41197   2.809   7.880   8.625 -0.4945 -0.1006 -0.2163
 9740SOL    HW141198   2.761   7.817   8.679 -0.1295  0.1645  0.4341
 9740SOL    HW241199   2.900   7.852   8.632 -0.5716 -0.8048 -1.7238
 9741SOL     OW41200   1.657   7.875   1.690  0.1772  0.1717  0.2670
 9741SOL    HW141201   1.732   7.910   1.642 -1.4404  1.4579 -1.5032
 9741SOL    HW241202   1.581   7.916   1.649 -1.6179 -2.1953  0.9642
 9742SOL     OW41203  10.274   7.728   4.811 -0.0171 -0.5510 -0.0094
 9742SOL    HW141204  10.312   7.689   4.890 -0.5084  0.7621  0.9241
 9742SOL    HW241205  10.332   7.802   4.792 -1.1827  0.5241  0.4992
 9743SOL     OW41206   8.251   0.951   0.986  0.1854  0.2177 -0.5669
 9743SOL    HW141207   8.179   0.940   1.049  0.8981 -1.4637 -0.0076
 9743SOL    HW241208   8.323   0.986   1.038  0.4552 -0.1930 -0.6615
 9744SOL     OW41209   0.517   3.951   8.598  0.4548  0.1995 -0.0857
 9744SOL    HW141210   0.460   3.919   8.667  0.7440 -0.0261  0.0504
 9744SOL    HW241211   0.556   3.872   8.559  0.6352  0.3462 -0.2086
 9745SOL     OW41212   1.150   8.456   4.525  0.2204  0.4714  0.6303
 9745SOL    HW141213   1.226   8.402   4.500  0.5236  0.4575  1.5547
 9745SOL    HW241214   1.098   8.399   4.581  0.7468  1.2436  1.9522
 9746SOL     OW41215   8.145   0.153   3.122 -0.3733 -0.4828  0.2222
 9746SOL    HW141216   8.173   0.156   3.030 -1.4154 -0.2723 -0.0995
 9746SOL    HW241217   8.108   0.239   3.138 -1.6775 -1.0442  0.3454
 9747SOL     OW41218   2.179   7.248  10.036  0.3451  0.0853  0.1824
 9747SOL    HW141219   2.272   7.231  10.055 -0.0235  0.2233  2.3478
 9747SOL    HW241220   2.146   7.291  10.115 -0.9371  2.6137 -1.5777
 9748SOL     OW41221   9.830   2.826   1.073 -0.2402 -0.1441  0.6027
 9748SOL    HW141222   9.858   2.739   1.046 -0.5189  0.0078 -0.2097
 9748SOL    HW241223   9.911   2.878   1.076 -0.2269 -0.1133 -0.1563
 9749SOL     OW41224   7.182   8.877  10.138 -0.3280 -0.0489 -0.3318
 9749SOL    HW141225   7.264   8.920  10.117  0.1302  0.2581  1.8588
 9749SOL    HW241226   7.198   8.784  10.119  1.0601 -0.2150  1.3855
 9750SOL     OW41227   7.037   5.298   5.817 -0.2573 -0.4174 -0.0373
 9750SOL    HW141228   7.024   5.334   5.905 -0.2403 -0.5361  0.0146
 9750SOL    HW241229   6.965   5.236   5.806  0.3351 -1.1858  0.3075
 9751SOL     OW41230   6.439   2.455   5.402  0.6945 -0.1663  0.4480
 9751SOL    HW141231   6.501   2.404   5.350  0.1702  0.2640 -0.6162
 9751SOL    HW241232   6.492   2.524   5.441  0.8746  0.2890 -0.5756
 9752SOL     OW41233   2.065   8.482   3.778  0.3170 -0.3633  0.3421
 9752SOL    HW141234   2.107   8.431   3.848 -0.5585 -0.5153  0.7638
 9752SOL    HW241235   2.114   8.565   3.776  0.5644 -0.4932  0.9044
 9753SOL     OW41236   4.882   5.378   2.376  0.2854  0.6579  0.0086
 9753SOL    HW141237   4.899   5.360   2.469 -0.3504 -2.0200 -0.3089
 9753SOL    HW241238   4.956   5.339   2.330 -0.0360  0.8418 -0.6743
 9754SOL     OW41239   8.142   2.670   1.631  0.0685  0.4448 -0.1089
 9754SOL    HW141240   8.108   2.732   1.697  0.9628  0.8197  0.0160
 9754SOL    HW241241   8.095   2.693   1.551  1.0782  1.9652 -0.3072
 9755SOL     OW41242  10.201   2.352   3.539 -0.0475  0.2602  0.5170
 9755SOL    HW141243  10.219   2.432   3.489  0.3127  0.4471  0.9332
 9755SOL    HW241244  10.227   2.374   3.629  0.0236 -0.3175  0.6415
 9756SOL     OW41245   7.103   1.805   9.419  0.3075  0.0399  0.6283
 9756SOL    HW141246   7.110   1.846   9.333  1.4201  3.6886  2.2139
 9756SOL    HW241247   7.181   1.750   9.426  0.5012  0.1476 -0.4962
 9757SOL     OW41248   5.656   3.525   3.870 -0.4364  0.2789  0.6109
 9757SOL    HW141249   5.621   3.593   3.812  0.3903  2.1244  2.1905
 9757SOL    HW241250   5.749   3.520   3.848 -0.3577  0.1380  0.9718
 9758SOL     OW41251   2.467   5.660   4.786  0.2687  0.0565 -0.5296
 9758SOL    HW141252   2.377   5.694   4.779 -0.7346 -2.2685  0.0549
 9758SOL    HW241253   2.465   5.577   4.739  1.7415 -0.6846  0.6319
 9759SOL     OW41254   4.829   2.004   4.972  0.0841 -0.3462 -0.0450
 9759SOL    HW141255   4.784   1.935   5.021 -1.9893  0.4125 -0.7426
 9759SOL    HW241256   4.821   2.081   5.027 -0.4585  0.0430 -0.6563
 9760SOL     OW41257   6.431   0.701   1.285  0.0658 -0.3953  0.8050
 9760SOL    HW141258   6.481   0.740   1.214 -0.1652  0.4743  1.1090
 9760SOL    HW241259   6.465   0.742   1.365 -0.8365 -0.0938  1.0488
 9761SOL     OW41260   6.643   6.992   5.522  0.1519  0.6659 -0.4488
 9761SOL    HW141261   6.664   7.083   5.544 -2.3114  1.1445  0.1420
 9761SOL    HW241262   6.551   6.993   5.498 -1.1730 -2.2536  3.5113
 9762SOL     OW41263   8.297   5.519   4.782 -0.1508  0.3555  0.8750
 9762SOL    HW141264   8.298   5.561   4.869 -0.2628  0.7653  0.6787
 9762SOL    HW241265   8.348   5.578   4.727  2.0171 -1.0853  1.2062
 9763SOL     OW41266   0.190   5.946   0.450  0.3935  0.0789 -0.1917
 9763SOL    HW141267   0.143   5.973   0.529 -1.1989 -0.5345 -0.8912
 9763SOL    HW241268   0.130   5.886   0.405  2.3061 -1.6908 -0.5635
 9764SOL     OW41269   4.646   1.939   6.652 -0.3324 -0.0434 -0.1945
 9764SOL    HW141270   4.598   1.946   6.734  0.6643  0.0725  0.3879
 9764SOL    HW241271   4.701   1.862   6.662 -3.0446 -2.4850 -2.2880
 9765SOL     OW41272   4.707   0.565   9.348  0.3777  0.9438 -0.1263
 9765SOL    HW141273   4.619   0.535   9.326  0.9024 -1.4212  0.6393
 9765SOL    HW241274   4.724   0.526   9.434  2.4566  0.6898 -0.6102
 9766SOL     OW41275   6.078   0.013   0.525  0.4448 -0.1120  0.0228
 9766SOL    HW141276   6.091   0.039   0.617  0.3624  0.8063 -0.2167
 9766SOL    HW241277   6.141  -0.057   0.511 -0.0733 -0.8115  1.0002
 9767SOL     OW41278   8.357   5.608   5.033 -0.0649 -0.5820  0.0592
 9767SOL    HW141279   8.368   5.646   5.120 -0.2973  1.9193 -0.9308
 9767SOL    HW241280   8.446   5.587   5.004  0.1395 -0.1331  0.3608
 9768SOL     OW41281   0.008   4.423   4.385  0.4453 -0.3063 -0.2940
 9768SOL    HW141282  -0.043   4.467   4.317  1.7556  2.2722  0.2370
 9768SOL    HW241283   0.096   4.414   4.346  1.5936  2.4470  1.3411
 9769SOL     OW41284   3.556   9.764   8.860 -0.2261 -0.0254  0.4202
 9769SOL    HW141285   3.545   9.725   8.774 -0.1023  1.4422 -0.2922
 9769SOL    HW241286   3.647   9.793   8.862 -0.4404  0.6698  0.7060
 9770SOL     OW41287   9.297   6.874   4.633 -0.0014  0.3454  0.4663
 9770SOL    HW141288   9.213   6.831   4.649 -0.2878 -0.1584 -1.8856
 9770SOL    HW241289   9.273   6.965   4.611 -0.0288  0.0576 -0.7715
 9771SOL     OW41290   6.784   9.217   6.600 -0.1470 -0.0355  0.3049
 9771SOL    HW141291   6.756   9.150   6.662  0.2451 -0.5456 -0.0568
 9771SOL    HW241292   6.755   9.184   6.515  0.5130 -0.0068  0.0628
 9772SOL     OW41293   1.255   6.294   1.371  0.1322  0.2924 -0.0944
 9772SOL    HW141294   1.314   6.249   1.432  0.3597 -0.1713 -0.6445
 9772SOL    HW241295   1.278   6.258   1.285 -1.4730 -0.4727 -0.2318
 9773SOL     OW41296   0.588   7.563   2.606 -0.2002  0.2513  0.1661
 9773SOL    HW141297   0.640   7.622   2.660  0.9930 -0.6484  0.0456
 9773SOL    HW241298   0.550   7.501   2.668  0.7701 -0.4841  0.0453
 9774SOL     OW41299   3.686   0.828   9.222  0.2387 -0.2051  0.5105
 9774SOL    HW141300   3.764   0.790   9.263  0.3280 -0.2377  0.3129
 9774SOL    HW241301   3.651   0.756   9.169 -0.1770 -0.3293  0.9460
 9775SOL     OW41302   3.084   8.882   5.448  0.4974  0.4561  0.2670
 9775SOL    HW141303   3.103   8.892   5.541  0.8856 -0.9404  0.3689
 9775SOL    HW241304   2.990   8.865   5.444  0.7093 -0.9667  0.5823
 9776SOL     OW41305   8.279   4.791   3.236 -0.1844 -0.2385  0.5245
 9776SOL    HW141306   8.211   4.767   3.299 -0.7432 -0.7555 -0.2383
 9776SOL    HW241307   8.361   4.783   3.284 -0.6176 -0.3548  1.2574
 9777SOL     OW41308   4.985   8.266   1.276 -0.0274 -0.4211  0.5523
 9777SOL    HW141309   5.063   8.212   1.261  0.5599  0.9047 -1.5756
 9777SOL    HW241310   5.013   8.333   1.338  0.7981  0.5159 -0.7982
 9778SOL     OW41311   1.977   0.440   8.937  0.2754 -0.0923 -0.3228
 9778SOL    HW141312   1.935   0.482   8.861  1.4062  0.1522 -0.8287
 9778SOL    HW241313   2.067   0.424   8.909  0.6765 -0.1109  0.9307
 9779SOL     OW41314   7.047   7.961   9.889  0.2608  0.2758  0.4058
 9779SOL    HW141315   7.034   8.004   9.804  1.0282  0.4371  0.3611
 9779SOL    HW241316   6.976   7.993   9.944  0.1602  0.7144  0.0277
 9780SOL     OW41317   2.544   8.653   6.993  0.0035 -0.2509  0.0812
 9780SOL    HW141318   2.462   8.699   7.013  0.2275 -0.2720  1.1230
 9780SOL    HW241319   2.599   8.720   6.954 -0.3459 -0.1152 -0.1880
 9781SOL     OW41320   7.590   1.792   7.476 -0.3724 -0.4217  0.0255
 9781SOL    HW141321   7.598   1.822   7.385  0.1555 -2.0054 -0.4745
 9781SOL    HW241322   7.543   1.709   7.471 -2.3036  0.4994  1.4400
 9782SOL     OW41323   9.763   1.381   7.400  0.4131  0.1721  0.1205
 9782SOL    HW141324   9.772   1.319   7.328  0.3132  0.5274 -0.2015
 9782SOL    HW241325   9.683   1.429   7.381  0.9608  1.0244 -0.1352
 9783SOL     OW41326   4.330   6.616   8.050  0.3272  0.2486 -0.4026
 9783SOL    HW141327   4.355   6.665   7.971 -0.4172  2.9208  0.9194
 9783SOL    HW241328   4.408   6.618   8.105  0.2010  0.1727 -0.2201
 9784SOL     OW41329   2.887   8.687   1.260 -0.4301 -0.3166 -0.1508
 9784SOL    HW141330   2.878   8.726   1.346 -1.7952  1.4116 -1.0221
 9784SOL    HW241331   2.838   8.745   1.201  0.5775 -1.3355 -2.1212
 9785SOL     OW41332   9.776   6.461   0.054  0.2538 -0.0279 -0.1564
 9785SOL    HW141333   9.844   6.394   0.045  0.8097  0.4282  0.5525
 9785SOL    HW241334   9.709   6.436  -0.010  1.7514  0.3540 -1.9652
 9786SOL     OW41335  10.391   3.844   0.850  0.2068  0.0151  0.2467
 9786SOL    HW141336  10.447   3.789   0.905 -0.9551  0.9014  2.4342
 9786SOL    HW241337  10.345   3.782   0.793 -0.2886 -1.2245  1.9142
 9787SOL     OW41338   5.667   4.447   8.340 -0.2102  0.2099 -0.7994
 9787SOL    HW141339   5.709   4.517   8.291 -0.3530  0.7912 -0.0981
 9787SOL    HW241340   5.722   4.434   8.417 -0.2774 -0.3352 -0.8336
 9788SOL     OW41341   9.972   5.125   8.253  0.1896 -0.4355  0.4741
 9788SOL    HW141342   9.932   5.074   8.182 -2.6312  1.3781  0.6287
 9788SOL    HW241343  10.002   5.205   8.212  1.2870 -0.6321  0.8570
 9789SOL     OW41344   0.228   3.031   2.291 -0.1392  0.1864  0.5416
 9789SOL    HW141345   0.319   3.005   2.306  0.1469  1.1975  0.6610
 9789SOL    HW241346   0.183   2.950   2.270  0.8652 -0.2945  0.1514
 9790SOL     OW41347   5.131   5.465   4.558  0.2220 -0.3093  0.5090
 9790SOL    HW141348   5.162   5.386   4.601 -0.1430 -1.5917 -1.4292
 9790SOL    HW241349   5.201   5.488   4.497 -1.4051 -1.8609 -2.1915
 9791SOL     OW41350   2.088   3.550   5.324 -0.1069  0.2247  0.1091
 9791SOL    HW141351   2.012   3.503   5.358  0.6945  0.5679  2.5846
 9791SOL    HW241352   2.163   3.508   5.365  0.8973  1.3252 -0.5183
 9792SOL     OW41353   5.382   2.931   3.384  0.2941 -0.0349 -0.4495
 9792SOL    HW141354   5.323   2.939   3.309  0.3142  0.4558 -0.4128
 9792SOL    HW241355   5.358   2.847   3.424  0.5320 -0.4800 -1.2153
 9793SOL     OW41356   9.152   4.654   3.064  0.2287  0.4707 -0.1949
 9793SOL    HW141357   9.197   4.583   3.018  0.0380 -0.5333  1.0847
 9793SOL    HW241358   9.112   4.611   3.140 -0.4261  1.8517  0.2730
 9794SOL     OW41359   2.480   8.417   0.771  0.2329  0.6542 -0.9460
 9794SOL    HW141360   2.393   8.423   0.732 -0.1026  0.5528 -0.2279
 9794SOL    HW241361   2.519   8.503   0.756  0.1194  0.6055 -1.5240
 9795SOL     OW41362   6.315   3.624   7.451  0.7776 -0.8056  0.1835
 9795SOL    HW141363   6.273   3.707   7.429 -0.3662 -0.5609  2.9401
 9795SOL    HW241364   6.292   3.566   7.378 -0.4604  0.6082 -0.6129
 9796SOL     OW41365   5.746   0.221   0.052  0.1311  0.6523 -0.2923
 9796SOL    HW141366   5.798   0.150   0.014  0.4673  0.3049  0.7833
 9796SOL    HW241367   5.798   0.252   0.126 -0.9256  0.6790  0.4620
 9797SOL     OW41368   7.704   3.277   9.230 -0.1125  0.1081  0.0670
 9797SOL    HW141369   7.775   3.289   9.168  1.4879  1.7964  2.0613
 9797SOL    HW241370   7.708   3.185   9.255 -0.1192 -0.3337 -1.5007
 9798SOL     OW41371   2.821   3.388   7.801 -0.1031 -0.2007 -0.1074
 9798SOL    HW141372   2.852   3.327   7.735 -1.6246 -1.2896  0.1389
 9798SOL    HW241373   2.853   3.473   7.772  1.5221 -1.0134 -0.7844
 9799SOL     OW41374   8.228   4.036   7.128 -0.4801  0.3522  0.8307
 9799SOL    HW141375   8.155   3.979   7.106  1.0548 -0.8417 -1.5556
 9799SOL    HW241376   8.298   3.977   7.155  0.6047  1.2052 -0.0095
 9800SOL     OW41377   1.334   1.705   9.280  0.0602 -0.0412  0.1137
 9800SOL    HW141378   1.316   1.614   9.259 -0.8139 -0.3180  1.9353
 9800SOL    HW241379   1.285   1.755   9.214 -1.3529 -0.8847  0.4798
 9801SOL     OW41380   7.912   6.616   5.805  0.0153 -0.2374 -0.5054
 9801SOL    HW141381   7.952   6.558   5.740 -1.8974  0.1221 -2.0807
 9801SOL    HW241382   7.854   6.560   5.855  1.0491 -0.3932  0.5722
 9802SOL     OW41383   4.649  10.318   5.401  0.5998  0.1690  0.3111
 9802SOL    HW141384   4.657  10.336   5.307 -0.0667 -0.6826  0.0740
 9802SOL    HW241385   4.733  10.279   5.425  0.1405 -1.3035 -0.3547
 9803SOL     OW41386   1.468   7.241   7.165 -0.1677 -0.1869  0.4939
 9803SOL    HW141387   1.550   7.191   7.169 -0.7180 -1.3060 -1.0636
 9803SOL    HW241388   1.487   7.315   7.108  0.3925  0.9512  2.0787
 9804SOL     OW41389   8.168   1.457   3.740  0.7795  0.2640 -0.3987
 9804SOL    HW141390   8.166   1.378   3.794 -2.7397  0.7083  0.3035
 9804SOL    HW241391   8.261   1.482   3.739  1.6828 -2.5224  1.2579
 9805SOL     OW41392   1.487   4.320   8.784 -0.2434  0.4398 -0.1668
 9805SOL    HW141393   1.554   4.379   8.818 -0.7818  0.5536  0.7327
 9805SOL    HW241394   1.493   4.329   8.689 -0.6803  2.3695 -0.0359
 9806SOL     OW41395   1.809  10.070   0.182 -0.1053  0.1981 -0.3685
 9806SOL    HW141396   1.789  10.026   0.099  0.6330 -0.6135 -0.1331
 9806SOL    HW241397   1.835   9.999   0.241  0.4620  0.8775  0.2237
 9807SOL     OW41398   9.456   4.209   8.947  0.4326  0.0067  0.0545
 9807SOL    HW141399   9.383   4.153   8.920  0.9816 -0.4607 -0.4943
 9807SOL    HW241400   9.421   4.298   8.942 -0.4198 -0.2705  0.8490
 9808SOL     OW41401   3.417   1.839   7.958 -0.5480 -0.7172  0.8595
 9808SOL    HW141402   3.500   1.883   7.937 -1.0859  0.0688  0.3576
 9808SOL    HW241403   3.404   1.859   8.051 -0.9513  0.4952  0.5622
 9809SOL     OW41404   2.578   1.616   5.898 -0.0703 -0.8561 -0.0053
 9809SOL    HW141405   2.553   1.530   5.932 -2.4150 -0.7357 -1.2089
 9809SOL    HW241406   2.525   1.678   5.947  0.5927 -0.2000 -0.0927
 9810SOL     OW41407   4.412   3.860   0.623  0.2573  0.1884  0.2452
 9810SOL    HW141408   4.478   3.926   0.603  0.7889 -0.2740  0.4121
 9810SOL    HW241409   4.357   3.900   0.690 -0.5896  1.1636 -0.9888
 9811SOL     OW41410   2.027   9.178   6.364  0.3550 -0.0084 -0.1572
 9811SOL    HW141411   2.078   9.256   6.343  0.5418 -0.6857 -2.4992
 9811SOL    HW241412   2.088   9.120   6.410 -0.1760  1.6865  3.0114
 9812SOL     OW41413   3.773   9.051   7.755  0.0064  0.0077  0.0169
 9812SOL    HW141414   3.710   8.980   7.745 -1.3410  0.9540  1.2886
 9812SOL    HW241415   3.807   9.066   7.667 -2.1988  0.0190 -0.8848
 9813SOL     OW41416   0.587   3.392   5.403  0.2212  0.1811  0.9446
 9813SOL    HW141417   0.581   3.330   5.475 -0.1929 -0.1704  0.6189
 9813SOL    HW241418   0.548   3.345   5.328  0.2103  0.7093  0.6136
 9814SOL     OW41419   2.154   4.438   0.191 -0.2171  0.3852  0.1496
 9814SOL    HW141420   2.128   4.431   0.283 -1.9634 -0.5945 -0.3574
 9814SOL    HW241421   2.236   4.390   0.185 -1.0531 -1.2259  0.8773
 9815SOL     OW41422   1.038   1.195   9.120  0.5545  0.1631  0.4794
 9815SOL    HW141423   1.112   1.167   9.175 -0.7253 -2.3605  1.0597
 9815SOL    HW241424   0.971   1.222   9.182  0.2641  0.4792  0.0318
 9816SOL     OW41425   6.477   2.800   3.385  0.0762 -0.0206 -0.5319
 9816SOL    HW141426   6.430   2.880   3.363  1.4262  1.2089  0.8092
 9816SOL    HW241427   6.529   2.779   3.307  0.7852  1.2331 -0.4152
 9817SOL     OW41428   3.831   9.389   9.760 -0.7559 -0.6080  0.1185
 9817SOL    HW141429   3.779   9.402   9.681  0.0266  1.4414 -0.1138
 9817SOL    HW241430   3.827   9.294   9.776 -1.0306 -1.0682 -2.2979
 9818SOL     OW41431   9.145   0.907   8.536 -0.1390  0.0014  0.4533
 9818SOL    HW141432   9.058   0.900   8.576 -0.4666 -3.3346 -0.5447
 9818SOL    HW241433   9.127   0.924   8.443 -0.0131 -3.2028 -0.2865
 9819SOL     OW41434   0.743   0.360   1.247 -0.6587  0.4658  0.2018
 9819SOL    HW141435   0.722   0.267   1.241  0.4351  0.2866 -2.0412
 9819SOL    HW241436   0.834   0.363   1.279 -1.2431  0.8822  1.9416
 9820SOL     OW41437   0.072   2.065   6.334  0.6435  0.2586 -0.0284
 9820SOL    HW141438   0.025   2.148   6.324  1.0776  0.4784 -0.2969
 9820SOL    HW241439   0.145   2.086   6.392 -0.2815 -0.3684  1.4114
 9821SOL     OW41440   2.386   2.460   8.251  0.4802  0.1231  0.4580
 9821SOL    HW141441   2.456   2.398   8.229  0.5761  0.3903 -0.0164
 9821SOL    HW241442   2.324   2.453   8.178  0.5063  0.6074  0.3877
 9822SOL     OW41443   4.675   0.745   3.052  0.7262 -0.2238  0.7203
 9822SOL    HW141444   4.714   0.658   3.058  2.7378  0.6166  0.8587
 9822SOL    HW241445   4.728   0.799   3.111 -1.5376  0.7819  1.9887
 9823SOL     OW41446   0.361   5.770   7.383  0.4023 -0.3116 -0.2758
 9823SOL    HW141447   0.352   5.695   7.324  1.6377  0.3371 -1.3455
 9823SOL    HW241448   0.373   5.845   7.325  1.4557  0.3874  0.7945
 9824SOL     OW41449   9.499   0.196  10.101  0.2161  0.2905  0.3209
 9824SOL    HW141450   9.553   0.267  10.136 -0.2761  0.9172 -0.1652
 9824SOL    HW241451   9.417   0.238  10.075 -0.8944 -0.8026  1.8829
 9825SOL     OW41452   4.776   3.680   9.241 -0.2389  0.1554  0.0227
 9825SOL    HW141453   4.728   3.696   9.160  0.6935  0.6548 -0.4443
 9825SOL    HW241454   4.822   3.762   9.258  0.4977 -0.3361  0.4309
 9826SOL     OW41455   3.613   7.950   9.874 -0.2997 -0.6585  0.3456
 9826SOL    HW141456   3.602   8.045   9.865 -2.1943 -0.8290  0.6281
 9826SOL    HW241457   3.683   7.940   9.939 -0.8605  0.5457  1.1534
 9827SOL     OW41458   3.814   0.286   9.159  0.0532 -0.7349  0.1923
 9827SOL    HW141459   3.869   0.285   9.081  1.2366 -1.8842  0.9960
 9827SOL    HW241460   3.871   0.255   9.229 -1.1051 -0.1688  1.4340
 9828SOL     OW41461   3.421   3.958   6.954 -0.7858 -0.1902 -0.1720
 9828SOL    HW141462   3.513   3.969   6.979 -1.2102  2.5952  0.5042
 9828SOL    HW241463   3.424   3.908   6.873  1.2041 -1.4249  0.5722
 9829SOL     OW41464   2.490   5.130   8.918  0.5505  0.0627 -0.3420
 9829SOL    HW141465   2.479   5.066   8.848  3.9673  0.3902 -1.4068
 9829SOL    HW241466   2.523   5.079   8.993 -0.5335  0.0735  0.1537
 9830SOL     OW41467   6.380   9.313   0.784  0.9410 -0.1350 -0.1303
 9830SOL    HW141468   6.332   9.266   0.852 -2.1389  0.2873 -1.8183
 9830SOL    HW241469   6.411   9.244   0.725 -1.2735 -0.3357 -1.1829
 9831SOL     OW41470   5.912   0.702   2.318 -0.6184 -0.1991 -0.0838
 9831SOL    HW141471   5.972   0.749   2.374 -2.7711 -0.7575  2.9125
 9831SOL    HW241472   5.931   0.609   2.335 -3.0069 -0.4047  1.8676
 9832SOL     OW41473   3.478   5.034   6.671 -0.3603 -0.5906 -0.1167
 9832SOL    HW141474   3.468   5.078   6.755 -1.0491  0.5442 -0.7661
 9832SOL    HW241475   3.389   5.008   6.648  0.0756 -2.7581  0.4510
 9833SOL     OW41476   7.402   6.050   9.195  0.2843 -0.0229 -0.2459
 9833SOL    HW141477   7.325   6.066   9.250  0.8672  1.1099  0.2634
 9833SOL    HW241478   7.371   6.069   9.106 -1.1047 -3.3329 -0.6284
 9834SOL     OW41479   3.061   1.971   5.435 -0.3594  0.3734  0.4479
 9834SOL    HW141480   3.121   1.901   5.407 -1.1238  0.0123 -0.3213
 9834SOL    HW241481   3.054   2.028   5.359 -0.0945  1.0648  0.9263
 9835SOL     OW41482   6.700   5.141   4.660 -0.1062  0.0107 -0.7021
 9835SOL    HW141483   6.670   5.194   4.586 -1.1781 -0.0389 -0.3127
 9835SOL    HW241484   6.795   5.138   4.650  0.0741  2.5709 -0.3689
 9836SOL     OW41485   4.430   6.087   5.959 -0.1055  0.1280 -0.1903
 9836SOL    HW141486   4.411   6.116   6.049 -2.2542 -1.2022 -0.1383
 9836SOL    HW241487   4.345   6.088   5.915  0.6360 -0.8632 -1.7286
 9837SOL     OW41488   6.002   2.331   6.086  0.1202  0.4497  0.4617
 9837SOL    HW141489   5.952   2.411   6.101  0.2698  0.6462 -0.0383
 9837SOL    HW241490   5.999   2.284   6.169 -0.8369  0.4875  0.4579
 9838SOL     OW41491   3.397   5.535   9.258 -0.1649  0.2620  0.1040
 9838SOL    HW141492   3.388   5.484   9.338 -0.4431  1.3464  0.7855
 9838SOL    HW241493   3.307   5.559   9.235 -0.2715 -1.4696 -1.5168
 9839SOL     OW41494   1.506   0.619   8.840 -0.2974  0.1698  0.4991
 9839SOL    HW141495   1.569   0.569   8.892  0.4747  0.1975 -0.3894
 9839SOL    HW241496   1.440   0.647   8.903  0.6232  0.2154  1.4671
 9840SOL     OW41497   2.331  10.087   6.626  0.0181 -0.4420 -0.3308
 9840SOL    HW141498   2.409  10.032   6.631 -1.5183 -2.6559  2.7662
 9840SOL    HW241499   2.344  10.154   6.693 -0.4342 -0.4630 -0.2164
 9841SOL     OW41500   7.511   2.465   3.787 -0.6005  1.1060 -0.1806
 9841SOL    HW141501   7.450   2.537   3.802 -0.7175  0.8729  0.4713
 9841SOL    HW241502   7.487   2.398   3.851 -2.1090 -0.5740 -2.3656
 9842SOL     OW41503   8.425   8.200   7.161  0.1792  0.4054 -0.3070
 9842SOL    HW141504   8.509   8.175   7.123  0.1015  0.9943 -0.8887
 9842SOL    HW241505   8.445   8.277   7.214  0.0133  0.5438 -0.4433
 9843SOL     OW41506   1.118   2.722   5.276  0.2440 -0.2058 -0.3209
 9843SOL    HW141507   1.073   2.639   5.292 -1.0449  0.5926  0.3918
 9843SOL    HW241508   1.049   2.782   5.248  0.7659  1.1704  1.1934
 9844SOL     OW41509   2.888   7.713   2.968 -0.2373  0.3848  0.4085
 9844SOL    HW141510   2.860   7.804   2.974  0.6031  0.5837  1.8101
 9844SOL    HW241511   2.955   7.713   2.900 -0.2358  0.8216  0.4067
 9845SOL     OW41512   8.287   1.569   7.818  1.1261 -0.0161 -0.0008
 9845SOL    HW141513   8.349   1.534   7.753 -0.8136  0.1888 -2.1023
 9845SOL    HW241514   8.233   1.630   7.768  0.5019  1.3309  2.2168
 9846SOL     OW41515   5.196   7.668   1.017  0.1840  0.0894 -0.1370
 9846SOL    HW141516   5.145   7.722   0.957 -0.2721 -0.5693 -0.3441
 9846SOL    HW241517   5.164   7.579   1.003  1.4027 -0.3444 -0.2913
 9847SOL     OW41518   2.401   3.033   8.630 -0.1176 -0.3650  0.1172
 9847SOL    HW141519   2.400   3.025   8.535  0.5924  1.7736 -0.1169
 9847SOL    HW241520   2.318   3.076   8.652  0.7073  1.2729  0.1818
 9848SOL     OW41521   4.458   4.116   0.515 -0.4100 -0.1581 -0.5446
 9848SOL    HW141522   4.489   4.049   0.454  1.7967 -1.4512  1.8023
 9848SOL    HW241523   4.526   4.183   0.513 -0.3724 -0.1575  0.3735
 9849SOL     OW41524   7.670   0.947   3.543  0.2731 -0.1294 -0.1746
 9849SOL    HW141525   7.742   0.919   3.600 -0.1066  0.3128  0.5462
 9849SOL    HW241526   7.702   1.028   3.504 -0.0938  0.4668  0.7157
 9850SOL     OW41527   1.509   8.987   5.121  0.1396  0.1610  0.1099
 9850SOL    HW141528   1.500   8.920   5.053  0.8191  0.3125 -0.1367
 9850SOL    HW241529   1.518   9.069   5.072  0.7737  0.2550  0.3732
 9851SOL     OW41530   3.143   8.334   5.644  0.4392 -0.5060  0.3775
 9851SOL    HW141531   3.124   8.323   5.738  2.2589 -0.2804  0.8076
 9851SOL    HW241532   3.059   8.357   5.605 -0.0334  1.3229  2.2837
 9852SOL     OW41533   5.192   9.663   5.797 -0.3108 -0.3186 -0.1563
 9852SOL    HW141534   5.096   9.672   5.796 -0.4266 -1.3898 -0.4188
 9852SOL    HW241535   5.222   9.709   5.719 -0.5443  0.5672  0.2602
 9853SOL     OW41536   8.465   4.938   5.541 -0.5283  0.3940  0.2662
 9853SOL    HW141537   8.481   5.032   5.532  2.2119 -0.1417 -1.7739
 9853SOL    HW241538   8.543   4.905   5.586  0.2331 -1.2608 -2.0545
 9854SOL     OW41539   7.868   8.476   6.209 -0.3371  0.1692  0.1140
 9854SOL    HW141540   7.796   8.540   6.211  0.0691  0.6184  0.6888
 9854SOL    HW241541   7.868   8.437   6.296  2.0402  2.3888  1.2644
 9855SOL     OW41542   7.711   7.853   0.253  0.1258  0.6871 -0.3628
 9855SOL    HW141543   7.711   7.947   0.240  0.6442  1.0663  1.9216
 9855SOL    HW241544   7.751   7.841   0.339  0.3038 -1.6399 -0.7063
 9856SOL     OW41545  10.037   3.639   1.479 -0.0282 -0.0931  0.3300
 9856SOL    HW141546  10.030   3.717   1.423  1.5379 -0.4773 -0.4322
 9856SOL    HW241547  10.098   3.582   1.434 -0.4786 -1.4135  1.3299
 9857SOL     OW41548   8.502   1.140  10.197 -0.4661  0.2747  0.0346
 9857SOL    HW141549   8.495   1.234  10.177 -2.5691  0.2042  0.2643
 9857SOL    HW241550   8.444   1.127  10.272 -0.5865 -1.3140 -0.3054
 9858SOL     OW41551   3.675   8.941   5.116  0.0825  0.1358  0.0860
 9858SOL    HW141552   3.685   9.021   5.065  2.1772  0.5761  1.0646
 9858SOL    HW241553   3.648   8.971   5.203 -0.2905 -0.3239  0.1317
 9859SOL     OW41554  10.074   8.414   0.350  0.0527 -0.5391  0.0721
 9859SOL    HW141555  10.165   8.441   0.357  0.0050 -0.0372 -1.0222
 9859SOL    HW241556  10.027   8.476   0.406  0.2700 -0.0994 -0.2242
 9860SOL     OW41557   3.409   3.203   2.653  0.5124  0.3057  0.0166
 9860SOL    HW141558   3.325   3.173   2.617  0.7262  0.9743 -1.0831
 9860SOL    HW241559   3.424   3.288   2.611  1.6288  0.2948  0.3746
 9861SOL     OW41560   9.726   6.711   9.012 -0.0341 -0.1016  0.3466
 9861SOL    HW141561   9.712   6.795   9.057  0.0814 -0.9060  1.9612
 9861SOL    HW241562   9.804   6.726   8.958  0.1393  0.7512  0.8106
 9862SOL     OW41563  10.280   3.979  10.129 -0.2959 -0.1848  0.2688
 9862SOL    HW141564  10.323   3.928  10.198 -0.0599  0.5246  0.6607
 9862SOL    HW241565  10.312   4.068  10.143 -1.1728  0.1787 -0.0320
 9863SOL     OW41566   9.377   9.878   1.321 -0.3436 -0.1321 -0.3054
 9863SOL    HW141567   9.374   9.954   1.263 -0.4868  0.2084  0.1485
 9863SOL    HW241568   9.464   9.840   1.305  0.6033  1.3594  1.0318
 9864SOL     OW41569   2.779   9.641   6.371 -0.2659 -0.4362 -0.0973
 9864SOL    HW141570   2.822   9.670   6.291  1.0197  0.3986  0.8393
 9864SOL    HW241571   2.688   9.666   6.360  0.0296  0.2981 -1.0249
 9865SOL     OW41572   9.879   7.647   6.302 -0.2686  0.0452  0.5109
 9865SOL    HW141573   9.828   7.650   6.383  0.4898  1.3579  0.9784
 9865SOL    HW241574   9.889   7.554   6.283 -0.1246 -0.3097  2.1500
 9866SOL     OW41575   8.775   2.555   7.859 -0.0701  0.1321 -0.0685
 9866SOL    HW141576   8.756   2.498   7.933  1.3192  0.3897  0.5170
 9866SOL    HW241577   8.818   2.499   7.795 -1.0252 -0.0284 -0.6012
 9867SOL     OW41578  10.288   5.654   5.137 -0.0724  0.1620  0.3225
 9867SOL    HW141579  10.308   5.593   5.208  0.0875  0.5786  0.6436
 9867SOL    HW241580  10.369   5.704   5.126 -0.0432 -0.0129 -0.2695
 9868SOL     OW41581   3.554   5.931   7.127 -0.3344  0.0656 -0.2754
 9868SOL    HW141582   3.478   5.872   7.124  0.3163 -0.9085  1.3243
 9868SOL    HW241583   3.629   5.874   7.110  0.1096  0.8996 -1.1726
 9869SOL     OW41584   6.003   0.100   3.725  0.1142 -0.5953  1.0579
 9869SOL    HW141585   5.908   0.113   3.723  0.0942 -0.5793  1.8547
 9869SOL    HW241586   6.032   0.124   3.637 -0.1931  2.5469  1.7218
 9870SOL     OW41587   3.736   2.103   6.736 -0.0033  0.2707 -0.1032
 9870SOL    HW141588   3.718   2.179   6.681  0.3816 -0.7870 -1.7388
 9870SOL    HW241589   3.695   2.029   6.690 -1.7935 -0.3310  2.2365
 9871SOL     OW41590   8.466   1.892   7.818  0.2112 -0.0145 -0.5914
 9871SOL    HW141591   8.531   1.860   7.755  0.6687 -1.6210  0.6200
 9871SOL    HW241592   8.429   1.812   7.856 -0.5064  0.9041  0.7280
 9872SOL     OW41593   7.204   4.936   1.753  0.4321  0.6115  0.7300
 9872SOL    HW141594   7.275   4.955   1.691 -0.6715  0.2741 -0.6654
 9872SOL    HW241595   7.232   4.855   1.797  1.0871  0.6858  0.4636
 9873SOL     OW41596   6.512   2.630   8.657 -0.5553  0.7852 -0.1791
 9873SOL    HW141597   6.579   2.604   8.720 -0.7003  2.5107  0.7526
 9873SOL    HW241598   6.538   2.588   8.575  0.6039 -0.1027  0.6195
 9874SOL     OW41599   5.318   5.885   2.874 -0.5854  0.0963 -0.0374
 9874SOL    HW141600   5.277   5.938   2.805 -1.8384 -1.4443 -0.5370
 9874SOL    HW241601   5.294   5.930   2.956 -1.7247  0.2483 -0.4372
 9875SOL     OW41602   2.915   0.147   4.808  0.0338 -0.3979  0.4702
 9875SOL    HW141603   2.901   0.082   4.738  1.1562 -0.3222  0.1539
 9875SOL    HW241604   2.860   0.221   4.782  1.6561  0.2927 -1.2634
 9876SOL     OW41605   8.955   3.004   9.570  0.5223  0.2689  0.2924
 9876SOL    HW141606   8.868   2.976   9.597  0.2510  0.4166 -0.4081
 9876SOL    HW241607   8.959   2.983   9.476  1.0070  0.8462  0.1788
 9877SOL     OW41608   3.999   2.077   6.775 -0.1703 -0.2405 -0.6076
 9877SOL    HW141609   4.049   2.147   6.734 -0.6448  1.0212  0.9029
 9877SOL    HW241610   3.909   2.110   6.777 -0.4886 -1.0977 -0.3212
 9878SOL     OW41611   4.389   1.919   9.452 -0.0061  0.0808  0.3132
 9878SOL    HW141612   4.305   1.906   9.497 -0.7446  0.3198 -0.9563
 9878SOL    HW241613   4.420   1.830   9.435 -1.2493 -0.0656 -1.4250
 9879SOL     OW41614   2.585   2.641   8.407  0.0578  0.3037  0.6180
 9879SOL    HW141615   2.553   2.646   8.497  1.2521 -0.5677  1.1163
 9879SOL    HW241616   2.677   2.668   8.412  0.4806 -0.9034 -0.1286
 9880SOL     OW41617   0.679   6.836   5.803 -0.6210 -0.1951 -0.4183
 9880SOL    HW141618   0.680   6.897   5.876  1.4965 -1.3377  0.6111
 9880SOL    HW241619   0.733   6.878   5.736 -0.9962  0.0149 -0.5934
 9881SOL     OW41620   6.305   3.403   3.982 -0.5282  0.5099  0.2266
 9881SOL    HW141621   6.215   3.403   4.012 -1.6623 -3.8518 -2.2255
 9881SOL    HW241622   6.302   3.443   3.895 -0.1105  0.4400  0.1743
 9882SOL     OW41623   9.089   9.640   9.816 -0.4947  0.2028 -0.2600
 9882SOL    HW141624   9.053   9.583   9.885 -0.4386 -0.5971 -0.8773
 9882SOL    HW241625   9.056   9.727   9.838 -0.5035 -0.0363  0.7657
 9883SOL     OW41626   7.355   7.242   5.612 -0.4601  0.2716  0.0070
 9883SOL    HW141627   7.269   7.266   5.577 -0.5902  0.5221  0.4878
 9883SOL    HW241628   7.411   7.234   5.534 -0.7686  0.7145 -0.2663
 9884SOL     OW41629   0.265   6.336   7.376  0.2475 -0.2011 -0.1209
 9884SOL    HW141630   0.323   6.328   7.452  1.1827 -3.1852 -1.0167
 9884SOL    HW241631   0.177   6.337   7.414  0.7341  1.5412  1.1053
 9885SOL     OW41632   1.339   5.639   1.440  0.0679 -0.6889  0.1237
 9885SOL    HW141633   1.392   5.616   1.364 -1.8717  0.8818 -1.8019
 9885SOL    HW241634   1.260   5.586   1.432  0.1673 -1.0871  1.5242
 9886SOL     OW41635   1.771   1.845   5.478 -0.3077  0.3987 -0.1633
 9886SOL    HW141636   1.858   1.885   5.486 -0.0240 -0.2707  0.2199
 9886SOL    HW241637   1.713   1.903   5.526  0.0361  0.5337  0.0914
 9887SOL     OW41638   2.346   5.299   7.542  0.1435 -0.2130 -0.3142
 9887SOL    HW141639   2.370   5.384   7.503  1.8488 -1.0891 -1.2733
 9887SOL    HW241640   2.409   5.286   7.612 -0.8323 -0.1946  0.5835
 9888SOL     OW41641   6.738   6.211   4.216  0.4059 -0.2413 -0.0498
 9888SOL    HW141642   6.659   6.157   4.213  0.5594 -0.6374  1.8097
 9888SOL    HW241643   6.809   6.148   4.230  0.7392  0.3263  0.8437
 9889SOL     OW41644   2.705   4.213   6.107 -0.3739  0.0826 -0.1949
 9889SOL    HW141645   2.626   4.178   6.147 -1.2750 -0.8675 -2.5953
 9889SOL    HW241646   2.703   4.306   6.126 -1.7141 -0.0404  0.3804
 9890SOL     OW41647   8.429   7.822   1.433  0.0075 -1.0720 -0.3791
 9890SOL    HW141648   8.353   7.876   1.412  1.8362  1.1952 -1.8284
 9890SOL    HW241649   8.438   7.762   1.359 -0.7084 -1.7802  0.1013
 9891SOL     OW41650   4.155   6.477   1.635  0.5784  0.3138 -0.1574
 9891SOL    HW141651   4.174   6.440   1.721 -0.8426 -0.1079 -0.0143
 9891SOL    HW241652   4.066   6.510   1.641  0.4880  0.3736 -1.4422
 9892SOL     OW41653   1.650   1.835   9.549 -0.5163 -0.3562  0.5986
 9892SOL    HW141654   1.658   1.744   9.518  0.4778  0.0890 -0.5499
 9892SOL    HW241655   1.557   1.854   9.544 -0.5629 -0.8331 -0.6184
 9893SOL     OW41656   9.214   8.138   8.067 -0.1698 -0.3103 -0.1712
 9893SOL    HW141657   9.276   8.067   8.085  0.0479 -0.3837 -1.1219
 9893SOL    HW241658   9.229   8.202   8.136  2.1509  0.4253 -1.2547
 9894SOL     OW41659   4.430   9.543   3.800 -0.3625  0.1639 -0.3365
 9894SOL    HW141660   4.382   9.565   3.880 -1.1482  0.0124 -0.7571
 9894SOL    HW241661   4.456   9.627   3.764 -1.2350  0.3098 -0.6545
 9895SOL     OW41662   7.599   0.353   9.633 -0.1344 -0.4080 -0.5045
 9895SOL    HW141663   7.572   0.331   9.722  3.0307 -0.8050  0.4798
 9895SOL    HW241664   7.564   0.283   9.579 -2.2776 -0.0542  0.3395
 9896SOL     OW41665   9.568   7.264   0.752  0.4374 -0.2909  0.0065
 9896SOL    HW141666   9.636   7.328   0.733 -0.2349  0.8073  1.1950
 9896SOL    HW241667   9.601   7.215   0.828  0.8833 -1.2950 -0.8036
 9897SOL     OW41668   6.557   6.106   8.507  0.3216 -0.4402  0.4276
 9897SOL    HW141669   6.492   6.174   8.488  0.1408 -0.6433  0.3240
 9897SOL    HW241670   6.641   6.149   8.491  0.2070 -0.2416  0.3546
 9898SOL     OW41671   7.415   6.941   4.505 -0.4674  0.7952 -0.0633
 9898SOL    HW141672   7.469   7.017   4.485 -0.2798  0.8397  0.5905
 9898SOL    HW241673   7.325   6.975   4.507 -0.4497  0.8657 -0.4205
 9899SOL     OW41674   7.422   3.386   6.636 -0.2304 -0.0753  0.5920
 9899SOL    HW141675   7.358   3.435   6.584 -0.7039 -0.3436  0.9047
 9899SOL    HW241676   7.484   3.351   6.573 -0.0057  0.7528  0.3429
 9900SOL     OW41677   2.421   1.259   3.618  0.0376  0.6631  0.5371
 9900SOL    HW141678   2.357   1.330   3.608  1.9996  2.4210 -0.3078
 9900SOL    HW241679   2.450   1.241   3.529 -0.0992 -0.9663  0.7864
 9901SOL     OW41680   0.409   9.381   2.794  0.3797 -0.6240 -0.2016
 9901SOL    HW141681   0.387   9.353   2.883  0.4842 -0.4799 -0.1320
 9901SOL    HW241682   0.487   9.434   2.804  0.5963 -0.8970 -0.4197
 9902SOL     OW41683   9.786   7.858   2.337  0.0243  0.0086  0.6777
 9902SOL    HW141684   9.778   7.769   2.370 -0.6093 -0.4450 -0.6159
 9902SOL    HW241685   9.697   7.891   2.335  0.1475  0.3219  0.2575
 9903SOL     OW41686   5.209   9.765   0.441 -0.0004 -0.6907 -0.0493
 9903SOL    HW141687   5.263   9.687   0.451  1.5118  0.3333  0.1561
 9903SOL    HW241688   5.215   9.809   0.525 -1.6881 -0.8478  0.1799
 9904SOL     OW41689   7.258   9.379   0.640 -0.0831  0.2347 -0.4696
 9904SOL    HW141690   7.248   9.451   0.703  0.5841  0.8822 -1.0925
 9904SOL    HW241691   7.237   9.417   0.555  1.8138  0.1288 -1.0292
 9905SOL     OW41692   7.412   5.366   6.832  0.0948  0.1194 -0.2103
 9905SOL    HW141693   7.328   5.412   6.835 -0.8886 -1.5816  2.6705
 9905SOL    HW241694   7.420   5.327   6.919  2.9034 -1.5089 -1.0973
 9906SOL     OW41695   0.759   2.675   1.232  0.3673 -0.3679  0.0989
 9906SOL    HW141696   0.665   2.671   1.211  0.4807  1.3403 -0.8408
 9906SOL    HW241697   0.794   2.593   1.196 -0.2884  0.2942 -2.2365
 9907SOL     OW41698   8.914   7.311   5.804  0.2979  0.0740 -0.0142
 9907SOL    HW141699   8.922   7.266   5.719  1.5826  0.0294  0.1074
 9907SOL    HW241700   8.993   7.285   5.852  0.7354  1.9152  0.3183
 9908SOL     OW41701   3.209   9.697   2.867  0.2352  0.3653 -0.4679
 9908SOL    HW141702   3.130   9.668   2.913 -0.1933  0.9586 -0.8196
 9908SOL    HW241703   3.280   9.684   2.930 -0.4250  1.7490  0.6036
 9909SOL     OW41704   4.456   3.798   3.705  0.2705  0.0089 -0.2707
 9909SOL    HW141705   4.493   3.864   3.647  1.0865  0.0429  0.2650
 9909SOL    HW241706   4.522   3.729   3.708  0.2929  0.0476  0.6587
 9910SOL     OW41707   2.992   8.283   0.632 -0.1862  0.7233 -0.3633
 9910SOL    HW141708   2.917   8.341   0.637  0.4692  1.8491 -2.4874
 9910SOL    HW241709   3.054   8.318   0.695 -0.9216  0.5271  0.4916
 9911SOL     OW41710   6.221   1.618   7.688 -0.1172 -0.0136  0.2723
 9911SOL    HW141711   6.224   1.559   7.762  0.2794 -1.3840 -0.7992
 9911SOL    HW241712   6.157   1.685   7.713  1.2531  0.5627  2.5298
 9912SOL     OW41713   9.210   4.817   2.611  0.0213  0.2320 -0.6935
 9912SOL    HW141714   9.280   4.819   2.676 -1.0867  1.0809  0.5446
 9912SOL    HW241715   9.229   4.891   2.553  0.9418 -0.4422 -1.2578
 9913SOL     OW41716   5.800   4.233   3.765 -0.3360 -0.0483 -0.0151
 9913SOL    HW141717   5.816   4.295   3.694 -0.5170 -0.6804 -0.6333
 9913SOL    HW241718   5.705   4.219   3.763 -0.4786  0.7030  1.0347
 9914SOL     OW41719   3.729   2.155   9.331 -0.3976  0.1979  0.4518
 9914SOL    HW141720   3.659   2.220   9.325  0.3080  1.0565  1.2668
 9914SOL    HW241721   3.739   2.139   9.425 -0.3379 -0.8517  0.2787
 9915SOL     OW41722   1.393   1.057   6.565 -0.1672  0.2195  0.1048
 9915SOL    HW141723   1.405   1.048   6.660 -0.5897 -2.1963  0.0030
 9915SOL    HW241724   1.322   1.121   6.556 -0.4848  0.0917  1.4379
 9916SOL     OW41725   0.573   9.954   3.248 -0.3391  0.3598 -0.0592
 9916SOL    HW141726   0.598   9.862   3.260 -1.7746 -0.1140 -0.5285
 9916SOL    HW241727   0.574   9.991   3.336  1.5226  0.2663  0.0049
 9917SOL     OW41728   0.440   6.582   4.496  0.2723  0.3993 -0.5643
 9917SOL    HW141729   0.407   6.590   4.585  1.3695  0.5323 -0.1578
 9917SOL    HW241730   0.520   6.529   4.504  0.0206 -0.1536 -1.5568
 9918SOL     OW41731   8.746   8.365  10.058  0.6534 -0.4674  0.4094
 9918SOL    HW141732   8.821   8.341  10.112  1.0147  0.1380  0.1973
 9918SOL    HW241733   8.745   8.461  10.061  1.0530 -0.4003 -1.1490
 9919SOL     OW41734   6.821   7.825   6.716 -0.0610 -0.1096  0.2204
 9919SOL    HW141735   6.912   7.852   6.729 -0.0113 -0.6329  1.0424
 9919SOL    HW241736   6.770   7.885   6.771 -0.2144  0.1360 -0.1818
 9920SOL     OW41737   5.941   6.930   7.963  0.5936  0.1951  0.2150
 9920SOL    HW141738   5.915   6.997   7.899  1.7499  0.2754 -0.2024
 9920SOL    HW241739   5.875   6.935   8.031 -0.8329 -0.0521 -1.0828
 9921SOL     OW41740   9.891  10.070   7.147 -0.3454 -0.4516 -0.1333
 9921SOL    HW141741   9.960  10.097   7.207  0.6941  1.5153 -2.0998
 9921SOL    HW241742   9.813  10.063   7.203  0.5784  1.1823  1.4821
 9922SOL     OW41743   2.676   6.585   6.424 -0.1864  0.4439 -0.7767
 9922SOL    HW141744   2.761   6.616   6.456  0.4693  1.9892 -3.6781
 9922SOL    HW241745   2.651   6.517   6.486  2.0871  1.4601  1.4522
 9923SOL     OW41746   4.216   4.944   5.049  0.1881  0.1499  0.0207
 9923SOL    HW141747   4.206   5.033   5.081  0.6026  0.7989 -1.5321
 9923SOL    HW241748   4.311   4.931   5.042  0.1264 -0.3175 -0.0241
 9924SOL     OW41749   9.945   1.634   3.127 -0.5132 -0.3693 -0.1579
 9924SOL    HW141750   9.973   1.542   3.129 -1.6991 -0.7386  0.2069
 9924SOL    HW241751  10.026   1.683   3.122  0.1116 -1.4877 -2.0091
 9925SOL     OW41752   9.044   3.338   9.334 -0.2217 -0.3202 -0.1331
 9925SOL    HW141753   9.073   3.254   9.299  2.2391 -0.2225  1.4784
 9925SOL    HW241754   9.112   3.364   9.395 -0.1704  3.5202 -1.5370
 9926SOL     OW41755   6.097   5.824   6.255 -0.2789  0.2283 -0.0799
 9926SOL    HW141756   6.011   5.832   6.297 -0.1774  0.2020  0.1336
 9926SOL    HW241757   6.133   5.913   6.256 -1.0215  0.5909 -1.7215
 9927SOL     OW41758   3.539   9.930   8.145  0.1969  0.2056 -0.5098
 9927SOL    HW141759   3.569   9.853   8.194  0.3478  0.4398 -0.2339
 9927SOL    HW241760   3.619   9.967   8.108  0.3741  1.2913  0.8799
 9928SOL     OW41761   1.942   8.619   7.500 -0.2830 -0.4819 -0.1728
 9928SOL    HW141762   1.870   8.676   7.527 -0.4851 -0.8851  0.1487
 9928SOL    HW241763   1.995   8.673   7.442 -0.2757  0.1414  0.4130
 9929SOL     OW41764   2.131   9.182   8.882  0.3083  0.1931 -0.0882
 9929SOL    HW141765   2.107   9.258   8.935  2.0201  1.5429 -1.1449
 9929SOL    HW241766   2.216   9.155   8.916  0.4469 -0.2437 -0.7550
 9930SOL     OW41767   1.896   4.661  10.229  0.8112  0.2342  0.4674
 9930SOL    HW141768   1.854   4.742  10.200  0.4691 -0.4999 -1.2729
 9930SOL    HW241769   1.834   4.623  10.291  0.3254  0.6353  0.2364
 9931SOL     OW41770   5.816   9.427   4.548 -0.1302  0.8336  0.0049
 9931SOL    HW141771   5.783   9.412   4.460  1.3001  1.6965 -0.7010
 9931SOL    HW241772   5.898   9.378   4.552 -0.4982  0.2558  1.1033
 9932SOL     OW41773   1.586   3.446   0.367  0.5970 -0.3639  0.2501
 9932SOL    HW141774   1.549   3.468   0.452 -0.2916  0.8213 -0.4146
 9932SOL    HW241775   1.518   3.471   0.304  1.0231 -1.6927 -0.7870
 9933SOL     OW41776   7.641   4.739   2.001  0.0720 -0.0215 -0.1311
 9933SOL    HW141777   7.551   4.719   1.976 -0.0735 -1.2094  1.1902
 9933SOL    HW241778   7.633   4.810   2.065  0.0537 -0.1862  0.0519
 9934SOL     OW41779   9.504   7.053   1.775  0.4003 -0.4101  0.0658
 9934SOL    HW141780   9.509   6.989   1.846 -0.3482  0.5228  0.9833
 9934SOL    HW241781   9.525   7.137   1.816 -3.1726  0.6971  0.0133
 9935SOL     OW41782   0.887   1.833   2.856 -0.3241 -0.0980  0.1696
 9935SOL    HW141783   0.973   1.863   2.885 -0.7649 -0.1634  1.6256
 9935SOL    HW241784   0.830   1.909   2.867 -0.3161  0.1726 -1.5102
 9936SOL     OW41785   4.413   5.618   1.878  0.1420 -0.3527  0.5355
 9936SOL    HW141786   4.478   5.685   1.857 -1.4466  1.7770  2.0159
 9936SOL    HW241787   4.423   5.603   1.972  0.2084 -1.9834  0.3018
 9937SOL     OW41788   0.253   5.958   1.747 -0.0160 -0.0079 -0.2498
 9937SOL    HW141789   0.271   5.892   1.680  1.4675  0.4147 -0.3041
 9937SOL    HW241790   0.161   5.943   1.770 -0.0623 -1.3060 -1.1045
 9938SOL     OW41791   4.029   6.928   7.099 -0.7584 -1.0951  0.0233
 9938SOL    HW141792   4.061   6.922   7.189 -3.8198  0.8518  1.4007
 9938SOL    HW241793   4.093   6.878   7.047  3.3269  0.8706  2.6117
 9939SOL     OW41794   3.232   6.920   6.362  0.1470 -0.1170 -0.3478
 9939SOL    HW141795   3.222   6.826   6.376  1.2913 -0.3755 -1.1077
 9939SOL    HW241796   3.261   6.953   6.447 -1.5751 -0.2030  0.3148
 9940SOL     OW41797   8.228   0.694   8.956 -0.0482  0.1061 -0.4736
 9940SOL    HW141798   8.266   0.609   8.980  0.9710  0.3994 -0.9933
 9940SOL    HW241799   8.146   0.671   8.912 -0.5068 -0.5406  0.6780
 9941SOL     OW41800   2.685   4.011   9.858  0.4977  0.1996 -0.2590
 9941SOL    HW141801   2.631   3.945   9.816  2.1073 -2.0123  0.9216
 9941SOL    HW241802   2.626   4.058   9.917 -0.8848  0.5849 -1.8691
 9942SOL     OW41803   0.008   3.039   6.191 -0.7398  0.0597  0.2709
 9942SOL    HW141804  -0.039   3.122   6.199  0.6792  0.9351 -0.1260
 9942SOL    HW241805  -0.009   3.011   6.101  2.5085  2.3677 -1.2508
 9943SOL     OW41806   7.829   7.683   3.221 -0.3721  0.2930 -0.1757
 9943SOL    HW141807   7.819   7.665   3.128 -2.0254  1.2971 -0.2363
 9943SOL    HW241808   7.859   7.773   3.225  1.1923 -0.2121  0.2664
 9944SOL     OW41809   5.913   0.777   7.591  0.3797  0.4314 -0.5761
 9944SOL    HW141810   5.890   0.684   7.600  0.3619  0.5864  1.4170
 9944SOL    HW241811   5.842   0.815   7.541 -0.3268 -0.3865 -0.2203
 9945SOL     OW41812   9.278   5.311   9.580 -0.7927 -0.2607 -0.7715
 9945SOL    HW141813   9.266   5.331   9.487  1.7683  0.6439 -0.9829
 9945SOL    HW241814   9.305   5.219   9.581  1.8357  0.4025 -1.2960
 9946SOL     OW41815   9.838   9.015   0.747 -0.2187  0.3308 -0.1776
 9946SOL    HW141816   9.852   8.977   0.660 -0.5959 -0.3125  0.0386
 9946SOL    HW241817   9.803   9.103   0.729 -0.3061  0.2005 -0.6765
 9947SOL     OW41818   7.250   8.117   6.605  0.4328 -0.0091  0.5790
 9947SOL    HW141819   7.303   8.177   6.658  2.0446 -0.3032 -0.5993
 9947SOL    HW241820   7.239   8.040   6.660 -0.5878  0.8596  1.6321
 9948SOL     OW41821   5.659   7.050   7.405  0.6809  0.6004 -0.8112
 9948SOL    HW141822   5.586   6.995   7.436  0.9207  0.1056 -1.1073
 9948SOL    HW241823   5.736   7.014   7.449  0.6525  1.5964  0.0822
 9949SOL     OW41824   1.420  10.298   4.813  0.5754  0.3645  0.4867
 9949SOL    HW141825   1.408  10.392   4.820  1.8723  0.5530  0.5481
 9949SOL    HW241826   1.507  10.288   4.773 -0.0817 -0.7942 -0.7404
 9950SOL     OW41827   1.458   5.530   6.784 -0.2741  0.0846  0.3364
 9950SOL    HW141828   1.504   5.473   6.846 -1.7601  0.5877  2.0066
 9950SOL    HW241829   1.509   5.524   6.703  0.5891 -2.2226  0.9725
 9951SOL     OW41830   2.597   8.689   9.005  0.3180 -0.1708 -0.0932
 9951SOL    HW141831   2.572   8.770   8.960  1.2262 -1.0641 -2.3554
 9951SOL    HW241832   2.560   8.619   8.952  1.7510 -1.3082  0.3179
 9952SOL     OW41833   8.608   2.207   3.356  0.0518 -0.3752 -0.1138
 9952SOL    HW141834   8.695   2.203   3.397  0.0875 -0.9588 -0.2306
 9952SOL    HW241835   8.618   2.271   3.286  0.5555 -0.8524 -0.4912
 9953SOL     OW41836   1.452   6.289   8.622  0.0768  0.0567  0.1366
 9953SOL    HW141837   1.412   6.279   8.536  1.7668 -0.1954 -0.6510
 9953SOL    HW241838   1.481   6.201   8.645  2.0031  0.5550 -0.2630
 9954SOL     OW41839   6.108   4.869   3.523 -0.2938 -0.3609  0.3733
 9954SOL    HW141840   6.147   4.891   3.608 -0.3201  1.0590  0.0439
 9954SOL    HW241841   6.117   4.948   3.471  0.1241 -1.3482 -1.1226
 9955SOL     OW41842   5.870   9.069   2.677 -0.0577 -0.2994  0.2574
 9955SOL    HW141843   5.881   8.983   2.637  0.5456 -0.9458  1.7686
 9955SOL    HW241844   5.813   9.055   2.752 -0.1006  0.6563  0.4246
 9956SOL     OW41845   5.806   6.555   8.670 -0.1494  0.3857 -0.6064
 9956SOL    HW141846   5.796   6.478   8.726  1.3535  0.9346  0.4700
 9956SOL    HW241847   5.731   6.551   8.611 -0.0271 -1.9641 -0.6779
 9957SOL     OW41848   7.359   5.829   6.817 -0.0898 -0.0800  0.8942
 9957SOL    HW141849   7.432   5.793   6.767 -0.0848  0.5848  0.4050
 9957SOL    HW241850   7.284   5.775   6.793  0.5360 -1.8680  2.6925
 9958SOL     OW41851   2.033   2.055   5.573  0.2938 -0.3546  0.1023
 9958SOL    HW141852   2.067   1.969   5.550 -1.7001 -1.0170 -0.6577
 9958SOL    HW241853   2.108   2.104   5.605  1.7601 -1.9080 -0.8233
 9959SOL     OW41854   8.185   5.935   9.150  0.5717  0.3727 -0.2949
 9959SOL    HW141855   8.232   5.949   9.068 -0.6244 -0.9915 -1.2633
 9959SOL    HW241856   8.202   5.843   9.171 -1.6558 -0.1828 -0.7168
 9960SOL     OW41857   6.339  10.218   3.440 -0.1447 -0.7575 -0.1417
 9960SOL    HW141858   6.276  10.273   3.486 -0.3580 -1.6798  0.6955
 9960SOL    HW241859   6.285  10.152   3.397  0.2365 -1.5328  0.5517
 9961SOL     OW41860   8.752   6.212   6.309  0.1630 -0.4422  0.0594
 9961SOL    HW141861   8.741   6.119   6.329  2.2076 -1.4680 -2.8592
 9961SOL    HW241862   8.714   6.222   6.222  0.1811  1.4194  0.2328
 9962SOL     OW41863   9.783   2.235   4.614 -0.2091 -0.3566 -0.3744
 9962SOL    HW141864   9.818   2.273   4.695 -1.4438 -2.1761  1.0926
 9962SOL    HW241865   9.860   2.223   4.558  1.0395 -1.0458  1.3949
 9963SOL     OW41866   0.482   5.673   7.029  0.0235  0.0235 -0.7505
 9963SOL    HW141867   0.471   5.615   7.105 -1.0806  0.8517 -0.2517
 9963SOL    HW241868   0.573   5.703   7.035 -0.3885  1.1231  1.0680
 9964SOL     OW41869   4.161   2.891   6.617 -0.3241  0.6023  0.1010
 9964SOL    HW141870   4.212   2.972   6.620  1.3959 -0.4521  0.5206
 9964SOL    HW241871   4.105   2.895   6.695  0.1811  1.1189  0.4410
 9965SOL     OW41872   3.329   2.145   0.117  0.1027  0.0899 -0.0310
 9965SOL    HW141873   3.336   2.194   0.034  1.2813  2.0215  1.1287
 9965SOL    HW241874   3.250   2.092   0.107  0.7607 -0.5174 -2.7785
 9966SOL     OW41875   5.760   0.879   8.257  0.3783 -0.1660 -0.4824
 9966SOL    HW141876   5.841   0.926   8.238  0.5107  0.5809  1.6106
 9966SOL    HW241877   5.706   0.891   8.179  2.1176 -0.3726 -1.7859
 9967SOL     OW41878   5.323   9.720   8.943  0.2322 -0.1896  0.1080
 9967SOL    HW141879   5.244   9.679   8.979  0.6643 -0.2199  1.0447
 9967SOL    HW241880   5.327   9.807   8.983  1.1500 -0.5215  0.7743
 9968SOL     OW41881   5.639   2.228   7.621  0.1943 -0.5148 -0.2695
 9968SOL    HW141882   5.588   2.200   7.544  1.7791 -0.9082 -1.2221
 9968SOL    HW241883   5.725   2.249   7.586  0.5098  0.8137  1.1949
 9969SOL     OW41884   7.202   9.473   5.400 -0.4608 -0.0176  0.2844
 9969SOL    HW141885   7.164   9.473   5.488  2.3946 -0.5320  1.6182
 9969SOL    HW241886   7.152   9.405   5.353 -0.3016 -1.7032  2.3723
 9970SOL     OW41887   0.649   2.263   9.369  0.5245  0.0148 -0.5022
 9970SOL    HW141888   0.722   2.201   9.374 -0.1984 -0.9108 -1.0167
 9970SOL    HW241889   0.597   2.244   9.447  0.6699  0.4585 -0.2982
 9971SOL     OW41890   2.138   9.741   6.013 -0.0212 -1.1546  0.4928
 9971SOL    HW141891   2.230   9.729   5.989  0.0805 -0.9824  0.7927
 9971SOL    HW241892   2.112   9.821   5.967 -0.5599 -2.2273 -1.1089
 9972SOL     OW41893   8.023   8.426   0.326  0.0137 -0.1929  0.1044
 9972SOL    HW141894   7.957   8.491   0.349 -0.2773 -0.7556  0.9248
 9972SOL    HW241895   8.103   8.455   0.369  0.3522  0.5553 -0.9907
 9973SOL     OW41896   7.484   5.711   6.391  0.8106  0.1858 -0.4247
 9973SOL    HW141897   7.509   5.658   6.315  0.7958  1.6543 -1.5106
 9973SOL    HW241898   7.562   5.713   6.446  0.8235 -0.8931 -0.3855
 9974SOL     OW41899   4.860   2.642   1.820  0.3197 -0.7651  0.0961
 9974SOL    HW141900   4.863   2.732   1.790  1.4385 -0.7889  0.0983
 9974SOL    HW241901   4.797   2.643   1.893  0.4108  0.0274  0.1735
 9975SOL     OW41902   9.565   5.384   9.499 -0.2799 -0.1658  0.4263
 9975SOL    HW141903   9.476   5.376   9.532 -1.6390  2.0120 -2.3331
 9975SOL    HW241904   9.596   5.468   9.532 -0.2899  0.3155 -0.7295
 9976SOL     OW41905   9.332   0.566   1.541  0.2646  0.0608 -0.0772
 9976SOL    HW141906   9.369   0.480   1.521  0.0244  0.4230 -2.3535
 9976SOL    HW241907   9.306   0.601   1.456 -1.4849  1.5681  1.0017
 9977SOL     OW41908   2.450   4.701   4.656 -0.1038 -0.1006 -0.1111
 9977SOL    HW141909   2.417   4.746   4.579 -3.4919 -2.8307 -0.4887
 9977SOL    HW241910   2.405   4.741   4.730  0.8472  0.4991  0.1674
 9978SOL     OW41911   5.583   3.295   9.876 -0.5242  0.7198  0.2607
 9978SOL    HW141912   5.584   3.201   9.894 -2.1728  0.7294  0.5161
 9978SOL    HW241913   5.673   3.324   9.893 -0.3210 -0.5559  1.5155
 9979SOL     OW41914   9.680   8.518   3.456  0.8924  0.4452  0.1919
 9979SOL    HW141915   9.618   8.545   3.524  0.0839  0.1942 -0.4406
 9979SOL    HW241916   9.658   8.427   3.438  1.9962  0.0865  0.5434
 9980SOL     OW41917   8.099   0.661   3.595  0.0194 -0.1471  0.7816
 9980SOL    HW141918   8.135   0.587   3.645  0.5758 -1.0732 -0.9079
 9980SOL    HW241919   8.176   0.709   3.565 -0.2177 -0.6624 -0.7000
 9981SOL     OW41920   3.122   7.434   5.868  0.5102 -0.3393  0.2652
 9981SOL    HW141921   3.128   7.410   5.960  0.2548  0.1577  0.4119
 9981SOL    HW241922   3.152   7.525   5.864  1.6876 -0.7365 -0.3201
 9982SOL     OW41923   4.442   0.948   2.301  0.2258 -0.0248  0.1505
 9982SOL    HW141924   4.519   1.000   2.325 -0.2631  1.0519 -0.5577
 9982SOL    HW241925   4.471   0.857   2.311  0.9113  0.3443  2.0271
 9983SOL     OW41926   0.332   5.803   4.558  0.4017 -0.5940 -0.2512
 9983SOL    HW141927   0.379   5.845   4.485  1.4147  0.2123  0.8261
 9983SOL    HW241928   0.242   5.836   4.550  0.3179 -1.0447 -1.5107
 9984SOL     OW41929   3.966   2.302   4.980  0.2989 -0.2908  0.1811
 9984SOL    HW141930   4.034   2.248   4.940  1.0193 -0.4831  1.6101
 9984SOL    HW241931   3.927   2.349   4.907  0.7015 -1.5690 -0.9042
 9985SOL     OW41932   5.997   7.846   8.725  0.3258  0.2239  0.3595
 9985SOL    HW141933   6.055   7.835   8.650 -0.9841  0.2610 -0.7027
 9985SOL    HW241934   5.990   7.941   8.737  0.9181  0.2121  0.8599
 9986SOL     OW41935   5.469   8.360   8.055 -0.6618 -0.1704 -0.8876
 9986SOL    HW141936   5.457   8.354   8.150 -0.6946 -0.4869 -0.9087
 9986SOL    HW241937   5.405   8.425   8.027 -1.3046 -0.7451 -0.8056
 9987SOL     OW41938   8.554   7.796   1.097  0.1081  0.6785 -0.1767
 9987SOL    HW141939   8.461   7.789   1.073  0.5778  0.9920 -2.2976
 9987SOL    HW241940   8.570   7.890   1.101  0.0033  0.6585  1.8336
 9988SOL     OW41941   1.398   7.826   8.697  0.2370  0.5146 -0.0197
 9988SOL    HW141942   1.325   7.860   8.645  0.0080  2.4183  1.4298
 9988SOL    HW241943   1.413   7.739   8.662 -2.2941  0.2999 -0.8239
 9989SOL     OW41944   1.546  10.171   5.960 -0.2717  0.2521  0.1383
 9989SOL    HW141945   1.462  10.145   5.924  0.1252 -0.8645 -0.0003
 9989SOL    HW241946   1.574  10.245   5.906 -0.8870  0.2561 -0.1793
 9990SOL     OW41947   0.496   7.542   5.710  0.0732 -0.7286 -0.1413
 9990SOL    HW141948   0.434   7.610   5.683  0.3295 -1.0810 -1.7084
 9990SOL    HW241949   0.557   7.587   5.769 -0.5570  0.0688 -0.0852
 9991SOL     OW41950   7.526   8.310   4.427 -0.0805 -0.0866  0.0075
 9991SOL    HW141951   7.562   8.323   4.515  3.2110  0.3732 -1.2541
 9991SOL    HW241952   7.529   8.216   4.413  1.3019 -0.0309 -0.2526
 9992SOL     OW41953   8.230   1.528   0.059 -0.1427  0.7544 -0.3312
 9992SOL    HW141954   8.196   1.617   0.052  0.3122  1.1314  1.6817
 9992SOL    HW241955   8.312   1.530   0.008 -0.3975  1.3229 -0.7300
 9993SOL     OW41956   9.454   3.766   5.719 -0.0405  0.2504  0.2380
 9993SOL    HW141957   9.508   3.833   5.678 -1.1708  1.1674  0.1967
 9993SOL    HW241958   9.424   3.711   5.647  1.1139 -0.4982  0.3021
 9994SOL     OW41959   2.609   9.471   9.346 -0.5218 -0.6508  0.2087
 9994SOL    HW141960   2.554   9.411   9.397  0.1902 -1.4938  0.0117
 9994SOL    HW241961   2.675   9.415   9.306 -1.1598 -0.0582 -1.8267
 9995SOL     OW41962   0.005   6.021   2.448  0.3861 -0.3459 -0.4785
 9995SOL    HW141963   0.015   6.103   2.495  2.4084 -1.0074  0.3543
 9995SOL    HW241964   0.031   5.954   2.511  1.3673 -1.4142 -1.9653
 9996SOL     OW41965   6.991   8.258   9.867  0.7120  0.4804  0.2398
 9996SOL    HW141966   6.964   8.301   9.785  0.2155 -0.7227 -0.2520
 9996SOL    HW241967   7.086   8.253   9.861  0.6193 -0.5533 -0.7881
 9997SOL     OW41968   2.908   7.948   6.379  0.0422 -0.6233 -0.5327
 9997SOL    HW141969   2.955   8.015   6.430 -0.3823  0.7713 -1.9131
 9997SOL    HW241970   2.960   7.868   6.391  1.8023  0.4616 -0.6057
 9998SOL     OW41971   6.484   8.599   2.445  0.1551  0.5897  0.0711
 9998SOL    HW141972   6.567   8.559   2.420  0.0597  0.7691 -0.5425
 9998SOL    HW241973   6.444   8.536   2.505  0.3691  0.1288 -0.2646
 9999SOL     OW41974   4.694   2.777   3.646 -0.4281 -0.4237  0.1983
 9999SOL    HW141975   4.771   2.720   3.640  0.5137  0.8613 -0.3612
 9999SOL    HW241976   4.676   2.802   3.555  1.8673  3.5597  0.6079
10000SOL     OW41977   9.626   9.727   1.796 -0.0837 -0.2025 -0.0472
10000SOL    HW141978   9.574   9.806   1.782  1.6545  0.9454 -0.2564
10000SOL    HW241979   9.631   9.686   1.709 -1.2494 -0.7344  0.1232
10001SOL     OW41980   3.501   6.736   7.331  0.7365  0.1678 -0.4738
10001SOL    HW141981   3.500   6.832   7.334  2.2662  0.2393 -1.0826
10001SOL    HW241982   3.413   6.711   7.305 -0.8159  1.2187  3.0950
10002SOL     OW41983   2.042   2.525   3.802 -0.2775 -0.1300  0.0792
10002SOL    HW141984   2.006   2.583   3.869  0.3797 -1.1991  1.4225
10002SOL    HW241985   2.005   2.557   3.720 -0.6158  1.6207  0.8677
10003SOL     OW41986   6.600   6.175   8.194  0.1711 -0.3224 -0.3503
10003SOL    HW141987   6.664   6.187   8.264 -0.8817  1.7207  0.3668
10003SOL    HW241988   6.524   6.136   8.237 -0.1857  0.1852 -0.5001
10004SOL     OW41989   6.093   9.012   9.330 -0.2499  0.4675 -0.0084
10004SOL    HW141990   6.007   9.004   9.371 -0.3401  1.2690 -0.0283
10004SOL    HW241991   6.140   9.076   9.384  0.3954 -0.0780  0.0979
10005SOL     OW41992   6.345   5.406   4.063 -0.2112  0.0957 -0.7638
10005SOL    HW141993   6.362   5.477   4.001  0.5191  1.1581  0.5874
10005SOL    HW241994   6.402   5.335   4.034 -1.4525 -0.2235 -2.5377
10006SOL     OW41995   1.584   9.913   0.800  0.0766  0.8178 -0.4102
10006SOL    HW141996   1.492   9.890   0.791 -0.3410  2.1932  0.0448
10006SOL    HW241997   1.586  10.008   0.785  1.9558  0.3604 -4.5039
10007SOL     OW41998   7.654   0.812   2.691  0.2851  0.3594 -0.0078
10007SOL    HW141999   7.595   0.878   2.728  1.1277  1.1896 -0.1126
10007SOL    HW242000   7.598   0.760   2.633 -0.2341  1.4855 -0.5470
10008SOL     OW42001   4.227   6.675   6.278  0.3731 -0.3706 -0.2615
10008SOL    HW142002   4.138   6.641   6.266  1.4223 -3.0418 -0.9831
10008SOL    HW242003   4.233   6.748   6.215 -1.9014  1.2788  1.2572
10009SOL     OW42004   9.120   5.418   1.178 -0.1349 -0.5383  0.1080
10009SOL    HW142005   9.145   5.507   1.202 -1.2956 -0.0755 -0.3141
10009SOL    HW242006   9.143   5.411   1.085  3.4690 -2.0016  0.9510
10010SOL     OW42007   4.271  10.119   8.345 -0.1551 -0.4811 -0.3679
10010SOL    HW142008   4.282  10.038   8.296  0.6638 -0.4810 -0.1984
10010SOL    HW242009   4.272  10.091   8.437  1.4377 -0.1511 -0.2650
10011SOL     OW42010   7.175   2.497   5.117  0.1407  0.1755  0.4471
10011SOL    HW142011   7.129   2.433   5.171  1.3957 -0.5943  0.6533
10011SOL    HW242012   7.230   2.546   5.178 -1.4500  2.0963  0.4199
10012SOL     OW42013   3.541   7.479   3.320 -0.0514 -0.0249  0.1503
10012SOL    HW142014   3.532   7.434   3.404  2.7861 -2.0989 -0.5153
10012SOL    HW242015   3.513   7.414   3.255 -0.6411  0.9848 -0.6413
10013SOL     OW42016   8.828   0.210   0.280 -0.3033 -0.1117  0.3372
10013SOL    HW142017   8.860   0.233   0.367  1.3624 -0.9799 -0.0027
10013SOL    HW242018   8.733   0.216   0.287 -0.1338  2.8897  1.3237
10014SOL     OW42019   4.352   8.658  10.290 -0.2050 -0.1127 -0.5016
10014SOL    HW142020   4.350   8.736  10.345 -0.8492 -0.6240  0.2194
10014SOL    HW242021   4.444   8.647  10.267  0.2553 -0.4957  1.3683
10015SOL     OW42022   5.804   2.594   1.671  0.5124 -0.3754 -0.5330
10015SOL    HW142023   5.755   2.541   1.609 -0.4750  0.7272 -0.7313
10015SOL    HW242024   5.739   2.619   1.737  1.1382 -0.0648 -0.0243
10016SOL     OW42025   4.681   8.842   4.219  0.5726 -0.1112  0.8192
10016SOL    HW142026   4.775   8.822   4.225  1.1520  2.7479  4.0930
10016SOL    HW242027   4.640   8.781   4.280  0.4353 -0.4798  0.3678
10017SOL     OW42028   7.188   8.531   9.213  0.2313  0.4200  0.2074
10017SOL    HW142029   7.164   8.443   9.242  0.4200  0.1019 -0.5960
10017SOL    HW242030   7.230   8.518   9.129 -1.0106  1.3982 -0.5954
10018SOL     OW42031   3.626   2.326   1.379  0.2647  0.3965 -0.5332
10018SOL    HW142032   3.575   2.396   1.420  1.2901  0.0171  1.4676
10018SOL    HW242033   3.562   2.256   1.363 -0.2296  0.6954  0.0949
10019SOL     OW42034   4.121   3.057   6.354 -0.4669  0.0777  0.9202
10019SOL    HW142035   4.136   3.141   6.309  1.9686 -0.7533  0.0336
10019SOL    HW242036   4.161   3.069   6.440 -1.7259  0.3744  1.4937
10020SOL     OW42037  10.201   8.876   6.285 -0.0087  0.2562 -0.2956
10020SOL    HW142038  10.197   8.849   6.193 -1.0478 -0.4175 -0.0678
10020SOL    HW242039  10.252   8.806   6.328 -2.1071 -1.0940  0.1652
10021SOL     OW42040   3.460   9.796   4.521  0.2578 -0.3383 -0.2105
10021SOL    HW142041   3.512   9.857   4.469  0.3558 -0.2625 -0.0229
10021SOL    HW242042   3.518   9.768   4.592  0.0355 -0.2292  0.0186
10022SOL     OW42043   2.304   8.583   6.640 -0.1710  0.2223  0.1222
10022SOL    HW142044   2.254   8.571   6.721 -0.3121  1.4885  0.2509
10022SOL    HW242045   2.381   8.528   6.651  0.5306  1.4553  1.7694
10023SOL     OW42046   6.395   7.171   1.202  0.2890  0.0037 -0.6256
10023SOL    HW142047   6.451   7.095   1.218  1.2259  0.9243  0.5630
10023SOL    HW242048   6.307   7.140   1.223  0.4380 -1.1599 -1.5476
10024SOL     OW42049   9.388   6.952   7.780 -0.4705  0.1302 -0.4501
10024SOL    HW142050   9.344   6.869   7.798  0.2990 -0.5636 -1.7246
10024SOL    HW242051   9.317   7.012   7.756 -0.9478 -0.3673 -0.2888
10025SOL     OW42052   0.321   3.584   3.326  0.6046  1.0817 -0.1813
10025SOL    HW142053   0.367   3.658   3.367  1.4149  1.1527 -1.1821
10025SOL    HW242054   0.347   3.588   3.234  0.1892 -0.1080 -0.3614
10026SOL     OW42055   4.258   5.761  10.365  1.0021  0.3287  0.1863
10026SOL    HW142056   4.192   5.757  10.296  1.0791  1.2853  0.0424
10026SOL    HW242057   4.267   5.671  10.395  0.1579  0.0764 -0.2887
10027SOL     OW42058   8.031   1.627   5.463 -0.6601  0.5213  0.3375
10027SOL    HW142059   8.045   1.574   5.385  0.4532  1.5904 -0.2236
10027SOL    HW242060   7.968   1.577   5.515 -1.4538 -0.2042 -1.2479
10028SOL     OW42061   9.456   4.584   2.563  0.0626  0.2600 -0.4325
10028SOL    HW142062   9.444   4.668   2.520 -1.1281 -0.6046 -1.8511
10028SOL    HW242063   9.542   4.553   2.533  0.9827  1.3678  0.8936
10029SOL     OW42064   8.524   7.320   2.902 -0.3857 -0.1597 -0.9738
10029SOL    HW142065   8.511   7.390   2.838  1.3976  1.5014  0.3634
10029SOL    HW242066   8.530   7.365   2.986 -0.9286 -2.1159  0.1868
10030SOL     OW42067   2.915   1.103   4.194  0.5387 -0.2461 -0.2237
10030SOL    HW142068   2.930   1.179   4.137  1.1181 -0.1707  0.0247
10030SOL    HW242069   2.970   1.034   4.157  0.5546 -0.3341 -0.0348
10031SOL     OW42070   3.458   8.264   1.003  0.2766 -0.0036  0.2457
10031SOL    HW142071   3.535   8.208   1.018 -0.1318 -0.7814 -0.4675
10031SOL    HW242072   3.435   8.297   1.090  1.5215  0.3900  0.4442
10032SOL     OW42073   8.260   3.096   1.353 -0.0682 -0.5667 -0.3227
10032SOL    HW142074   8.201   3.021   1.357 -0.3574 -0.3259  0.1094
10032SOL    HW242075   8.242   3.144   1.434  1.4436 -1.0283  0.3097
10033SOL     OW42076   2.473   8.672   7.785 -0.0859 -0.0820 -0.2935
10033SOL    HW142077   2.437   8.618   7.856 -0.3149  0.8260  0.2980
10033SOL    HW242078   2.424   8.645   7.708  0.1789 -1.1021 -0.1175
10034SOL     OW42079   1.497   3.410   3.979  0.3134 -0.5371  0.4234
10034SOL    HW142080   1.531   3.333   3.935 -1.5153 -1.3004  0.2774
10034SOL    HW242081   1.439   3.451   3.914  1.3475  1.0579  0.4499
10035SOL     OW42082   0.600   5.088   9.054 -0.1777  0.3297  0.1784
10035SOL    HW142083   0.636   5.078   9.142  0.0004 -1.5995 -0.0708
10035SOL    HW242084   0.508   5.064   9.063  0.1052 -1.0335 -0.3496
10036SOL     OW42085   9.093  10.314   8.090  0.0641 -0.1690 -0.2226
10036SOL    HW142086   9.109  10.353   8.176  0.4720  1.4922 -1.0121
10036SOL    HW242087   9.177  10.321   8.044 -0.4519  0.0821 -1.1648
10037SOL     OW42088   1.664   8.693   7.860  0.4408  0.3619 -0.4127
10037SOL    HW142089   1.570   8.701   7.876  0.6735  0.6923  0.9384
10037SOL    HW242090   1.687   8.609   7.900  0.6300  0.0063 -1.2524
10038SOL     OW42091   9.209   0.524   7.122 -0.5435 -0.6998  0.0686
10038SOL    HW142092   9.286   0.481   7.162  1.0090  0.0042 -1.9839
10038SOL    HW242093   9.141   0.518   7.189  1.3310 -1.2447  2.0429
10039SOL     OW42094   1.850   3.516   0.608 -0.2806  0.0646  0.3214
10039SOL    HW142095   1.814   3.484   0.691 -2.2324  0.9263 -0.1460
10039SOL    HW242096   1.820   3.607   0.602 -0.1441  0.0322 -1.3084
10040SOL     OW42097   1.056   6.916   3.228 -0.0824  0.7015  0.0951
10040SOL    HW142098   0.979   6.947   3.181 -1.2589  0.5413  1.8209
10040SOL    HW242099   1.073   6.829   3.193 -1.2870  0.3511  0.3695
10041SOL     OW42100   9.659   8.667  10.123 -0.1720 -0.8130  0.1056
10041SOL    HW142101   9.742   8.649  10.079 -0.4950 -1.5209 -0.2236
10041SOL    HW242102   9.651   8.598  10.188 -0.5738 -0.8307  0.0373
10042SOL     OW42103   7.813   9.098   4.003  0.1625 -0.1286 -0.1066
10042SOL    HW142104   7.857   9.143   3.931  2.8013 -1.9075  0.2398
10042SOL    HW242105   7.737   9.152   4.022  1.7900  2.8169 -1.2850
10043SOL     OW42106   0.326   1.337  10.057 -0.1306 -0.0186 -0.5545
10043SOL    HW142107   0.242   1.326  10.101 -0.3861  0.9872 -0.7697
10043SOL    HW242108   0.349   1.249  10.027 -1.2849 -0.2555 -0.8020
10044SOL     OW42109   6.471   0.665   4.934 -0.3044 -0.2814  0.1687
10044SOL    HW142110   6.433   0.751   4.919 -1.8957 -1.0552 -0.5026
10044SOL    HW242111   6.529   0.677   5.009  2.2249  2.0992 -1.9625
10045SOL     OW42112   0.702  10.370   6.240 -0.1215  0.3779  0.0602
10045SOL    HW142113   0.611  10.339   6.247  0.7991 -2.9528 -1.2573
10045SOL    HW242114   0.743  10.340   6.321  0.1880  0.5563 -0.0317
10046SOL     OW42115   8.037   7.981   3.546  0.6702 -0.9472 -0.5405
10046SOL    HW142116   7.955   8.021   3.576  0.9889  0.4438 -1.4137
10046SOL    HW242117   8.088   7.969   3.627  0.3662 -0.0089 -0.1915
10047SOL     OW42118   2.140   2.628   9.216 -0.5402 -0.0690  0.6596
10047SOL    HW142119   2.079   2.593   9.282 -0.1101 -0.1563  1.0125
10047SOL    HW242120   2.083   2.677   9.156 -0.7477  1.7861  2.2365
10048SOL     OW42121   3.602   7.001   7.031 -0.5104  0.4768 -0.4133
10048SOL    HW142122   3.647   6.936   6.977 -0.7713 -0.1447  0.1039
10048SOL    HW242123   3.662   7.017   7.104 -1.5660 -1.2201  0.9010
10049SOL     OW42124   8.965   2.200   4.973 -0.0889 -0.1301  0.1931
10049SOL    HW142125   9.029   2.237   5.034 -2.1501  0.0026  2.3984
10049SOL    HW242126   8.913   2.140   5.026 -1.3029 -0.8280 -1.7070
10050SOL     OW42127   4.205  10.066   8.613 -0.7440  0.4417  0.1235
10050SOL    HW142128   4.126  10.042   8.566 -0.3372 -0.4424 -0.1320
10050SOL    HW242129   4.199  10.019   8.696 -0.2933  0.0368 -0.0697
10051SOL     OW42130   1.361   4.682   2.380  0.4598 -0.4755 -0.1106
10051SOL    HW142131   1.360   4.774   2.354  0.8827  0.0774  1.6943
10051SOL    HW242132   1.270   4.662   2.401  0.4697 -0.2656  0.1365
10052SOL     OW42133   3.422   8.246   2.281  0.4482 -0.5093  0.8169
10052SOL    HW142134   3.388   8.328   2.316  1.8160  0.8141 -0.7938
10052SOL    HW242135   3.502   8.229   2.331  1.5299  0.5285 -0.4893
10053SOL     OW42136   0.825   6.322   0.684 -0.4156 -0.0996 -0.2669
10053SOL    HW142137   0.735   6.303   0.712 -0.4434  0.7605  0.2669
10053SOL    HW242138   0.879   6.266   0.740 -0.6160 -0.7738 -0.7301
10054SOL     OW42139   6.606   9.440   6.900 -0.3151 -0.2173  0.9798
10054SOL    HW142140   6.571   9.355   6.871 -1.2194  0.0652  1.2356
10054SOL    HW242141   6.578   9.448   6.991 -0.6505  0.5753  0.8140
10055SOL     OW42142   0.623   7.566   0.811  0.2210  0.1487 -0.1901
10055SOL    HW142143   0.610   7.559   0.905  1.3568 -1.7008 -0.1224
10055SOL    HW242144   0.540   7.602   0.778  0.1926  1.8700  1.5763
10056SOL     OW42145   0.310   1.551   8.490  0.7466 -0.5279  0.6021
10056SOL    HW142146   0.355   1.614   8.546  2.1681 -0.9718 -0.0076
10056SOL    HW242147   0.372   1.479   8.480 -0.1249 -1.1816 -0.2245
10057SOL     OW42148   6.463   0.041   0.268  0.5676  0.1103  0.1240
10057SOL    HW142149   6.464  -0.054   0.280  0.4541  0.1017  0.0683
10057SOL    HW242150   6.551   0.063   0.239  0.6462  0.0438  0.3071
10058SOL     OW42151   0.588   9.181   2.963  0.9377 -0.1314 -0.3216
10058SOL    HW142152   0.614   9.127   2.888 -0.0209 -1.1941  0.0798
10058SOL    HW242153   0.505   9.143   2.992  1.4913  0.0210  1.5413
10059SOL     OW42154   1.205   4.452   4.491  0.3031  0.2589  0.2869
10059SOL    HW142155   1.175   4.414   4.408 -1.0461  0.9432  0.4305
10059SOL    HW242156   1.169   4.541   4.490  0.5390  0.3711  1.4664
10060SOL     OW42157   8.357  10.223   2.465  0.9171  0.1440 -0.0544
10060SOL    HW142158   8.321  10.200   2.550  0.0825  3.9859  0.8218
10060SOL    HW242159   8.448  10.247   2.482  0.6494  1.2642 -0.1496
10061SOL     OW42160   0.695   3.908   9.618 -0.0958 -0.2822  0.1803
10061SOL    HW142161   0.695   3.987   9.564  1.0181  0.3997  1.1065
10061SOL    HW242162   0.751   3.846   9.571  1.9294  0.7529  1.0606
10062SOL     OW42163   1.246   0.510   0.155 -0.2177  0.1448 -0.1776
10062SOL    HW142164   1.294   0.494   0.236 -0.1104  2.0005  0.1685
10062SOL    HW242165   1.220   0.602   0.160 -1.7239 -0.1583 -1.4657
10063SOL     OW42166   8.306   6.033   2.111  0.2518 -0.3905  0.5570
10063SOL    HW142167   8.396   6.049   2.139  0.7530 -0.5310 -0.8811
10063SOL    HW242168   8.252   6.077   2.177  1.4097  1.1773  0.5066
10064SOL     OW42169   6.606   1.288   0.422 -0.1004  0.1995  0.3032
10064SOL    HW142170   6.621   1.196   0.444 -0.1269  0.3328  0.8832
10064SOL    HW242171   6.694   1.327   0.425  0.0471  0.0016 -0.8780
10065SOL     OW42172   3.013   9.395  10.059  0.2615  0.6987 -0.1212
10065SOL    HW142173   3.009   9.471  10.001  1.7637  0.5103 -0.5062
10065SOL    HW242174   3.070   9.421  10.130 -1.4113  0.8532  1.2361
10066SOL     OW42175   0.416  10.172   6.922  0.5646 -0.8531  0.3123
10066SOL    HW142176   0.437  10.088   6.881 -1.7049 -0.6714 -1.4133
10066SOL    HW242177   0.404  10.232   6.849 -0.7669  0.2435  1.3849
10067SOL     OW42178   4.398   6.152   8.305 -0.4035  0.1678  0.0674
10067SOL    HW142179   4.476   6.207   8.302 -0.4165  0.1554 -0.6143
10067SOL    HW242180   4.418   6.078   8.249  0.8798 -2.2734  3.3951
10068SOL     OW42181   0.799   9.087   3.119 -0.0211  0.2382  0.1031
10068SOL    HW142182   0.723   9.074   3.175  0.5262 -1.1186  0.5740
10068SOL    HW242183   0.763   9.118   3.036 -1.1493 -0.9268  0.1250
10069SOL     OW42184   4.307   0.679   4.803  0.2445  1.0023 -0.0618
10069SOL    HW142185   4.287   0.768   4.775  3.0587  2.1681  1.2405
10069SOL    HW242186   4.365   0.645   4.735 -1.0340  0.0193 -0.6919
10070SOL     OW42187   9.833   9.040   2.313 -0.1941 -0.3186 -0.1362
10070SOL    HW142188   9.888   9.018   2.388  1.6043 -0.1183 -1.3189
10070SOL    HW242189   9.876   8.996   2.239 -0.3451  1.6335 -1.4672
10071SOL     OW42190  10.339   5.751   5.883  0.2416 -0.2607 -0.2970
10071SOL    HW142191  10.254   5.786   5.855 -0.5217  0.3068  2.4202
10071SOL    HW242192  10.367   5.695   5.811 -1.4542  1.1159 -2.1453
10072SOL     OW42193   0.286   5.525   1.393  0.2040  0.3624  0.7340
10072SOL    HW142194   0.379   5.522   1.416  0.2669 -1.1835  0.3874
10072SOL    HW242195   0.242   5.548   1.475  0.8380  0.5124  1.0403
10073SOL     OW42196   8.169   0.522   7.973  0.2468 -0.5453  0.1632
10073SOL    HW142197   8.125   0.592   7.926 -1.2065 -0.0167  2.1325
10073SOL    HW242198   8.244   0.563   8.015  0.6299 -0.6573 -0.4129
10074SOL     OW42199   7.874   1.375   9.847  0.2169  0.2011 -0.1670
10074SOL    HW142200   7.946   1.400   9.790 -0.2914 -0.5770 -1.1725
10074SOL    HW242201   7.883   1.280   9.857 -1.0107  0.0108 -0.7829
10075SOL     OW42202   2.187   6.837   9.228 -0.2046 -0.1050  0.0351
10075SOL    HW142203   2.135   6.908   9.189  0.0372  0.7362  1.2075
10075SOL    HW242204   2.191   6.771   9.159 -0.8515  0.8068 -0.9196
10076SOL     OW42205  10.052   7.655   9.059 -0.0969  0.2820  0.5825
10076SOL    HW142206   9.960   7.637   9.038  0.1199  1.1857 -1.3523
10076SOL    HW242207  10.101   7.584   9.017  0.1888  0.6318  0.3240
10077SOL     OW42208   1.721   8.152   7.237  0.6374  0.5980  0.3001
10077SOL    HW142209   1.742   8.069   7.195 -1.5168  0.1324  0.0261
10077SOL    HW242210   1.727   8.217   7.168 -1.3502  0.0599 -0.4643
10078SOL     OW42211   0.478   4.858   4.916 -0.2199 -0.4058 -0.4010
10078SOL    HW142212   0.550   4.836   4.977  0.1554  0.7613 -0.3934
10078SOL    HW242213   0.413   4.789   4.931  0.4553 -0.9169  0.3342
10079SOL     OW42214   9.251   4.525   3.556  0.1145 -0.4589  0.3681
10079SOL    HW142215   9.301   4.445   3.574  0.8718  0.1627  1.1143
10079SOL    HW242216   9.260   4.577   3.635  0.0288  0.5788 -0.2855
10080SOL     OW42217   5.703   3.450   1.993 -0.3795  0.1277 -0.2749
10080SOL    HW142218   5.796   3.471   2.002 -0.2314 -0.9520  1.0787
10080SOL    HW242219   5.668   3.455   2.082 -0.1400 -5.8010  0.5855
10081SOL     OW42220   1.254  10.292   6.586  0.3716  0.5449  0.2036
10081SOL    HW142221   1.166  10.257   6.576  0.3698  0.5799  0.0969
10081SOL    HW242222   1.276  10.275   6.677  0.7630 -0.6692 -0.0881
10082SOL     OW42223   5.306   3.426   8.236 -0.5701  0.4631  0.3913
10082SOL    HW142224   5.348   3.349   8.199 -2.8111  0.2189 -1.8784
10082SOL    HW242225   5.287   3.402   8.326 -0.2367 -1.2041  0.0505
10083SOL     OW42226   5.287   0.746   2.457 -0.0378  0.4449 -0.4458
10083SOL    HW142227   5.341   0.719   2.383  2.2752  0.5949  1.1034
10083SOL    HW242228   5.280   0.667   2.512 -0.3277  0.7649 -0.0155
10084SOL     OW42229   9.961   0.085   6.262 -0.1320 -0.0254  0.4078
10084SOL    HW142230   9.948   0.023   6.191  1.3255  1.4564 -1.2248
10084SOL    HW242231   9.931   0.169   6.227  1.8425  0.9931  1.0399
10085SOL     OW42232   0.631  10.297   2.630 -0.4598 -0.1641  0.2267
10085SOL    HW142233   0.537  10.280   2.638 -0.6173  0.1369 -0.9018
10085SOL    HW242234   0.654  10.335   2.715 -1.4892  0.3719  0.2913
10086SOL     OW42235   7.904   0.800   3.747  0.1756 -0.3239  0.0814
10086SOL    HW142236   7.950   0.720   3.724  1.9687  0.2427  1.4975
10086SOL    HW242237   7.931   0.864   3.681  0.2640 -0.3823  0.0615
10087SOL     OW42238   5.989   9.521   8.945 -0.0385 -0.0125 -0.8642
10087SOL    HW142239   5.951   9.445   8.901 -0.2780  0.5953 -1.7521
10087SOL    HW242240   5.916   9.562   8.990 -0.6097  1.4051 -2.9336
10088SOL     OW42241   9.743   3.862   7.962  0.2842  0.0597  0.3248
10088SOL    HW142242   9.659   3.905   7.947  0.0329 -0.6882 -0.4783
10088SOL    HW242243   9.735   3.823   8.050 -0.2942 -0.2033  0.1570
10089SOL     OW42244   3.050   3.882   7.739 -0.2580 -0.1861  0.4049
10089SOL    HW142245   3.071   3.914   7.651 -1.9546 -1.5739 -0.5644
10089SOL    HW242246   2.987   3.945   7.774  0.2184  0.2222  0.5438
10090SOL     OW42247   8.862   4.131   6.289 -0.4872 -0.4822 -0.4103
10090SOL    HW142248   8.940   4.129   6.345 -1.2951 -1.3763  0.7274
10090SOL    HW242249   8.842   4.039   6.273 -0.6466 -0.2507 -1.6799
10091SOL     OW42250   5.996   6.850   6.791 -0.6723  0.0581  0.1313
10091SOL    HW142251   6.061   6.796   6.835 -0.7915  0.3615  0.6901
10091SOL    HW242252   6.007   6.937   6.829 -0.1324  0.5640 -1.1301
10092SOL     OW42253  10.187   2.002  10.286  0.7385 -0.3374 -0.0054
10092SOL    HW142254  10.249   2.075  10.298  0.1845  0.0088  0.8753
10092SOL    HW242255  10.101   2.043  10.296  0.3878 -0.9525 -0.4763
10093SOL     OW42256   5.770   4.910   7.770  0.5146 -0.6872 -0.5301
10093SOL    HW142257   5.861   4.938   7.764  0.4127 -0.3519 -0.5322
10093SOL    HW242258   5.766   4.828   7.721  0.3670  0.3633 -2.3233
10094SOL     OW42259   8.063   2.342   6.357 -0.1649  0.1293 -0.3815
10094SOL    HW142260   7.978   2.318   6.395 -0.1708 -1.0202 -1.0771
10094SOL    HW242261   8.066   2.295   6.273  1.1132  0.2426 -0.4172
10095SOL     OW42262   0.489  10.060   5.878 -0.0773  0.1181 -0.1966
10095SOL    HW142263   0.414  10.044   5.936 -1.0230 -0.5760 -1.5534
10095SOL    HW242264   0.564  10.027   5.928 -0.9573 -1.1564  0.3608
10096SOL     OW42265   4.132   6.668   6.604  0.3681  0.1762 -0.2531
10096SOL    HW142266   4.107   6.742   6.661 -1.7872 -0.6030 -0.0732
10096SOL    HW242267   4.053   6.614   6.600  0.8673 -0.4872 -2.9704
10097SOL     OW42268   9.674   6.061   0.960 -0.3241 -0.4073  0.4079
10097SOL    HW142269   9.755   6.112   0.966 -0.7580  0.2893  0.4755
10097SOL    HW242270   9.642   6.056   1.049 -1.3889  1.0595  0.1493
10098SOL     OW42271   7.077   4.772   6.258 -0.1210  0.3977 -0.4207
10098SOL    HW142272   7.126   4.851   6.283 -0.5925  0.4739  0.2997
10098SOL    HW242273   7.038   4.794   6.174 -1.1484  1.3587  0.2862
10099SOL     OW42274   5.794   8.553   9.513  0.3589  0.0164 -0.4100
10099SOL    HW142275   5.868   8.491   9.512  0.3500 -0.0243  0.4506
10099SOL    HW242276   5.803   8.599   9.597 -0.6493 -0.0568 -0.2483
10100SOL     OW42277   4.187   0.652   8.555  0.0821 -0.1509  0.4735
10100SOL    HW142278   4.135   0.694   8.487 -1.5164  0.6469  2.0956
10100SOL    HW242279   4.269   0.700   8.556  0.3111 -0.4530 -1.1387
10101SOL     OW42280   3.178   7.602   3.050 -0.0185 -0.2460 -0.4174
10101SOL    HW142281   3.239   7.652   3.104  1.3850 -0.2958 -1.8705
10101SOL    HW242282   3.142   7.536   3.109  1.9626 -0.7322  0.3344
10102SOL     OW42283   0.299   4.408   8.678 -0.3437 -0.1558  0.1041
10102SOL    HW142284   0.277   4.467   8.607 -0.6768  0.3700  0.6352
10102SOL    HW242285   0.323   4.326   8.635  0.5276  0.4831 -0.6553
10103SOL     OW42286   4.465   9.584  10.180  0.6963  0.2360  0.2109
10103SOL    HW142287   4.423   9.572  10.095  1.5054  0.4975 -0.2373
10103SOL    HW242288   4.519   9.662  10.170  0.2540  0.6859  1.1885
10104SOL     OW42289   4.575   3.132   8.349  0.2364 -0.1929 -0.7410
10104SOL    HW142290   4.610   3.221   8.351  2.4272 -0.8838  3.0570
10104SOL    HW242291   4.648   3.077   8.378 -1.8760 -2.8192  0.0278
10105SOL     OW42292   8.377   9.284  10.353 -0.1252 -0.4533 -0.0516
10105SOL    HW142293   8.399   9.365  10.399  2.5573 -0.4664 -1.1055
10105SOL    HW242294   8.316   9.311  10.285 -1.3160  0.1753  1.2139
10106SOL     OW42295   3.577   3.138   5.622  0.0259  0.4655 -0.1045
10106SOL    HW142296   3.571   3.105   5.532  3.8369  1.2161 -0.8243
10106SOL    HW242297   3.618   3.224   5.614  1.4393  0.1382  2.3505
10107SOL     OW42298   5.215   5.685   9.307 -0.1435  0.2741 -0.0493
10107SOL    HW142299   5.140   5.737   9.278  0.6525  1.5012  0.0280
10107SOL    HW242300   5.191   5.653   9.394 -1.1230 -0.5117 -0.5871
10108SOL     OW42301   7.987   1.997   9.604  0.5331 -0.1064  0.1398
10108SOL    HW142302   8.029   1.984   9.519 -0.0420 -2.9937  0.1717
10108SOL    HW242303   7.976   1.908   9.639  0.0007  0.9302  2.8835
10109SOL     OW42304   4.300   2.780   4.651 -0.0925  0.0820 -0.4640
10109SOL    HW142305   4.217   2.732   4.655  0.6478 -1.3894 -1.6664
10109SOL    HW242306   4.321   2.798   4.742 -0.7309 -1.3369  0.0056
10110SOL     OW42307   2.313   8.061   6.815 -0.4376 -0.4218 -0.5277
10110SOL    HW142308   2.398   8.085   6.778  0.8478 -0.4295  2.1374
10110SOL    HW242309   2.252   8.125   6.780  1.1718  1.1329 -0.6235
10111SOL     OW42310   4.052   7.627   3.358  0.1299 -0.2678  0.2040
10111SOL    HW142311   4.098   7.597   3.279 -1.2019 -0.1559 -0.6366
10111SOL    HW242312   3.975   7.570   3.363 -0.4209  0.5194  0.7524
10112SOL     OW42313   3.109   7.712   0.637 -0.0498 -0.1867 -0.3058
10112SOL    HW142314   3.142   7.795   0.603  2.3843 -0.5653  0.9542
10112SOL    HW242315   3.067   7.734   0.720 -0.6678 -0.0640 -0.6414
10113SOL     OW42316   3.921   8.081   3.145 -0.1740 -0.3076 -0.3897
10113SOL    HW142317   3.970   7.999   3.152 -0.5754 -0.4902  0.3277
10113SOL    HW242318   3.960   8.139   3.210  0.4612  0.2728 -1.2529
10114SOL     OW42319   8.482   1.508   3.022  0.0678  0.6892  0.0733
10114SOL    HW142320   8.392   1.490   3.049  0.6604 -1.3623  0.9136
10114SOL    HW242321   8.512   1.577   3.081 -0.5045  0.3781  0.7427
10115SOL     OW42322   6.676   5.692  10.342 -0.1646 -0.1725  0.2509
10115SOL    HW142323   6.734   5.752  10.294 -0.5253  0.6767  0.8640
10115SOL    HW242324   6.664   5.732  10.427 -2.6408  0.3140 -0.2616
10116SOL     OW42325   6.302   9.235   4.352 -0.1097 -0.3992  0.6555
10116SOL    HW142326   6.281   9.155   4.303  1.1452  0.4198 -1.3325
10116SOL    HW242327   6.311   9.205   4.443 -1.7603 -2.1130  0.3207
10117SOL     OW42328   0.830   4.032   3.295 -0.2571  0.1607 -0.1186
10117SOL    HW142329   0.836   3.967   3.365  1.6256 -0.4816 -0.8040
10117SOL    HW242330   0.787   4.107   3.336 -0.0817 -0.5485  1.4497
10118SOL     OW42331   6.583   7.552   8.072  0.4340 -0.2224  0.1822
10118SOL    HW142332   6.562   7.645   8.081  0.8366 -0.1259  0.1081
10118SOL    HW242333   6.578   7.518   8.162 -1.4663 -0.5149  0.0244
10119SOL     OW42334   4.602   7.946   4.203 -0.4354  0.2479  0.4822
10119SOL    HW142335   4.597   7.996   4.285 -1.2894  1.7769 -0.4625
10119SOL    HW242336   4.556   7.864   4.222 -0.5288  0.5314  1.5552
10120SOL     OW42337   4.135   9.976   5.661 -0.6614  0.1794 -0.4133
10120SOL    HW142338   4.199   9.905   5.668 -0.1347  0.7915  1.6758
10120SOL    HW242339   4.071   9.957   5.730 -0.4941  1.7123  0.2001
10121SOL     OW42340   2.575   7.341   8.281  0.0685 -0.5487  0.8324
10121SOL    HW142341   2.640   7.370   8.344 -0.0246  0.5867  0.4215
10121SOL    HW242342   2.512   7.413   8.276 -0.3799 -0.9817  0.0800
10122SOL     OW42343   3.794   0.070   7.630  0.4233 -0.4601 -0.1338
10122SOL    HW142344   3.838   0.049   7.712 -0.4409 -0.4337  0.3455
10122SOL    HW242345   3.848   0.138   7.591  0.0226  0.6585  1.1789
10123SOL     OW42346   7.929   6.016   5.586 -0.0629 -0.4604 -0.2366
10123SOL    HW142347   7.974   6.086   5.540 -0.8994  0.8262  0.8158
10123SOL    HW242348   7.986   5.994   5.659 -0.8570  0.8376  0.8202
10124SOL     OW42349   6.624   1.346   5.431  0.1838  0.0117  0.1941
10124SOL    HW142350   6.672   1.428   5.442  0.1431  0.1590 -0.6667
10124SOL    HW242351   6.535   1.372   5.410 -0.2543 -0.2650  1.6457
10125SOL     OW42352   7.671   8.282   2.720 -0.1568  0.1092  0.5757
10125SOL    HW142353   7.642   8.217   2.785 -3.1702 -0.5845 -1.2818
10125SOL    HW242354   7.632   8.364   2.750 -0.1030  0.1427  0.5546
10126SOL     OW42355   6.333  10.053   1.527  0.4146  0.3133 -0.7266
10126SOL    HW142356   6.341  10.135   1.477  1.2667  0.8457  0.2511
10126SOL    HW242357   6.336  10.081   1.619  2.5274 -0.9571 -0.3620
10127SOL     OW42358   2.523   3.857   5.946 -0.6002  0.2718 -0.5689
10127SOL    HW142359   2.434   3.831   5.924 -0.7427  0.5687 -0.3510
10127SOL    HW242360   2.579   3.790   5.906 -0.8407  0.8053 -1.8871
10128SOL     OW42361   0.861   0.832   3.591 -0.6348  0.2429  0.2250
10128SOL    HW142362   0.829   0.758   3.540 -1.0307 -0.7938  1.8905
10128SOL    HW242363   0.932   0.795   3.644  1.4388  1.8321 -1.2882
10129SOL     OW42364   0.193   0.971   4.932 -0.2074  0.0657  0.1196
10129SOL    HW142365   0.207   1.009   5.018 -0.0224 -1.6931  0.9015
10129SOL    HW242366   0.267   1.003   4.879  0.2689  0.2859  0.9062
10130SOL     OW42367  10.339   4.065   0.670  0.2115 -0.0825  0.3163
10130SOL    HW142368  10.321   3.980   0.709  2.2137 -0.2670  0.9042
10130SOL    HW242369  10.347   4.048   0.576  2.7605 -0.9947  0.6271
10131SOL     OW42370   4.594   5.848   8.778  0.1918 -0.2268 -0.0097
10131SOL    HW142371   4.552   5.785   8.836 -0.0760 -0.1377 -0.1089
10131SOL    HW242372   4.683   5.814   8.767 -0.1897 -1.0514 -0.7426
10132SOL     OW42373   3.204   2.444   1.629 -0.4191  0.5921  0.4716
10132SOL    HW142374   3.211   2.355   1.595  0.0901  1.6654 -2.5818
10132SOL    HW242375   3.288   2.485   1.607 -0.7430  1.9229  1.5530
10133SOL     OW42376  10.314   2.777   0.529 -0.4784 -0.1509  0.9798
10133SOL    HW142377  10.325   2.695   0.578 -1.3880 -1.5964 -1.0911
10133SOL    HW242378  10.376   2.768   0.456 -1.0677  0.7156  0.3694
10134SOL     OW42379   7.591   8.298   4.695  0.2486  0.0390  0.0746
10134SOL    HW142380   7.569   8.212   4.731 -1.8577  1.3974  2.3803
10134SOL    HW242381   7.667   8.326   4.745 -0.7088  0.5816  1.2732
10135SOL     OW42382   3.861   8.680   6.656  0.7651  0.7147 -0.1067
10135SOL    HW142383   3.884   8.751   6.716 -0.4008  0.5929  0.5033
10135SOL    HW242384   3.895   8.708   6.571 -1.0242  2.7291 -0.2205
10136SOL     OW42385   1.571   8.388   9.954 -0.1505 -0.3190  0.7673
10136SOL    HW142386   1.592   8.456  10.019  0.5853  2.3194 -2.0064
10136SOL    HW242387   1.475   8.389   9.950 -0.1778  0.0212  1.2643
10137SOL     OW42388   1.774   8.827   1.649  0.4739 -0.3735  0.0365
10137SOL    HW142389   1.801   8.853   1.561  1.3053 -0.2021  0.3390
10137SOL    HW242390   1.852   8.836   1.702 -0.2639  0.5286  1.0285
10138SOL     OW42391   6.338   0.485   7.264  0.2361  0.2611 -0.3370
10138SOL    HW142392   6.251   0.494   7.225 -2.0312 -0.8488  3.7533
10138SOL    HW242393   6.352   0.391   7.269 -0.4751  0.2076  2.7835
10139SOL     OW42394   3.022   1.974   2.321 -0.1354 -0.1316 -0.0672
10139SOL    HW142395   3.076   2.033   2.374 -2.0202  1.1540  0.5371
10139SOL    HW242396   2.987   1.910   2.384  0.7804 -1.0497 -0.4777
10140SOL     OW42397   4.637   8.848   0.362  0.4912 -0.0475  0.1670
10140SOL    HW142398   4.681   8.803   0.290  0.9181  0.5677  0.0345
10140SOL    HW242399   4.567   8.788   0.389  0.3743 -0.3155 -0.7038
10141SOL     OW42400   6.967   4.342  10.082 -0.3111  0.0468  0.9902
10141SOL    HW142401   6.965   4.391  10.164 -1.3920 -0.0181  1.0178
10141SOL    HW242402   6.907   4.389  10.025  0.0359 -0.2116  0.4078
10142SOL     OW42403   1.879   7.332   8.210 -0.3711  0.7452 -0.4699
10142SOL    HW142404   1.879   7.246   8.169 -0.4740  1.7396 -2.6942
10142SOL    HW242405   1.879   7.314   8.304 -0.7321 -1.6601 -0.8733
10143SOL     OW42406   0.057   3.366   3.561 -0.5870 -0.0956 -0.0793
10143SOL    HW142407  -0.008   3.326   3.619 -0.4166 -0.3446 -0.0577
10143SOL    HW242408   0.094   3.292   3.512 -0.2886  0.0388 -0.0604
10144SOL     OW42409   5.373   8.294   4.163 -0.4908  0.4755  0.2028
10144SOL    HW142410   5.285   8.327   4.179 -0.0431  2.9833 -1.8250
10144SOL    HW242411   5.410   8.355   4.099  2.4633 -0.9274  0.4107
10145SOL     OW42412   0.607  10.305   4.624 -0.1450 -0.5206 -0.2770
10145SOL    HW142413   0.528  10.249   4.626 -1.4033  1.1647 -0.7318
10145SOL    HW242414   0.673  10.253   4.670 -2.2752 -0.8696  2.7597
10146SOL     OW42415   1.548   7.151   3.263  0.7840 -0.0452  0.3818
10146SOL    HW142416   1.519   7.074   3.313  1.1129  0.9022  2.1249
10146SOL    HW242417   1.508   7.225   3.309  1.0099  0.8724 -0.8607
10147SOL     OW42418   9.515   1.390   1.770 -0.3446 -0.0972 -0.0736
10147SOL    HW142419   9.480   1.420   1.686 -1.0354  0.0139  0.2433
10147SOL    HW242420   9.608   1.409   1.766 -0.1949 -0.9778 -1.2010
10148SOL     OW42421   2.538   8.639   2.587 -0.2970 -0.0944 -0.5469
10148SOL    HW142422   2.471   8.572   2.602  0.4757 -0.8057 -0.1570
10148SOL    HW242423   2.497   8.721   2.615  0.2184 -0.9916  3.3233
10149SOL     OW42424   7.590   8.430   5.697 -0.1819  0.5988  0.0016
10149SOL    HW142425   7.682   8.407   5.710  0.6519  3.0430 -0.9928
10149SOL    HW242426   7.556   8.439   5.785  0.6149  0.0203  0.3912
10150SOL     OW42427   4.287   8.926   9.362 -0.6536 -0.1024 -0.0211
10150SOL    HW142428   4.340   8.999   9.331 -0.2559 -0.3695  0.0295
10150SOL    HW242429   4.318   8.851   9.312 -0.4093 -0.4266  0.6069
10151SOL     OW42430   0.870   8.600   0.473  0.2659  0.5146  0.4671
10151SOL    HW142431   0.879   8.695   0.478  1.8073  0.3418  2.1279
10151SOL    HW242432   0.927   8.574   0.401  0.1541  0.8135  0.2692
10152SOL     OW42433   9.721   5.850   6.752  0.0155  0.4132  0.0170
10152SOL    HW142434   9.693   5.758   6.756 -1.8902  0.9438  0.1626
10152SOL    HW242435   9.640   5.900   6.763  0.9185  2.1223 -0.6720
10153SOL     OW42436   1.982   7.399   5.712  0.3041 -0.7667 -0.0123
10153SOL    HW142437   2.035   7.367   5.639  0.5726  0.6606 -0.4671
10153SOL    HW242438   1.908   7.444   5.672  0.1755 -0.4172  0.5930
10154SOL     OW42439   7.290   4.255   1.048  0.3376 -0.3472 -0.5611
10154SOL    HW142440   7.301   4.163   1.026  1.5375 -0.4455  0.2862
10154SOL    HW242441   7.370   4.277   1.096 -0.0380  1.0705 -0.5401
10155SOL     OW42442   1.668   1.769   8.183  0.3190  0.0095  0.1745
10155SOL    HW142443   1.680   1.830   8.110  0.6085  0.1693  0.3517
10155SOL    HW242444   1.577   1.780   8.210  0.1237 -0.2756 -0.3640
10156SOL     OW42445   2.345   3.800   5.222  0.2884  0.4826  0.3999
10156SOL    HW142446   2.337   3.892   5.249  1.2298  0.9411 -0.8032
10156SOL    HW242447   2.409   3.763   5.282  0.1419  0.6895  0.6869
10157SOL     OW42448   6.000   3.795   2.169  0.0713 -0.3441 -0.0842
10157SOL    HW142449   6.007   3.890   2.178  2.0820 -0.6106  1.8890
10157SOL    HW242450   5.911   3.775   2.199  0.0108  0.8092  0.5512
10158SOL     OW42451   5.601   1.281   7.776  0.1864 -0.1863  0.4608
10158SOL    HW142452   5.669   1.258   7.713 -0.2698 -1.1046  0.2798
10158SOL    HW242453   5.584   1.374   7.761  1.3505  0.0454  0.4708
10159SOL     OW42454   3.504   1.949   4.526 -0.0882 -0.6958  0.1169
10159SOL    HW142455   3.587   1.966   4.572  0.1767 -0.7878 -0.3284
10159SOL    HW242456   3.519   1.981   4.437 -1.1696  1.0881  0.5210
10160SOL     OW42457   7.934   0.680   1.259  0.2537 -0.1524 -0.0057
10160SOL    HW142458   7.944   0.678   1.355  0.6776 -0.1671 -0.0457
10160SOL    HW242459   7.951   0.590   1.232  1.4158  0.1102 -0.2061
10161SOL     OW42460   7.652   5.664   5.329 -0.1666  0.3808 -0.1424
10161SOL    HW142461   7.688   5.712   5.404 -0.5373  1.2404 -0.4927
10161SOL    HW242462   7.671   5.720   5.254 -0.0994 -0.3141 -0.6463
10162SOL     OW42463  10.370   4.467   0.661 -0.3664  0.5890 -0.2412
10162SOL    HW142464  10.379   4.433   0.750  2.8182  2.0057  0.1050
10162SOL    HW242465  10.378   4.562   0.671 -3.1702  1.0843 -1.7798
10163SOL     OW42466   5.490   3.612   0.899 -0.7344  0.9704 -0.3778
10163SOL    HW142467   5.548   3.602   0.824 -0.3884  0.0140  0.0019
10163SOL    HW242468   5.527   3.684   0.949 -0.1076  0.6383 -0.3595
10164SOL     OW42469   8.406   8.551   6.117 -0.2241  0.3751 -0.1727
10164SOL    HW142470   8.494   8.514   6.123 -0.6725 -0.8580 -0.9118
10164SOL    HW242471   8.413   8.616   6.047  0.1846  0.5660  0.0397
10165SOL     OW42472   9.286   7.334   0.723 -0.0833  0.2685  0.0243
10165SOL    HW142473   9.288   7.388   0.644  0.2480  0.3556  0.0877
10165SOL    HW242474   9.379   7.317   0.742 -0.1163  1.0625  0.9539
10166SOL     OW42475   0.783   3.780   0.007  0.3744  0.2133 -0.0557
10166SOL    HW142476   0.736   3.812  -0.070 -0.1560  1.5557  0.7994
10166SOL    HW242477   0.827   3.857   0.043  0.8302 -0.4446  0.8350
10167SOL     OW42478  10.185   7.515   8.038 -0.1333  0.0392  0.3880
10167SOL    HW142479  10.278   7.509   8.060 -0.3560 -0.5531  1.2695
10167SOL    HW242480  10.143   7.541   8.120 -0.8556 -0.7814  0.3011
10168SOL     OW42481   1.427   0.020   2.023  0.4739  0.2042  0.4795
10168SOL    HW142482   1.426  -0.022   1.936  0.4932  1.6304 -0.2358
10168SOL    HW242483   1.431   0.113   2.004 -0.6319  0.5950  2.0246
10169SOL     OW42484   6.821   1.546   9.996 -0.1888 -0.3217  0.2723
10169SOL    HW142485   6.847   1.579   9.910  0.7767  2.4139  1.4990
10169SOL    HW242486   6.830   1.621  10.055 -0.1237 -2.2487  2.9301
10170SOL     OW42487   0.248   7.916   7.302  0.1604  0.0494 -0.7046
10170SOL    HW142488   0.256   7.823   7.285 -2.5954 -0.4563  0.3282
10170SOL    HW242489   0.324   7.938   7.357 -0.7628 -2.3337  1.7329
10171SOL     OW42490   8.040   7.912   1.238 -0.3366 -0.3231  0.6099
10171SOL    HW142491   8.044   7.905   1.143  2.8371 -0.0739  0.6009
10171SOL    HW242492   7.957   7.872   1.263 -1.3277 -0.2077 -2.2551
10172SOL     OW42493   9.766   4.082   3.160  0.3639  0.3524  0.1528
10172SOL    HW142494   9.844   4.028   3.170  0.4680  0.5270  0.2867
10172SOL    HW242495   9.704   4.047   3.225  0.5842  0.6670  0.5347
10173SOL     OW42496   3.146   6.139   6.985  0.4451 -0.2566  0.0446
10173SOL    HW142497   3.058   6.106   6.968  0.3733 -0.6897  1.1627
10173SOL    HW242498   3.199   6.108   6.911 -0.4429  0.4778 -0.9193
10174SOL     OW42499   4.939   5.895  10.158  0.2068 -0.2710  0.5033
10174SOL    HW142500   4.923   5.805  10.187 -0.4880 -0.0273  0.9124
10174SOL    HW242501   5.029   5.894  10.126 -0.2254 -1.4494 -0.8028
10175SOL     OW42502   5.825   9.844   1.964  0.0120  0.3450 -0.6121
10175SOL    HW142503   5.759   9.832   2.033  1.9071  1.6205  1.5599
10175SOL    HW242504   5.790   9.915   1.910  0.1000  1.8619  1.2412
10176SOL     OW42505   2.343   2.632   3.315  0.0706 -0.8520  0.4679
10176SOL    HW142506   2.289   2.646   3.393  0.3049  0.0903  0.4723
10176SOL    HW242507   2.411   2.700   3.321 -1.0319  0.5262 -1.5629
10177SOL     OW42508   1.141   2.978   6.334 -0.0233 -0.0252  0.1872
10177SOL    HW142509   1.148   3.038   6.409 -0.1294 -0.5468  0.6188
10177SOL    HW242510   1.169   2.893   6.368 -0.0883 -0.2729 -0.3640
10178SOL     OW42511   8.514   4.095   6.274 -0.7626  1.0111  0.3654
10178SOL    HW142512   8.574   4.086   6.200 -1.0363  0.8328  0.1639
10178SOL    HW242513   8.569   4.126   6.346 -0.5539  1.4745  0.0082
10179SOL     OW42514   9.470   9.254   2.664 -0.2642  0.1162 -0.0289
10179SOL    HW142515   9.426   9.274   2.582 -0.4695 -1.7454 -0.4136
10179SOL    HW242516   9.537   9.322   2.672 -0.1301  0.2516 -1.8230
10180SOL     OW42517   4.851   4.971   7.888  0.1801 -0.1772  0.3894
10180SOL    HW142518   4.823   4.882   7.866 -1.6141  0.4051  0.1800
10180SOL    HW242519   4.776   5.026   7.867  1.3234  1.4320  0.3275
10181SOL     OW42520   6.682   0.693   1.104 -0.2085 -0.1989 -0.3255
10181SOL    HW142521   6.655   0.602   1.112 -0.7020 -0.0460 -0.2222
10181SOL    HW242522   6.765   0.690   1.055  0.4016 -0.7953  0.7052
10182SOL     OW42523   8.249   7.105   4.581  0.1247 -0.0337  0.1302
10182SOL    HW142524   8.324   7.089   4.524  0.0263 -0.6287  0.1592
10182SOL    HW242525   8.174   7.109   4.521  0.2658  1.3360  0.0195
10183SOL     OW42526   0.871   1.174   8.506 -0.7011  0.4011  0.1321
10183SOL    HW142527   0.800   1.123   8.545 -0.8650  0.1383 -0.5116
10183SOL    HW242528   0.836   1.263   8.500 -0.7353  0.4103  0.4177
10184SOL     OW42529   8.544   2.818   9.924 -0.5492 -0.3926 -0.3720
10184SOL    HW142530   8.467   2.779   9.965 -0.2180  1.7446  2.5654
10184SOL    HW242531   8.618   2.772   9.962 -0.3041 -0.5031 -0.9770
10185SOL     OW42532   7.552   8.979   8.960 -0.0093 -0.1159  0.2404
10185SOL    HW142533   7.475   8.939   8.920 -0.4599  0.9348  0.0096
10185SOL    HW242534   7.593   9.029   8.889  0.5734 -0.2136  0.4980
10186SOL     OW42535   9.989   5.225   5.869 -0.2204  0.0572 -0.2366
10186SOL    HW142536  10.006   5.267   5.953 -2.0639  0.4317 -0.0243
10186SOL    HW242537  10.058   5.160   5.861 -0.3081 -0.3426  1.8103
10187SOL     OW42538   7.005   9.848   3.133 -0.3260  0.1286 -0.0609
10187SOL    HW142539   6.928   9.791   3.129 -0.5287  0.3236  0.8334
10187SOL    HW242540   6.969   9.935   3.148  0.0283  0.3628 -0.5640
10188SOL     OW42541   9.188   8.816   5.146 -0.6300 -0.1229  0.3673
10188SOL    HW142542   9.168   8.909   5.152 -0.7423 -0.0708 -0.7290
10188SOL    HW242543   9.270   8.812   5.096 -1.6231 -0.6982 -1.2718
10189SOL     OW42544   6.684   5.995   6.920  0.0650 -0.3850 -0.2536
10189SOL    HW142545   6.633   6.023   6.996 -1.1092 -1.0322 -0.7740
10189SOL    HW242546   6.633   6.024   6.844  1.9514  1.5846 -0.8659
10190SOL     OW42547  10.073   9.396   8.555 -0.4742  0.3945 -0.3103
10190SOL    HW142548  10.000   9.343   8.587  0.8589 -2.0168 -1.0348
10190SOL    HW242549  10.035   9.450   8.485 -1.9895  0.8610  0.8289
10191SOL     OW42550   1.803   6.338   6.054  0.4648 -0.1609  0.2247
10191SOL    HW142551   1.868   6.269   6.066 -0.8388 -1.4470  0.1613
10191SOL    HW242552   1.813   6.395   6.131 -0.5326 -2.2229  2.0027
10192SOL     OW42553   8.881   9.239   4.717  0.9434 -0.3373 -0.5391
10192SOL    HW142554   8.915   9.305   4.656  1.6953 -0.9082 -0.7608
10192SOL    HW242555   8.861   9.164   4.661  1.0041 -0.6337 -0.1636
10193SOL     OW42556   4.961   6.335   5.915 -0.1579  0.1566 -0.5625
10193SOL    HW142557   4.994   6.309   5.829 -0.7827 -1.9052 -0.2121
10193SOL    HW242558   4.889   6.395   5.896 -0.9518 -1.0634 -1.5253
10194SOL     OW42559   1.181   6.713   1.417 -0.1709  0.3223  0.2264
10194SOL    HW142560   1.197   6.781   1.484  1.3219 -0.4006  0.6580
10194SOL    HW242561   1.262   6.712   1.366 -0.2212 -1.0389  0.1506
10195SOL     OW42562   5.952   1.129  10.373  0.3673 -0.1442 -0.3127
10195SOL    HW142563   5.971   1.068  10.445  1.1665 -1.5549 -1.6611
10195SOL    HW242564   5.927   1.210  10.417  0.1293 -1.1673  1.5576
10196SOL     OW42565   1.128   8.476   7.380  0.8584 -0.0225 -0.2437
10196SOL    HW142566   1.085   8.417   7.442  0.9195 -0.5050 -0.6567
10196SOL    HW242567   1.061   8.540   7.358  0.4603 -0.5569 -0.6050
10197SOL     OW42568   6.577   6.255   3.746  0.1061 -0.9390  0.2971
10197SOL    HW142569   6.560   6.297   3.662  0.6939  0.5254  0.8813
10197SOL    HW242570   6.571   6.325   3.811  1.3715 -1.6871  1.2953
10198SOL     OW42571   1.029   9.926   8.476  0.6521 -0.3803 -0.4759
10198SOL    HW142572   1.043  10.001   8.419  0.4222  0.4267  0.5070
10198SOL    HW242573   1.098   9.864   8.452  0.3058 -0.2541 -1.9134
10199SOL     OW42574   9.056   1.124   8.830  0.2583 -0.0437  0.4015
10199SOL    HW142575   9.058   1.195   8.894  0.6846  0.6728 -0.3872
10199SOL    HW242576   9.111   1.155   8.759  2.7862 -2.2741  1.2029
10200SOL     OW42577   8.209  10.302   3.232  0.8522  0.4411 -0.6712
10200SOL    HW142578   8.182  10.387   3.198  0.5865  0.7766  0.3221
10200SOL    HW242579   8.145  10.283   3.302  1.3014 -0.2609 -0.4388
10201SOL     OW42580   6.328   3.850   4.046  0.1285 -0.2514 -0.1296
10201SOL    HW142581   6.381   3.787   3.997  0.0850 -0.8360  0.5548
10201SOL    HW242582   6.258   3.797   4.085  0.2363  0.1697  0.6606
10202SOL     OW42583   0.488   4.211   4.350  0.1340 -0.4185 -0.6095
10202SOL    HW142584   0.567   4.195   4.403  0.2536  0.9818 -0.3359
10202SOL    HW242585   0.417   4.170   4.400  0.2014  1.1115  0.8203
10203SOL     OW42586   1.306   2.413   0.884 -0.1904  0.2052 -0.2040
10203SOL    HW142587   1.399   2.392   0.877 -0.8503 -2.5349 -3.2810
10203SOL    HW242588   1.291   2.477   0.814 -0.1721  3.4569  2.4965
10204SOL     OW42589   4.578   9.528   9.296 -0.1821 -0.3678  0.1843
10204SOL    HW142590   4.525   9.449   9.308 -1.5066  0.5434  0.4745
10204SOL    HW242591   4.585   9.538   9.201 -1.4568  0.1007  0.1319
10205SOL     OW42592   0.813   4.417   9.094  0.0789 -0.4737 -0.4071
10205SOL    HW142593   0.735   4.368   9.120  0.1779 -0.4116  0.0148
10205SOL    HW242594   0.863   4.426   9.175 -0.2226  0.8369 -0.3455
10206SOL     OW42595   6.908   9.189   0.917 -0.0807 -0.2060  0.0321
10206SOL    HW142596   6.940   9.192   0.827 -0.0064  1.7371  0.0962
10206SOL    HW242597   6.969   9.129   0.961  1.1773  0.4587 -0.7366
10207SOL     OW42598   9.790   4.370   8.829 -0.2053  0.3834  0.6368
10207SOL    HW142599   9.715   4.328   8.785 -0.2628  0.6185  0.5060
10207SOL    HW242600   9.848   4.396   8.757 -1.3933  2.9077  0.4833
10208SOL     OW42601   4.030   7.919   7.939 -0.2140 -0.4404  0.3690
10208SOL    HW142602   4.053   7.997   7.888 -0.3330 -0.8661 -0.3511
10208SOL    HW242603   3.961   7.948   7.998 -0.6003 -0.1091 -0.2311
10209SOL     OW42604   4.707   4.594   8.376 -0.1682  0.0493  0.4042
10209SOL    HW142605   4.658   4.514   8.396  1.2018 -1.3862 -1.5427
10209SOL    HW242606   4.679   4.657   8.442 -0.2373 -2.4474  2.9356
10210SOL     OW42607   0.918   6.723   9.714  0.2600  0.0277 -0.1573
10210SOL    HW142608   0.864   6.660   9.665  0.3242 -0.6800  0.6591
10210SOL    HW242609   0.931   6.796   9.653 -1.8046  0.3338 -0.2986
10211SOL     OW42610   2.682   8.325   4.655  0.3441 -0.0728  0.6736
10211SOL    HW142611   2.746   8.383   4.698 -0.5120  0.0485  1.8345
10211SOL    HW242612   2.597   8.361   4.681 -0.2110 -0.2580 -0.8127
10212SOL     OW42613   5.592   2.411   0.869 -0.1501  0.5332  0.7826
10212SOL    HW142614   5.644   2.390   0.946 -0.1941  2.6374  1.4645
10212SOL    HW242615   5.632   2.361   0.798  0.4425 -0.7638  1.9952
10213SOL     OW42616   3.666   5.762   6.511  0.2874 -0.6568 -0.8055
10213SOL    HW142617   3.617   5.764   6.430 -1.1249 -1.5937 -0.0030
10213SOL    HW242618   3.715   5.680   6.508  0.6156 -0.4625 -0.9046
10214SOL     OW42619   2.638   0.265   8.301  0.8670  0.2945 -0.1123
10214SOL    HW142620   2.614   0.257   8.393  1.5119  1.9279  0.2307
10214SOL    HW242621   2.728   0.233   8.296  0.5748 -0.5111 -0.3320
10215SOL     OW42622   0.323   5.093   9.020 -0.3633  0.4618 -0.3685
10215SOL    HW142623   0.246   5.129   8.976 -1.3183 -0.6284  0.3362
10215SOL    HW242624   0.364   5.037   8.955 -0.3849  0.7413 -0.6275
10216SOL     OW42625   4.843   4.137   3.409 -0.3688 -1.0262 -0.4289
10216SOL    HW142626   4.859   4.231   3.413 -2.3696 -0.5783 -1.5918
10216SOL    HW242627   4.793   4.118   3.488 -1.0757 -0.8472 -0.8259
10217SOL     OW42628   3.220   2.498  10.095 -0.2308  0.5230 -0.2441
10217SOL    HW142629   3.237   2.584  10.133 -0.2192  0.2548  0.3724
10217SOL    HW242630   3.289   2.486  10.030  1.8207 -0.4063  1.9572
10218SOL     OW42631   5.045   6.385   5.116  0.1840  0.3828 -0.3703
10218SOL    HW142632   5.052   6.290   5.107 -2.2894  0.1348 -0.3728
10218SOL    HW242633   5.072   6.403   5.206 -0.9127 -0.5634  0.1758
10219SOL     OW42634   7.900   0.310   7.151 -0.6982 -0.2324  0.8720
10219SOL    HW142635   7.853   0.359   7.218 -2.5683  1.4579 -1.5178
10219SOL    HW242636   7.840   0.241   7.126 -0.2585 -0.4808  0.4969
10220SOL     OW42637  10.121   3.105   1.719  0.5147 -0.0317 -0.5644
10220SOL    HW142638  10.079   3.019   1.730 -1.2701  0.7939 -0.5806
10220SOL    HW242639  10.213   3.084   1.703  0.9465 -1.7996  3.1851
10221SOL     OW42640   0.772   2.705   9.794  0.6079  0.4913 -0.2358
10221SOL    HW142641   0.721   2.635   9.752 -2.7151  1.8251  1.2074
10221SOL    HW242642   0.862   2.674   9.791 -0.3545 -2.5798 -2.0639
10222SOL     OW42643   8.412   3.239   5.144  0.3034 -0.0252  0.2120
10222SOL    HW142644   8.500   3.203   5.133 -0.5973 -2.5078  0.5589
10222SOL    HW242645   8.404   3.255   5.239  0.7505  1.3719  0.0448
10223SOL     OW42646   9.762  10.304   3.052  0.0040 -0.4330  0.0078
10223SOL    HW142647   9.674  10.267   3.062  0.3111 -1.2859 -0.3293
10223SOL    HW242648   9.807  10.282   3.134 -0.2802  0.5406  0.4321
10224SOL     OW42649  10.053   9.815   6.671  0.3862  0.2545 -0.0207
10224SOL    HW142650  10.148   9.812   6.686  0.1307  0.9545  2.1362
10224SOL    HW242651  10.017   9.836   6.757 -1.5869  2.3977 -1.2976
10225SOL     OW42652   7.184   9.651   7.620 -0.1843  0.2978 -0.7757
10225SOL    HW142653   7.222   9.647   7.708 -0.5096 -0.0333 -0.6489
10225SOL    HW242654   7.217   9.573   7.576  0.9621  1.0712 -1.3611
10226SOL     OW42655   5.218   7.498   9.845 -0.1842 -0.4619  0.0700
10226SOL    HW142656   5.146   7.550   9.881  0.5559  0.2514  0.5520
10226SOL    HW242657   5.220   7.521   9.752 -0.9915 -0.9896 -0.0894
10227SOL     OW42658   7.913   1.775   6.680 -0.9705 -0.0458  0.1325
10227SOL    HW142659   7.878   1.708   6.622 -3.0366  1.9217 -1.0501
10227SOL    HW242660   7.960   1.726   6.747 -0.8990 -2.5517 -1.6109
10228SOL     OW42661   3.262   9.506   8.413 -0.3085 -0.0805 -0.3256
10228SOL    HW142662   3.269   9.512   8.509 -1.3854  1.3011 -0.3084
10228SOL    HW242663   3.195   9.439   8.398  0.4615 -0.9221 -0.1672
10229SOL     OW42664   5.992   5.692   1.119  0.1412 -0.2678  0.5117
10229SOL    HW142665   6.046   5.614   1.106 -0.6429 -0.4976 -1.7178
10229SOL    HW242666   5.902   5.661   1.112 -0.3598  0.2807  3.2353
10230SOL     OW42667   2.009   6.423   1.439 -0.3246  0.0188  0.2175
10230SOL    HW142668   1.935   6.362   1.430 -0.3207  0.1217 -0.6462
10230SOL    HW242669   2.051   6.421   1.353  0.4451  0.2659  0.5799
10231SOL     OW42670   7.826   1.495   7.233 -0.1056 -0.8981 -0.5760
10231SOL    HW142671   7.902   1.473   7.179 -0.1620 -2.2541 -0.1536
10231SOL    HW242672   7.863   1.510   7.320 -0.2530 -0.8849 -0.5160
10232SOL     OW42673   8.550   8.700   7.300  0.7606  0.3271 -0.5402
10232SOL    HW142674   8.489   8.771   7.280  0.1302  0.0783  0.4549
10232SOL    HW242675   8.563   8.704   7.394 -1.0631 -2.2451 -0.0618
10233SOL     OW42676   4.292   3.382   4.219  0.1257  0.1595 -0.0979
10233SOL    HW142677   4.335   3.302   4.250 -0.4210 -0.0181  0.2095
10233SOL    HW242678   4.261   3.360   4.131  0.6648  0.2887 -0.3210
10234SOL     OW42679   6.416   7.908   6.599 -0.6688 -0.2408  0.1902
10234SOL    HW142680   6.457   7.995   6.601 -1.2880  0.0541  0.5257
10234SOL    HW242681   6.461   7.862   6.529  1.0084 -0.3149  1.2629
10235SOL     OW42682   9.528   5.937   9.121 -0.2697  0.1558 -0.2297
10235SOL    HW142683   9.585   5.873   9.163 -0.6463 -0.6076 -0.8552
10235SOL    HW242684   9.536   5.919   9.027 -0.4734  0.9517 -0.4129
10236SOL     OW42685   0.957   9.587   0.529  0.0144 -0.3944 -0.6537
10236SOL    HW142686   1.005   9.621   0.605 -1.9622 -0.1403  0.5731
10236SOL    HW242687   0.988   9.498   0.519 -0.7359 -0.9523  1.4631
10237SOL     OW42688   3.518   8.353   3.822 -0.9175 -0.5734 -0.2556
10237SOL    HW142689   3.491   8.382   3.909 -0.5640 -0.4644 -0.1799
10237SOL    HW242690   3.564   8.270   3.838 -0.5756 -0.3938 -0.3034
10238SOL     OW42691   9.483   0.324   2.606  0.5171 -0.3378  0.3860
10238SOL    HW142692   9.494   0.288   2.518 -0.2698 -0.4129  0.3097
10238SOL    HW242693   9.531   0.264   2.663  0.0458 -0.9582  0.1424
10239SOL     OW42694   1.765   0.492   5.565 -0.0405 -0.4816  0.3948
10239SOL    HW142695   1.690   0.539   5.601 -1.1028 -1.2579 -0.7152
10239SOL    HW242696   1.745   0.399   5.578  0.6308 -0.7091 -0.0898
10240SOL     OW42697   6.293   2.348   7.598 -1.0459 -0.2267  0.4798
10240SOL    HW142698   6.362   2.305   7.547 -0.1399  2.1911 -0.4640
10240SOL    HW242699   6.292   2.300   7.681  0.4770 -1.5089 -0.1775
10241SOL     OW42700   3.741   4.835   9.941  0.3239  0.0807 -0.2953
10241SOL    HW142701   3.715   4.781  10.016  1.4397  0.6896  0.5709
10241SOL    HW242702   3.733   4.925   9.972 -0.1492  0.3824 -1.2491
10242SOL     OW42703   0.121   8.558   4.347  0.5630  0.1365  0.2451
10242SOL    HW142704   0.088   8.470   4.328  1.2736 -0.0010 -0.3920
10242SOL    HW242705   0.054   8.617   4.312  0.3830 -0.1463  0.1116
10243SOL     OW42706   0.783   4.914   6.614  0.4552  0.4231 -0.9416
10243SOL    HW142707   0.694   4.922   6.649  0.7265 -0.6256  0.0458
10243SOL    HW242708   0.775   4.849   6.544  0.4095  0.4497 -0.9615
10244SOL     OW42709   5.462   5.496  10.095  0.4302 -0.1085  0.1816
10244SOL    HW142710   5.467   5.464  10.005 -1.2437  1.2140 -0.4525
10244SOL    HW242711   5.406   5.432  10.140  0.4718 -0.2533  0.0301
10245SOL     OW42712   1.311   0.894   5.226  0.0671 -0.1679 -0.5122
10245SOL    HW142713   1.228   0.912   5.271  0.6456 -0.0856  0.5370
10245SOL    HW242714   1.299   0.808   5.187 -0.8300  0.2178 -1.1358
10246SOL     OW42715   1.908  10.009   2.646  0.1707  0.3555  0.2204
10246SOL    HW142716   1.959   9.961   2.582  1.3020 -0.0804  1.4050
10246SOL    HW242717   1.939   9.977   2.731 -1.9168  0.2265  1.0098
10247SOL     OW42718   8.978   0.348   1.280 -0.0260  0.2387 -0.3344
10247SOL    HW142719   9.011   0.437   1.265 -1.6880  0.9297 -0.0729
10247SOL    HW242720   8.977   0.338   1.375  0.5141 -0.2143 -0.3695
10248SOL     OW42721   8.801   7.592   6.867 -0.4506 -0.2156  0.2639
10248SOL    HW142722   8.803   7.500   6.894  0.1419 -0.1017  0.6305
10248SOL    HW242723   8.738   7.633   6.927 -2.6127 -0.8312 -1.4477
10249SOL     OW42724   3.633   8.132   2.025 -0.2451  0.3530  0.2661
10249SOL    HW142725   3.622   8.122   1.931 -1.8092 -2.1170  0.6139
10249SOL    HW242726   3.630   8.227   2.040 -0.1497  0.7810 -2.1247
10250SOL     OW42727   9.610  10.365   7.445 -0.4792  0.1124  0.4174
10250SOL    HW142728   9.541  10.371   7.511 -1.0172 -0.7196 -0.0488
10250SOL    HW242729   9.566  10.387   7.363 -0.6415 -2.1136 -0.1483
10251SOL     OW42730   2.652   3.328   1.498 -0.3614 -0.0495  0.0929
10251SOL    HW142731   2.634   3.333   1.404 -0.5344  0.4014  0.1478
10251SOL    HW242732   2.712   3.254   1.507 -0.8938 -0.5357 -0.2919
10252SOL     OW42733   1.909   2.973   5.438  0.0028  0.2159  0.3175
10252SOL    HW142734   1.830   3.003   5.484 -0.3007 -1.2797  0.8089
10252SOL    HW242735   1.936   2.894   5.485  1.6030  0.5074 -0.0649
10253SOL     OW42736   0.986   6.238   7.324 -0.3008  0.0490  0.2970
10253SOL    HW142737   0.969   6.295   7.400  3.1737  0.4161  0.9663
10253SOL    HW242738   0.921   6.265   7.260 -1.5873  1.7182  2.1676
10254SOL     OW42739   5.446   5.830   7.738 -0.3080 -0.1362  0.2071
10254SOL    HW142740   5.477   5.847   7.649 -2.7036 -0.6631 -0.8125
10254SOL    HW242741   5.367   5.778   7.726 -0.6258 -0.3365  2.6801
10255SOL     OW42742   4.098   7.909   5.024  0.4610  0.4573  0.6937
10255SOL    HW142743   4.167   7.851   5.055  0.4039  0.9256  1.7173
10255SOL    HW242744   4.138   7.957   4.951  1.1785  0.6255  1.1883
10256SOL     OW42745   4.217   4.567   4.712  0.0691 -0.5352 -0.0852
10256SOL    HW142746   4.299   4.605   4.683 -0.4590 -0.0898 -1.0553
10256SOL    HW242747   4.180   4.631   4.772 -0.2913  0.0064 -0.8589
10257SOL     OW42748   3.200   6.707   7.047  0.8311 -0.5760 -0.5459
10257SOL    HW142749   3.186   6.684   7.139  0.8821  1.9944  0.1736
10257SOL    HW242750   3.199   6.803   7.046  0.3282 -0.5420 -3.3171
10258SOL     OW42751   8.305   3.316   5.775 -0.2873 -0.0836  0.3971
10258SOL    HW142752   8.314   3.222   5.792 -1.8419 -0.5568 -1.1129
10258SOL    HW242753   8.217   3.325   5.738  0.6368  1.6324 -1.5699
10259SOL     OW42754   1.555   9.871   1.307 -0.2596  0.4833  0.3859
10259SOL    HW142755   1.648   9.857   1.291 -0.3695  0.4078 -0.2222
10259SOL    HW242756   1.538   9.828   1.391  0.1827  0.2032  0.3326
10260SOL     OW42757   4.405   2.745   0.187  0.1813 -0.1788 -0.4875
10260SOL    HW142758   4.411   2.688   0.264  1.1293  0.0028 -0.4201
10260SOL    HW242759   4.463   2.706   0.123 -0.8026 -0.4703 -1.2260
10261SOL     OW42760   7.783   2.929   9.823 -0.1011 -0.0112 -0.0297
10261SOL    HW142761   7.739   2.981   9.756 -2.2939  0.1699  1.4389
10261SOL    HW242762   7.770   2.838   9.795  0.1300  0.0971 -0.4989
10262SOL     OW42763   0.074   2.278   5.592 -0.3362 -0.0507  0.0980
10262SOL    HW142764   0.117   2.208   5.640 -0.3957  0.8326  1.5200
10262SOL    HW242765   0.011   2.315   5.655 -1.8683 -0.1234 -1.3174
10263SOL     OW42766   0.500   7.195   6.553  0.7091  0.8046 -0.2182
10263SOL    HW142767   0.581   7.202   6.603  0.5143  0.7932  0.1010
10263SOL    HW242768   0.486   7.283   6.518  2.2362  0.2415 -2.4606
10264SOL     OW42769   6.915   1.768   5.421  0.3329 -0.7999 -0.1748
10264SOL    HW142770   7.006   1.773   5.393  0.2487 -1.9133 -0.7010
10264SOL    HW242771   6.865   1.796   5.344  0.2147 -0.2993  0.0768
10265SOL     OW42772   7.002   4.104   0.413  0.1549  0.7591  0.2321
10265SOL    HW142773   6.943   4.157   0.358 -0.0970  1.1907  0.9107
10265SOL    HW242774   7.014   4.156   0.492  0.2315 -0.0182  0.7440
10266SOL     OW42775   8.073   7.595   0.945  0.4819  0.7692  0.6952
10266SOL    HW142776   8.113   7.526   0.892 -2.1832  0.2417 -0.7776
10266SOL    HW242777   8.058   7.667   0.884 -0.8582  0.9108  1.1631
10267SOL     OW42778   9.251   0.287   7.979 -0.2255 -0.3461 -0.7627
10267SOL    HW142779   9.283   0.358   8.036  2.0447 -1.6382 -0.3115
10267SOL    HW242780   9.259   0.322   7.890  0.1329  0.2174 -0.5171
10268SOL     OW42781   7.447   7.600  10.289 -0.0502 -0.4498 -0.1935
10268SOL    HW142782   7.452   7.590  10.384 -0.0650 -2.6916 -0.3891
10268SOL    HW242783   7.353   7.602  10.271 -0.0487  0.3724 -0.1442
10269SOL     OW42784   0.289   3.313   5.398  0.2082 -0.1347  0.5831
10269SOL    HW142785   0.205   3.275   5.422  1.0965 -0.7293  3.0554
10269SOL    HW242786   0.321   3.257   5.327 -1.3431 -0.0277 -0.2380
10270SOL     OW42787   0.708   6.978   3.643 -0.4098 -0.3648  0.0059
10270SOL    HW142788   0.661   6.942   3.568 -0.8222 -1.1787  0.6447
10270SOL    HW242789   0.664   7.061   3.661 -1.4498 -0.9960  0.4350
10271SOL     OW42790   6.350   5.739   8.629  0.3560 -0.2199  0.4858
10271SOL    HW142791   6.322   5.720   8.719  1.9786 -0.4175  0.9960
10271SOL    HW242792   6.362   5.653   8.589 -2.4199 -0.1589 -0.6796
10272SOL     OW42793   4.024   8.892   3.967  0.1735  0.4810  0.4479
10272SOL    HW142794   4.000   8.834   3.895  0.9894  0.8464 -0.1349
10272SOL    HW242795   3.973   8.860   4.041 -1.8408  0.9999 -0.6223
10273SOL     OW42796   6.560   3.000   7.709 -0.0439 -0.2822 -0.3867
10273SOL    HW142797   6.563   2.972   7.617 -0.8628  0.2015 -0.5642
10273SOL    HW242798   6.537   3.092   7.705  1.3546  0.1188  0.2564
10274SOL     OW42799   3.128   9.545   1.720 -0.3180  0.5098 -0.0459
10274SOL    HW142800   3.057   9.519   1.662 -2.3313  2.3534  1.4010
10274SOL    HW242801   3.107   9.503   1.803  0.9755  0.1347  0.1070
10275SOL     OW42802   0.182   1.745   9.352  0.0189  0.1830 -0.4136
10275SOL    HW142803   0.168   1.792   9.270  1.9978  0.4086 -0.6747
10275SOL    HW242804   0.185   1.653   9.327 -0.6576  0.1541 -0.3928
10276SOL     OW42805   7.383   9.163   5.374 -0.7511 -0.5131  0.0439
10276SOL    HW142806   7.408   9.202   5.457  2.2516  1.8000 -1.7357
10276SOL    HW242807   7.297   9.199   5.355 -1.3672 -0.8826  1.9667
10277SOL     OW42808   3.222   7.136   3.324 -0.2862 -0.1683 -0.7238
10277SOL    HW142809   3.166   7.059   3.316 -1.7983  0.6641  0.9923
10277SOL    HW242810   3.169   7.208   3.290 -0.6666  0.7662  1.6362
10278SOL     OW42811   6.593  10.196   2.069 -0.2790 -0.0327  0.5107
10278SOL    HW142812   6.623  10.285   2.085 -1.0858  0.0920  1.4355
10278SOL    HW242813   6.663  10.140   2.101 -0.0749  0.2658  0.5862
10279SOL     OW42814   1.519   3.459   6.890  0.1659 -0.4026 -0.1472
10279SOL    HW142815   1.493   3.479   6.980 -1.9754  1.4205 -1.0710
10279SOL    HW242816   1.436   3.458   6.841  1.4038  0.2557 -2.3759
10280SOL     OW42817   4.793   0.953   2.021 -0.0035  0.7527 -0.0495
10280SOL    HW142818   4.817   0.977   1.931 -1.0567  0.6847 -0.3755
10280SOL    HW242819   4.871   0.971   2.073  0.5289  1.0780 -0.9333
10281SOL     OW42820   1.325   8.763   9.941  0.2090 -0.4654 -0.6220
10281SOL    HW142821   1.418   8.756   9.920  0.7598  0.1105  1.3684
10281SOL    HW242822   1.282   8.775   9.857  2.1330  1.0501 -1.4757
10282SOL     OW42823   5.845   2.046   8.900  0.7224 -0.0339  0.3397
10282SOL    HW142824   5.875   2.107   8.968  0.4092  2.1321 -1.3638
10282SOL    HW242825   5.910   2.053   8.830 -1.2658  1.3044 -1.4903
10283SOL     OW42826   7.979   1.037   3.267 -0.1327 -0.1705  0.6464
10283SOL    HW142827   7.947   0.948   3.252 -0.2268 -0.1640  0.8003
10283SOL    HW242828   7.962   1.083   3.185 -3.6441  0.7806  1.7114
10284SOL     OW42829   4.037   6.084   0.543  0.2963 -0.1377 -0.0585
10284SOL    HW142830   4.006   5.995   0.559 -1.5511  0.3430 -0.7366
10284SOL    HW242831   4.047   6.122   0.631 -1.9590 -0.0422  0.1961
10285SOL     OW42832   2.397   7.992   6.416  0.1363  0.0072  0.1045
10285SOL    HW142833   2.467   7.936   6.382  0.1449 -0.3274  0.6524
10285SOL    HW242834   2.316   7.950   6.388  0.1137 -0.9416  1.4694
10286SOL     OW42835   9.063   9.733   7.025 -0.1730  0.5763 -0.1901
10286SOL    HW142836   8.992   9.797   7.033  0.2183  0.9771  0.1249
10286SOL    HW242837   9.095   9.722   7.115 -1.3596 -1.3695  0.0430
10287SOL     OW42838   2.081   0.285   7.601  0.1344 -0.0368  0.3495
10287SOL    HW142839   1.992   0.262   7.577  0.3151 -1.2876  0.7986
10287SOL    HW242840   2.135   0.256   7.528  0.2834 -0.2472  0.5414
10288SOL     OW42841   3.749  10.241   5.171 -0.4819 -0.4375 -0.1999
10288SOL    HW142842   3.699  10.314   5.205  0.5510  0.2073 -0.0140
10288SOL    HW242843   3.840  10.270   5.175 -0.0678 -1.6422 -0.3415
10289SOL     OW42844   1.452  10.062   8.866  0.5350 -0.5233 -0.3643
10289SOL    HW142845   1.384  10.117   8.828  0.6663 -0.4577 -0.5084
10289SOL    HW242846   1.462   9.990   8.805 -0.2733 -1.1975  0.2784
10290SOL     OW42847   0.607   9.139   4.323 -0.5816 -0.3233  0.2056
10290SOL    HW142848   0.670   9.107   4.386 -0.4963 -0.0877  0.2415
10290SOL    HW242849   0.622   9.087   4.244 -2.2688 -2.2933  1.0862
10291SOL     OW42850   1.625   7.002   3.519 -0.0206  0.2478 -0.1890
10291SOL    HW142851   1.556   7.061   3.548 -0.4045  1.0248 -2.4424
10291SOL    HW242852   1.707   7.044   3.546 -0.3247 -0.5563  2.2734
10292SOL     OW42853   4.912   2.645   7.632 -0.1281  0.2244 -0.4536
10292SOL    HW142854   4.963   2.716   7.672 -0.3082  0.9145 -1.4206
10292SOL    HW242855   4.825   2.683   7.617 -0.6349 -0.6218  0.2305
10293SOL     OW42856   9.483   9.216   8.192  0.5951  0.0051  0.9155
10293SOL    HW142857   9.563   9.174   8.160  0.8537  0.1447  1.3742
10293SOL    HW242858   9.437   9.146   8.239 -0.2483 -0.4613 -0.5473
10294SOL     OW42859   1.107   3.583   8.173 -0.4276  0.1063  0.0457
10294SOL    HW142860   1.021   3.594   8.133 -1.2921 -1.8277  1.2007
10294SOL    HW242861   1.089   3.581   8.267  1.1262  1.3303  0.4101
10295SOL     OW42862   9.427   6.535   4.388 -0.0201  0.1715  0.2254
10295SOL    HW142863   9.455   6.461   4.334 -1.8087  0.5664 -1.3713
10295SOL    HW242864   9.472   6.611   4.351 -0.6660  0.3304 -0.2567
10296SOL     OW42865   9.582   6.450   6.226  0.2595 -0.2602 -0.5192
10296SOL    HW142866   9.588   6.422   6.318  0.1359  0.1230 -0.3956
10296SOL    HW242867   9.539   6.535   6.229 -0.8800 -0.7937 -1.0357
10297SOL     OW42868   0.133   0.475   1.898 -0.4908  0.1851 -0.5123
10297SOL    HW142869   0.047   0.505   1.927  0.0220 -0.5154  2.0314
10297SOL    HW242870   0.143   0.388   1.938  1.3911  0.2811 -0.6857
10298SOL     OW42871   4.302   3.726   5.893  0.3590  0.3379 -0.4569
10298SOL    HW142872   4.379   3.781   5.884  0.2267  0.5518 -0.2983
10298SOL    HW242873   4.229   3.788   5.895  0.2337  0.1773  0.0595
10299SOL     OW42874  10.364   8.164  10.133  0.0849  0.4083 -0.1079
10299SOL    HW142875  10.333   8.135  10.219  0.9099  0.0827  0.0856
10299SOL    HW242876  10.355   8.259  10.135 -0.9614  0.3240 -0.0889
10300SOL     OW42877   9.914   6.893   5.761 -0.0312  0.2062  0.7058
10300SOL    HW142878   9.965   6.867   5.837 -2.3227  0.4617  2.4268
10300SOL    HW242879   9.915   6.989   5.763  0.0783  0.2187  0.2592
10301SOL     OW42880   9.893   3.455   6.630  0.0029 -0.6716 -0.5733
10301SOL    HW142881   9.859   3.376   6.671 -0.5216  0.0422  0.4189
10301SOL    HW242882   9.974   3.427   6.586 -0.7879 -1.9723 -1.2427
10302SOL     OW42883   3.981   1.130   9.342 -0.2315 -0.0206  0.3398
10302SOL    HW142884   4.055   1.151   9.285  0.1614 -1.9674  0.0577
10302SOL    HW242885   3.904   1.135   9.285  0.0370 -0.8620 -0.1191
10303SOL     OW42886   6.824   6.251   4.864  0.2918 -0.3913  0.2389
10303SOL    HW142887   6.868   6.170   4.890  2.1005  0.1967 -0.8176
10303SOL    HW242888   6.809   6.298   4.946  0.1615 -1.3388  0.7651
10304SOL     OW42889   9.263   7.476   0.304  0.0420 -0.1421 -0.2418
10304SOL    HW142890   9.325   7.523   0.361  0.5904 -0.9924 -0.1095
10304SOL    HW242891   9.268   7.386   0.335 -1.8962 -0.0984  0.3088
10305SOL     OW42892   7.053   8.126   7.735  0.0239  0.2750 -0.0043
10305SOL    HW142893   7.085   8.045   7.775  0.8173  1.3667  1.7445
10305SOL    HW242894   7.090   8.126   7.647 -0.3184 -1.4247 -0.1776
10306SOL     OW42895   5.986   1.822   9.033 -0.2689 -0.3311  0.0282
10306SOL    HW142896   5.939   1.751   8.989  0.1017  0.3238 -1.4860
10306SOL    HW242897   5.919   1.889   9.048  0.1535  0.8053 -2.5651
10307SOL     OW42898   0.940   1.730   3.498 -0.2553 -0.2472 -0.7077
10307SOL    HW142899   0.866   1.766   3.547 -0.5082 -0.2080 -1.1190
10307SOL    HW242900   0.982   1.805   3.458  0.5447 -0.1693  0.2503
10308SOL     OW42901   5.035   5.919   1.996 -0.5585 -0.3834 -0.2087
10308SOL    HW142902   4.974   5.880   1.933 -0.8853  1.2853 -0.9848
10308SOL    HW242903   4.987   5.993   2.033  0.8628  0.7960 -0.6264
10309SOL     OW42904   0.261   0.825   7.862  0.2150  0.0688  0.3242
10309SOL    HW142905   0.189   0.804   7.921  2.0074 -0.3178  2.4663
10309SOL    HW242906   0.289   0.740   7.827 -0.3111  0.2143 -0.4752
10310SOL     OW42907   0.317   4.446   4.329 -0.2806  0.1131 -0.6205
10310SOL    HW142908   0.387   4.422   4.268  1.4149 -0.0121  1.2640
10310SOL    HW242909   0.352   4.425   4.415 -2.4476  0.6026  0.4540
10311SOL     OW42910   9.053   0.546   7.701 -0.3734 -0.5385 -0.3731
10311SOL    HW142911   9.135   0.502   7.722  0.5744  0.6726 -1.3948
10311SOL    HW242912   8.996   0.476   7.669  1.2511 -1.0090 -2.4024
10312SOL     OW42913   3.428   3.814   2.589 -0.1563  0.8227  0.1115
10312SOL    HW142914   3.444   3.730   2.632  0.6769  0.8550 -0.1229
10312SOL    HW242915   3.337   3.834   2.609  0.0472  0.5654  1.3947
10313SOL     OW42916   1.691   8.061   4.487  0.4442  0.2279  0.3674
10313SOL    HW142917   1.681   8.109   4.404 -0.6052 -0.2461  0.2027
10313SOL    HW242918   1.777   8.087   4.519  1.8350 -1.2237 -1.9345
10314SOL     OW42919   9.314   2.941   1.459 -0.1837 -0.3435 -0.6853
10314SOL    HW142920   9.407   2.948   1.436 -0.5414  1.7164 -1.7899
10314SOL    HW242921   9.305   2.994   1.538 -0.5022 -0.1497 -0.8504
10315SOL     OW42922   5.432   3.586   5.951 -0.0561 -0.0369 -0.7120
10315SOL    HW142923   5.491   3.511   5.964  1.6614  1.4750  0.7210
10315SOL    HW242924   5.354   3.548   5.910  0.5203 -2.6936  0.4315
10316SOL     OW42925  10.147   5.745   1.812 -1.0354  0.2592 -0.8557
10316SOL    HW142926  10.128   5.655   1.786  0.7620  0.0708 -1.6176
10316SOL    HW242927  10.121   5.748   1.904 -1.4454 -0.9340 -0.9058
10317SOL     OW42928   1.548   4.948   4.067  0.0381  0.6215 -0.0063
10317SOL    HW142929   1.628   4.999   4.069  0.3111  0.1830  1.6047
10317SOL    HW242930   1.515   4.951   4.157 -0.7660 -0.7186 -0.2225
10318SOL     OW42931   1.666   2.394   0.454  0.4152  0.3353 -0.2873
10318SOL    HW142932   1.574   2.412   0.473  0.6625  0.2526  1.0965
10318SOL    HW242933   1.713   2.471   0.487  1.1535 -1.1641  2.5429
10319SOL     OW42934   8.372   7.616   3.944  0.1089  0.0712  0.2131
10319SOL    HW142935   8.432   7.643   4.013  0.6647 -3.0969  1.1332
10319SOL    HW242936   8.428   7.572   3.880 -0.8875 -0.4758 -0.3024
10320SOL     OW42937   8.921   5.104  10.168  0.0593 -0.2961 -0.4426
10320SOL    HW142938   8.949   5.195  10.152  0.4289 -0.7267 -2.4357
10320SOL    HW242939   8.828   5.104  10.146  0.1119 -0.4512 -0.6640
10321SOL     OW42940   9.235   7.646   5.927 -0.2104 -0.1476 -0.1562
10321SOL    HW142941   9.330   7.653   5.937 -0.0143 -2.3902  0.2149
10321SOL    HW242942   9.202   7.734   5.944  1.6778  0.3286  1.4116
10322SOL     OW42943   7.136   5.863   8.079  0.1840  0.3573 -0.0043
10322SOL    HW142944   7.221   5.907   8.070  1.5337 -1.5851  2.1285
10322SOL    HW242945   7.144   5.813   8.160 -2.7114 -0.6078 -0.2235
10323SOL     OW42946   1.620   2.563   9.006  0.3645  0.1727  1.0385
10323SOL    HW142947   1.549   2.576   9.068 -2.9177  0.1362 -2.3467
10323SOL    HW242948   1.593   2.612   8.928  4.5291  0.8323 -0.2293
10324SOL     OW42949   0.037   9.575   7.256 -0.2663  0.3067  0.4596
10324SOL    HW142950  -0.018   9.538   7.187 -1.3993  1.5095  0.6571
10324SOL    HW242951   0.031   9.670   7.242 -1.5673  0.6693  2.9227
10325SOL     OW42952   1.560   4.272   5.661 -0.1404 -0.3524  0.3407
10325SOL    HW142953   1.549   4.319   5.578  2.5151 -0.5506 -0.2196
10325SOL    HW242954   1.528   4.184   5.643 -0.4860 -0.1266 -0.1695
10326SOL     OW42955   1.212   5.166   6.325  0.1317  0.6893 -0.2334
10326SOL    HW142956   1.204   5.124   6.411 -0.1548 -1.2006 -1.1391
10326SOL    HW242957   1.304   5.154   6.302  0.5652  2.4927  0.3990
10327SOL     OW42958   6.347   2.233   9.045 -0.7000  0.2953  0.4938
10327SOL    HW142959   6.282   2.295   9.078 -1.1294  1.0588 -1.6166
10327SOL    HW242960   6.395   2.283   8.978 -0.5932 -1.4165 -0.7714
10328SOL     OW42961   8.942   3.044   0.669  0.6328 -0.7506 -1.0375
10328SOL    HW142962   9.035   3.030   0.684  0.7512 -1.4201 -2.3385
10328SOL    HW242963   8.900   3.013   0.749  1.6532  2.1841  0.8376
10329SOL     OW42964   4.265   9.517   6.039  0.0781  0.5107 -0.2787
10329SOL    HW142965   4.280   9.424   6.056  0.7201  0.7648  0.5960
10329SOL    HW242966   4.184   9.519   5.988 -0.7649 -0.4518  0.9507
10330SOL     OW42967   1.239   7.678   1.774  0.8195  0.2635 -0.5097
10330SOL    HW142968   1.331   7.651   1.785  1.2942  2.0943  0.5107
10330SOL    HW242969   1.193   7.636   1.847  1.2386  0.8445  0.1090
10331SOL     OW42970   8.155   0.670   2.002  0.3738  0.5544  0.5347
10331SOL    HW142971   8.205   0.677   1.921 -0.9972 -1.2457 -0.5411
10331SOL    HW242972   8.204   0.722   2.065  3.1211 -0.4140 -0.6645
10332SOL     OW42973   4.469   3.043   7.783 -0.4030 -0.6424 -0.5422
10332SOL    HW142974   4.464   2.978   7.853 -1.7290 -0.7507 -0.7048
10332SOL    HW242975   4.402   3.107   7.804 -0.1257 -0.1247 -1.1792
10333SOL     OW42976   9.726   5.034   1.761  0.2630 -0.2744 -0.4131
10333SOL    HW142977   9.750   5.032   1.669  1.6088 -2.6153 -0.0775
10333SOL    HW242978   9.772   4.960   1.800 -3.0001 -1.5192  1.4750
10334SOL     OW42979   7.622   4.966   6.240  0.3244 -0.1644 -0.4539
10334SOL    HW142980   7.660   5.039   6.192 -0.9589  1.1929  0.4689
10334SOL    HW242981   7.538   5.000   6.271 -0.6197 -2.2716 -0.5454
10335SOL     OW42982   1.648   8.058   2.843 -0.5553  0.0154 -0.1913
10335SOL    HW142983   1.673   8.142   2.804  0.9749 -0.3429 -0.0733
10335SOL    HW242984   1.681   7.992   2.782  0.0543 -0.5113  0.6673
10336SOL     OW42985   1.353   1.076   2.679  0.8539 -0.1484  0.1760
10336SOL    HW142986   1.376   1.119   2.761  1.1416  0.2085 -0.0960
10336SOL    HW242987   1.278   1.020   2.703  1.5866 -0.8441  0.9136
10337SOL     OW42988   7.580   7.324   3.875 -0.3324  0.0685 -0.5064
10337SOL    HW142989   7.649   7.327   3.809  0.6500  0.2689  0.4965
10337SOL    HW242990   7.552   7.415   3.884  0.3388  0.2269  0.1438
10338SOL     OW42991   3.946   4.265   5.764  0.2471  0.1343  0.7081
10338SOL    HW142992   3.890   4.305   5.832 -1.4762 -1.9600  0.6282
10338SOL    HW242993   4.023   4.236   5.812  1.2652  2.8154  0.8832
10339SOL     OW42994   3.031   3.659   5.475  0.6305 -0.8398  0.0377
10339SOL    HW142995   3.123   3.633   5.476  0.3162 -2.0691 -0.6218
10339SOL    HW242996   2.986   3.585   5.434 -0.4172  0.4828 -1.3004
10340SOL     OW42997   2.129   1.439   9.118 -0.5240  0.5751  0.8038
10340SOL    HW142998   2.085   1.355   9.127 -0.9181  0.4898 -1.2858
10340SOL    HW242999   2.064   1.496   9.076 -0.0649  1.7636  1.6408
10341SOL     OW43000   3.662   4.067   7.751  0.3775  0.5755  0.0400
10341SOL    HW143001   3.732   4.110   7.799 -1.2032  2.7301  0.5621
10341SOL    HW243002   3.604   4.138   7.723 -1.6831 -1.0897 -0.2300
10342SOL     OW43003   6.460   8.109   3.150  0.1636 -0.4003 -0.4529
10342SOL    HW143004   6.418   8.188   3.183 -0.4613 -0.6636 -0.6069
10342SOL    HW243005   6.528   8.141   3.090 -1.3003  0.0059 -1.9648
10343SOL     OW43006   7.650   5.339   6.228  0.0089  0.3027 -0.5521
10343SOL    HW143007   7.681   5.273   6.166  0.5349 -0.3082  0.3339
10343SOL    HW243008   7.696   5.319   6.309 -0.3814  1.3174 -0.0634
10344SOL     OW43009   9.559   7.468   5.823 -0.3337  0.5404 -0.0071
10344SOL    HW143010   9.561   7.564   5.829  0.6353  0.5187  0.2588
10344SOL    HW243011   9.651   7.442   5.835 -0.3447 -0.3377 -1.5692
10345SOL     OW43012   2.348   4.275   7.305 -0.4972 -0.4980 -0.1849
10345SOL    HW143013   2.322   4.291   7.395  0.0647 -0.8237  0.0394
10345SOL    HW243014   2.405   4.199   7.309 -0.7552 -0.7361 -0.8613
10346SOL     OW43015   0.829   0.176   7.770  0.7693  0.4251 -0.2684
10346SOL    HW143016   0.893   0.246   7.759 -0.9949  1.9279 -1.4240
10346SOL    HW243017   0.759   0.215   7.822 -0.0439 -0.6062 -0.5570
10347SOL     OW43018  10.005   1.593   0.543  0.4103 -0.1755 -0.5552
10347SOL    HW143019  10.074   1.605   0.608  0.8556  3.4416 -1.4792
10347SOL    HW243020   9.927   1.573   0.595  1.4853 -1.2925  0.7244
10348SOL     OW43021   7.067   8.458   3.841  0.1291 -0.2629  0.9161
10348SOL    HW143022   7.075   8.447   3.935  0.0260  0.8470  1.0585
10348SOL    HW243023   7.141   8.410   3.805  2.1820  2.1060  1.7390
10349SOL     OW43024   9.564   2.879   6.653  0.3229  0.4155  0.2535
10349SOL    HW143025   9.574   2.956   6.597 -0.0076  0.0120 -0.3699
10349SOL    HW243026   9.649   2.871   6.697  1.5193 -0.6696 -2.0259
10350SOL     OW43027   7.433   7.798   4.026  0.3323 -0.0870  0.1258
10350SOL    HW143028   7.416   7.891   4.009 -1.6033 -0.0715  1.6740
10350SOL    HW243029   7.421   7.789   4.121 -0.3107 -2.0416 -0.0996
10351SOL     OW43030   0.719   8.339   6.360 -0.6077  0.5900 -0.1421
10351SOL    HW143031   0.770   8.268   6.397  2.3114  2.7840  0.4340
10351SOL    HW243032   0.758   8.419   6.397 -2.6480  2.5734 -1.9383
10352SOL     OW43033  10.122   5.423   3.555  0.1991  0.5489 -0.1414
10352SOL    HW143034  10.096   5.400   3.644  0.0304 -0.1916 -0.3761
10352SOL    HW243035  10.196   5.365   3.536  0.2374  0.7079 -0.4824
10353SOL     OW43036   5.475   6.698   1.605  0.4683 -0.1936 -0.0320
10353SOL    HW143037   5.432   6.757   1.666  0.3081 -0.0156 -0.3152
10353SOL    HW243038   5.542   6.752   1.563  1.0669 -0.4986  0.4987
10354SOL     OW43039   8.349   7.087   6.214  0.3676  0.3225 -0.2724
10354SOL    HW143040   8.315   7.160   6.266 -0.6941  0.1495 -0.6987
10354SOL    HW243041   8.288   7.080   6.141  1.5288  0.2155 -1.2564
10355SOL     OW43042  10.176   5.537   8.055  0.4910  0.0597  0.4136
10355SOL    HW143043  10.099   5.557   8.001  1.2530  0.7540 -0.4400
10355SOL    HW243044  10.195   5.445   8.036  0.3577  0.1144  0.0010
10356SOL     OW43045   9.570   6.269  10.330 -0.1188 -0.3142  0.1079
10356SOL    HW143046   9.580   6.230  10.243  0.7488  1.1336 -0.4780
10356SOL    HW243047   9.526   6.352  10.314  1.2409  0.5931  0.8559
10357SOL     OW43048   5.625   0.990   1.491  1.0848  0.0822 -0.2053
10357SOL    HW143049   5.643   1.044   1.414 -0.3184  1.1873  0.2205
10357SOL    HW243050   5.677   0.910   1.476  1.3074  0.5199 -1.9928
10358SOL     OW43051   8.759   6.295   0.341 -0.5022  0.1084  0.0706
10358SOL    HW143052   8.733   6.287   0.433  1.3700  0.4108  0.6703
10358SOL    HW243053   8.717   6.221   0.297 -1.5177  0.0250  1.1335
10359SOL     OW43054   3.895   0.401   5.189 -0.1808 -0.2486  0.3459
10359SOL    HW143055   3.966   0.448   5.233 -1.0904  0.4327  1.1224
10359SOL    HW243056   3.826   0.466   5.180 -0.8119 -0.9813 -0.1543
10360SOL     OW43057   6.100  10.116   6.839 -0.7375 -0.0612 -0.0711
10360SOL    HW143058   6.145  10.095   6.757 -1.3937 -0.6173 -0.3014
10360SOL    HW243059   6.152  10.074   6.907  0.3200  1.1478 -0.0821
10361SOL     OW43060   6.995   2.060   5.305 -0.1316  0.1199 -0.5205
10361SOL    HW143061   7.062   1.992   5.297  0.1664  0.5171 -1.5226
10361SOL    HW243062   7.001   2.088   5.396  1.2239  0.3076 -0.6515
10362SOL     OW43063   0.352   7.765   7.749 -0.4003  0.0144  0.0709
10362SOL    HW143064   0.275   7.800   7.794  0.8100  1.6948  0.9881
10362SOL    HW243065   0.383   7.694   7.806 -0.7130 -0.0011  0.2213
10363SOL     OW43066   7.378   9.625  10.117  0.5396  0.0155  0.0093
10363SOL    HW143067   7.466   9.635  10.153 -0.2021  1.3790  1.5777
10363SOL    HW243068   7.335   9.709  10.135 -1.7454 -1.3228  1.2873
10364SOL     OW43069   2.440   4.549   7.425 -0.4789 -0.2044  0.0486
10364SOL    HW143070   2.478   4.637   7.423 -1.7559  0.3761 -0.2839
10364SOL    HW243071   2.492   4.501   7.489  0.5025  0.6689 -0.0668
10365SOL     OW43072   4.979   4.924   6.045 -0.1407 -0.1762  0.1785
10365SOL    HW143073   5.067   4.891   6.027  0.4798  0.6631  1.5301
10365SOL    HW243074   4.985   4.963   6.132 -1.7183  0.4031  0.0632
10366SOL     OW43075   5.379   4.846   6.955 -0.6093 -0.2557 -0.1469
10366SOL    HW143076   5.358   4.757   6.928  2.2418 -1.1943  0.4096
10366SOL    HW243077   5.341   4.855   7.042 -0.5926 -1.0378 -0.0550
10367SOL     OW43078   5.573   5.413   4.753  0.2478  0.5262 -0.2071
10367SOL    HW143079   5.659   5.410   4.794  0.8784 -1.4996 -1.5328
10367SOL    HW243080   5.591   5.422   4.659 -0.5902 -4.7009 -1.1725
10368SOL     OW43081   6.680   0.234   8.398 -0.3288  0.3104 -0.5226
10368SOL    HW143082   6.639   0.319   8.383 -1.7635 -0.5338 -1.5280
10368SOL    HW243083   6.773   0.249   8.378 -0.5974  1.5790 -0.9002
10369SOL     OW43084   6.093   2.216   5.849 -0.3986 -0.5408 -0.2027
10369SOL    HW143085   6.057   2.239   5.935  1.1968 -0.0964  0.3738
10369SOL    HW243086   6.126   2.127   5.859  1.6260  0.2290  0.2838
10370SOL     OW43087   9.867   6.579  10.030  0.0309  0.9452 -0.5326
10370SOL    HW143088   9.795   6.532   9.989  0.5267  0.9355 -1.4091
10370SOL    HW243089   9.928   6.510  10.057 -0.3736  0.9395  0.3946
10371SOL     OW43090   3.762   1.380   4.152 -0.5399  0.5350 -0.0983
10371SOL    HW143091   3.793   1.290   4.158 -0.1389  0.6337 -0.6517
10371SOL    HW243092   3.669   1.375   4.174 -0.6415 -0.0933 -0.6382
10372SOL     OW43093   8.014   9.835   2.029 -0.1813  0.3682 -0.3155
10372SOL    HW143094   8.102   9.800   2.042 -0.5311  0.2213  2.3643
10372SOL    HW243095   8.006   9.847   1.935  1.6801 -2.2501 -0.9058
10373SOL     OW43096   3.383   2.933   9.380 -0.2700  0.0207  0.1964
10373SOL    HW143097   3.415   2.843   9.371 -1.6609 -0.4821 -0.1249
10373SOL    HW243098   3.303   2.934   9.327 -0.5479  1.3073  0.6193
10374SOL     OW43099   7.310   7.545   5.302 -0.0955  0.2964  0.3321
10374SOL    HW143100   7.258   7.537   5.222 -1.0938  1.2797  0.8607
10374SOL    HW243101   7.251   7.521   5.373  0.3926  0.6607  0.8798
10375SOL     OW43102   6.053   4.776   6.089 -0.4564 -0.4037 -0.0511
10375SOL    HW143103   6.027   4.840   6.022  0.0414  0.5888  0.6791
10375SOL    HW243104   5.972   4.759   6.138 -0.0426  2.0491  1.6881
10376SOL     OW43105   6.221   9.203   2.412  0.3483  0.1935  0.3488
10376SOL    HW143106   6.195   9.270   2.350  2.2098  1.7380  1.1417
10376SOL    HW243107   6.178   9.227   2.494 -0.0814 -0.3804  0.2962
10377SOL     OW43108   7.490   5.924   4.787 -0.1422 -0.6015  0.1917
10377SOL    HW143109   7.415   5.891   4.836 -0.1690 -0.6763  0.1009
10377SOL    HW243110   7.534   5.984   4.848 -0.0137 -0.9126  0.4058
10378SOL     OW43111   9.139   3.394   3.378  0.0780 -0.2886 -0.1970
10378SOL    HW143112   9.071   3.331   3.354  0.3943 -1.1690  1.0767
10378SOL    HW243113   9.221   3.347   3.363  0.3030 -0.4756  1.4154
10379SOL     OW43114   9.530   5.003   8.393 -0.1206  0.4356 -0.1481
10379SOL    HW143115   9.514   4.931   8.332 -0.5960  0.3291  0.1004
10379SOL    HW243116   9.625   5.000   8.409 -0.1054  0.0063 -0.3117
10380SOL     OW43117   1.671   2.902   2.392  0.1344 -0.2733  0.1240
10380SOL    HW143118   1.608   2.947   2.448 -0.0113  0.1640 -0.3772
10380SOL    HW243119   1.618   2.854   2.329  0.3021 -0.2811 -0.0126
10381SOL     OW43120   1.051   1.653   0.115 -0.7926 -0.1077  0.3678
10381SOL    HW143121   1.045   1.583   0.180  0.2710 -2.5667 -2.0094
10381SOL    HW243122   0.994   1.624   0.043  0.8075  0.7214 -1.3096
10382SOL     OW43123   0.276   4.430   5.957  0.7485 -0.6967 -0.2267
10382SOL    HW143124   0.334   4.379   6.013  0.5933  0.1080  0.7033
10382SOL    HW243125   0.233   4.492   6.017 -0.9392 -1.1546 -0.9139
10383SOL     OW43126   1.274   6.675   6.931  0.4561 -0.1954 -0.3738
10383SOL    HW143127   1.334   6.715   6.994 -0.9128 -1.4533  1.8750
10383SOL    HW243128   1.187   6.690   6.968 -0.3141 -2.1088 -1.2792
10384SOL     OW43129   9.933   7.566   1.069  0.1774 -0.0522  0.2734
10384SOL    HW143130  10.009   7.617   1.096  0.6926 -0.2152 -0.8579
10384SOL    HW243131   9.878   7.563   1.148  0.9571  0.7382  0.8678
10385SOL     OW43132   1.091   9.601   9.361  0.4639 -0.2053  0.1317
10385SOL    HW143133   1.021   9.666   9.366 -0.1352 -0.7945 -0.4344
10385SOL    HW243134   1.152   9.626   9.430 -0.9536 -0.4321  1.5236
10386SOL     OW43135   1.438   0.270   9.227 -0.5036  0.6572 -0.6013
10386SOL    HW143136   1.345   0.289   9.212 -0.0821  0.7397 -3.9624
10386SOL    HW243137   1.438   0.200   9.292 -2.9364  0.6701 -0.4943
10387SOL     OW43138   5.225   4.316   8.617 -0.4106 -0.2692  0.4066
10387SOL    HW143139   5.249   4.397   8.662  0.4902 -0.7704  0.8487
10387SOL    HW243140   5.205   4.343   8.528 -0.1859  0.4505  0.5695
10388SOL     OW43141   8.833   2.730   3.852  0.2916  0.2019  0.4876
10388SOL    HW143142   8.837   2.745   3.947  3.0608 -1.7319  0.8058
10388SOL    HW243143   8.922   2.702   3.829 -0.3542  0.4377 -2.6808
10389SOL     OW43144   3.680   9.784   8.412 -0.4035 -0.0803  0.6041
10389SOL    HW143145   3.761   9.745   8.379 -0.9156 -1.0136  0.4221
10389SOL    HW243146   3.694   9.878   8.403 -0.5954 -0.2243 -2.5793
10390SOL     OW43147   4.213   8.097   6.384 -0.0095 -0.1103 -0.2280
10390SOL    HW143148   4.127   8.139   6.379 -0.7445 -1.1068  2.2374
10390SOL    HW243149   4.275   8.169   6.393 -0.9538  0.5655  1.2163
10391SOL     OW43150   1.810   7.054   5.005 -0.2046 -0.4563  0.1633
10391SOL    HW143151   1.740   6.990   5.020  0.1592 -0.5342  1.6889
10391SOL    HW243152   1.798   7.081   4.914 -1.8153 -0.9448  0.1939
10392SOL     OW43153   8.844   9.422   6.291  0.2832 -0.0112 -0.1698
10392SOL    HW143154   8.883   9.396   6.375  0.8625  0.6570 -0.2151
10392SOL    HW243155   8.759   9.459   6.315  0.0214 -0.7279  0.0197
10393SOL     OW43156   9.561   9.020   0.588 -0.5281  0.1187 -0.0110
10393SOL    HW143157   9.527   8.948   0.642 -0.2904  0.8416  1.1519
10393SOL    HW243158   9.487   9.080   0.579 -1.3216 -1.1330 -2.6342
10394SOL     OW43159   9.518   8.981   7.889 -0.0017  0.5709 -0.7694
10394SOL    HW143160   9.546   9.016   7.973 -3.1717 -2.1140  1.6587
10394SOL    HW243161   9.592   8.928   7.859  1.4316  2.1077 -0.1103
10395SOL     OW43162   5.354   4.184   7.944 -0.0242  0.3979  0.0503
10395SOL    HW143163   5.419   4.211   8.010  0.1067 -0.0249  0.0947
10395SOL    HW243164   5.395   4.204   7.860 -0.0902  0.7054  0.0885
10396SOL     OW43165   0.303   7.254   5.802  0.0272  0.4909 -0.5538
10396SOL    HW143166   0.262   7.171   5.825  0.7161  1.1989  4.3781
10396SOL    HW243167   0.397   7.238   5.813  0.2695  1.5617 -0.9750
10397SOL     OW43168   1.529   8.723   1.954  0.3320 -0.6972  0.3408
10397SOL    HW143169   1.544   8.675   2.035  0.0318 -1.0946  0.1630
10397SOL    HW243170   1.452   8.778   1.972  0.3016 -0.7416  0.3474
10398SOL     OW43171   8.060   3.663   7.093  0.4766 -0.1115 -0.0933
10398SOL    HW143172   8.083   3.713   7.014 -0.3379 -0.6335 -0.6726
10398SOL    HW243173   7.970   3.690   7.113  0.4126 -0.5468  0.2145
10399SOL     OW43174   0.620   9.097   8.485 -0.5757  0.2284 -0.4124
10399SOL    HW143175   0.640   9.035   8.415 -0.4666 -0.9132  0.6036
10399SOL    HW243176   0.627   9.046   8.566 -1.1399  1.4060  0.4145
10400SOL     OW43177   4.007   8.587   8.867 -0.1291  0.2653 -0.0919
10400SOL    HW143178   3.928   8.636   8.843 -0.7532  0.0479  1.4376
10400SOL    HW243179   4.035   8.546   8.785 -0.0094  2.5289 -1.2646
10401SOL     OW43180   8.706   3.780   6.767 -1.2712 -0.1864 -0.2938
10401SOL    HW143181   8.761   3.845   6.723 -0.5518 -1.1368 -0.8340
10401SOL    HW243182   8.621   3.787   6.724 -1.1764  0.3270 -0.4048
10402SOL     OW43183   7.212   9.768   8.802 -0.1801 -0.6662 -0.3307
10402SOL    HW143184   7.158   9.700   8.843  0.0192 -0.1028  0.9340
10402SOL    HW243185   7.298   9.758   8.843  0.3000 -0.6710 -1.3169
10403SOL     OW43186   9.183   6.786   0.287 -0.0994  0.5397 -0.1188
10403SOL    HW143187   9.236   6.865   0.292  0.8990  0.2016 -3.2740
10403SOL    HW243188   9.220   6.736   0.214 -2.5671 -1.4165 -0.1988
10404SOL     OW43189   3.332   3.857   9.420 -0.1934  0.2595  0.6420
10404SOL    HW143190   3.367   3.945   9.404  0.0638 -0.0659 -0.7284
10404SOL    HW243191   3.383   3.824   9.494  1.9367  0.0908 -0.8122
10405SOL     OW43192   1.070   7.828   4.894 -0.3625 -0.6650 -0.2242
10405SOL    HW143193   0.987   7.787   4.867 -0.4533 -1.1482  0.7489
10405SOL    HW243194   1.072   7.818   4.989  1.7344 -2.3991 -0.3912
10406SOL     OW43195   9.357   6.914  10.037  0.4872  0.4093 -0.0145
10406SOL    HW143196   9.295   6.961  10.093  0.5993 -0.1257  0.5659
10406SOL    HW243197   9.442   6.954  10.055  0.1125  2.3432 -2.0952
10407SOL     OW43198   8.747   2.055   1.664 -0.1149  0.1870 -0.2156
10407SOL    HW143199   8.818   2.070   1.727 -0.2987  0.2666 -0.0218
10407SOL    HW243200   8.747   1.961   1.649  0.9250  0.3412 -1.2837
10408SOL     OW43201   7.942  10.381   6.966  0.0439 -0.0315  0.4628
10408SOL    HW143202   7.867  10.418   7.011 -2.2963 -1.8887 -1.6436
10408SOL    HW243203   7.975  10.314   7.026 -2.0665 -1.4232  0.1447
10409SOL     OW43204   9.195   7.235   6.576  0.0820 -0.4826 -0.0104
10409SOL    HW143205   9.111   7.197   6.550 -0.2534  0.1446  0.1271
10409SOL    HW243206   9.252   7.219   6.501  0.0719 -1.5972  0.2046
10410SOL     OW43207   3.610   9.315   5.465  0.3076  0.4789  0.0244
10410SOL    HW143208   3.665   9.391   5.447  0.5314  0.3519  0.1572
10410SOL    HW243209   3.584   9.325   5.556  1.1261 -0.0865  0.3377
10411SOL     OW43210   4.659   0.322   1.596  0.2306  0.1063  0.2876
10411SOL    HW143211   4.601   0.277   1.657  0.5514  0.4293  0.8332
10411SOL    HW243212   4.727   0.257   1.576  0.1028 -0.0138  0.2380
10412SOL     OW43213   7.205   7.696   3.852  0.1776 -0.2025 -0.0529
10412SOL    HW143214   7.125   7.743   3.876  0.7075  1.1644 -0.8838
10412SOL    HW243215   7.266   7.714   3.924 -0.5342 -2.0935  1.1065
10413SOL     OW43216   2.001   7.733   4.297  0.1886 -0.3205  0.1856
10413SOL    HW143217   2.093   7.759   4.308  1.0194 -2.8138 -0.0913
10413SOL    HW243218   1.993   7.652   4.346 -1.9910 -0.0099  0.4415
10414SOL     OW43219   1.697   0.224   5.593 -0.5526 -0.5223 -0.3672
10414SOL    HW143220   1.633   0.187   5.531 -0.4289  0.4493 -1.0990
10414SOL    HW243221   1.767   0.159   5.595 -0.9300 -0.9462 -0.6388
10415SOL     OW43222   6.789   3.337   6.013  0.2018  0.1538 -0.6184
10415SOL    HW143223   6.817   3.271   6.077 -3.0135  0.9058  1.8204
10415SOL    HW243224   6.718   3.296   5.966 -0.6045  1.2051 -0.3554
10416SOL     OW43225   8.706   2.890   1.975 -0.5080 -0.0073 -0.3034
10416SOL    HW143226   8.798   2.874   1.997 -0.0096  1.8190 -0.9225
10416SOL    HW243227   8.670   2.803   1.957  0.5261 -0.9916  2.0006
10417SOL     OW43228   5.935   3.352   6.707  0.5763  0.1271  0.3892
10417SOL    HW143229   5.856   3.401   6.727  0.9740  0.2407  1.7845
10417SOL    HW243230   6.005   3.398   6.755  1.2460 -0.7604  0.2938
10418SOL     OW43231   8.949   5.214   0.324  0.6203  0.0683  0.0588
10418SOL    HW143232   8.904   5.243   0.244  1.3841  1.4461  0.1152
10418SOL    HW243233   8.900   5.255   0.395 -0.0822 -1.1894  0.3355
10419SOL     OW43234   4.672   8.448   1.237  0.5425  0.2724  0.4252
10419SOL    HW143235   4.703   8.470   1.324  1.4718 -0.9446  0.4220
10419SOL    HW243236   4.723   8.503   1.178  0.3911  0.6005  0.5941
10420SOL     OW43237   9.761   8.541   8.083  0.5761  0.6467  0.5245
10420SOL    HW143238   9.708   8.463   8.099 -1.1128  1.9123  1.5367
10420SOL    HW243239   9.836   8.531   8.141  1.1694 -0.8825 -0.4515
10421SOL     OW43240   2.107   3.914   0.249 -0.1760  0.5452 -0.1690
10421SOL    HW143241   2.079   3.823   0.239  3.0514 -0.4790 -1.3649
10421SOL    HW243242   2.116   3.946   0.159  0.7440  1.3282  0.1844
10422SOL     OW43243   9.842   4.486   2.886 -0.2010 -0.3092 -0.2325
10422SOL    HW143244   9.909   4.546   2.854 -0.7371  0.4233 -0.0051
10422SOL    HW243245   9.793   4.537   2.951  0.3352 -1.4980  1.1462
10423SOL     OW43246   1.888   2.185  10.204  0.5915 -0.4625  0.3702
10423SOL    HW143247   1.834   2.169  10.281  0.2207 -0.9033  0.0213
10423SOL    HW243248   1.976   2.157  10.231  0.4609 -0.6373  0.6228
10424SOL     OW43249   8.942   5.068   2.775 -0.2304 -0.1731  0.0635
10424SOL    HW143250   8.944   4.975   2.799 -1.6185  0.3848  2.7608
10424SOL    HW243251   9.026   5.084   2.733  0.6860 -2.3221  0.9590
10425SOL     OW43252   4.117   0.667   9.679 -0.4588 -0.4987 -0.4503
10425SOL    HW143253   4.094   0.755   9.650  1.8554  0.4962  0.4264
10425SOL    HW243254   4.049   0.644   9.742 -1.7317  0.1487 -1.5463
10426SOL     OW43255   4.917   6.758   9.003  0.2872 -0.0049 -0.0724
10426SOL    HW143256   4.873   6.811   8.937 -0.0385  1.6797  1.4291
10426SOL    HW243257   4.850   6.697   9.034  0.0414  0.1574 -0.2801
10427SOL     OW43258   0.879   2.441   9.092 -0.4280  0.4212  0.3630
10427SOL    HW143259   0.941   2.481   9.154  0.9092 -0.5535 -0.2937
10427SOL    HW243260   0.869   2.351   9.123  1.2235 -0.4688 -1.4395
10428SOL     OW43261   5.751   5.111   6.007  0.2219 -0.0245 -0.0261
10428SOL    HW143262   5.758   5.205   5.993  1.4812 -0.2144 -0.8826
10428SOL    HW243263   5.686   5.082   5.943 -0.3075  0.2742  0.3683
10429SOL     OW43264   9.482  10.079   6.313  0.3441  0.3547  0.1531
10429SOL    HW143265   9.569  10.045   6.331  1.1130  2.2502  0.2019
10429SOL    HW243266   9.433  10.004   6.279  1.5175 -1.1060  1.5768
10430SOL     OW43267   6.472   9.820   7.838 -0.1259  0.5064 -0.4345
10430SOL    HW143268   6.463   9.741   7.891 -2.7272  0.0619 -1.4030
10430SOL    HW243269   6.503   9.788   7.753  0.3554  0.7435 -0.3514
10431SOL     OW43270  10.342   6.077   8.789 -0.3210  0.2230  0.3282
10431SOL    HW143271  10.303   6.019   8.723  2.3719 -3.1639  1.3885
10431SOL    HW243272  10.275   6.084   8.857 -2.5718  2.5871 -1.9021
10432SOL     OW43273   1.005   3.978   9.384  0.3208  0.2076  0.1646
10432SOL    HW143274   0.934   4.035   9.413 -0.9252  0.2297 -2.6064
10432SOL    HW243275   1.016   3.999   9.292  3.2029 -0.6251  0.2353
10433SOL     OW43276   4.023   1.802  10.215 -0.3921  0.1826 -0.4412
10433SOL    HW143277   4.083   1.741  10.172 -0.9691 -0.4239 -0.3986
10433SOL    HW243278   3.950   1.748  10.243 -0.4356  0.7269  0.5279
10434SOL     OW43279   7.643   8.846   9.513 -0.2965 -0.2533 -0.4670
10434SOL    HW143280   7.694   8.860   9.433  0.0427  0.1686 -0.1802
10434SOL    HW243281   7.566   8.797   9.484  0.9991 -2.2716 -0.6591
10435SOL     OW43282   6.095   2.641   2.519 -0.7071 -0.3551 -0.8780
10435SOL    HW143283   6.087   2.617   2.611 -1.5476  0.6503 -0.6799
10435SOL    HW243284   6.010   2.680   2.496  0.0578  0.9299 -1.6248
10436SOL     OW43285   9.812   9.261   2.560  0.2641  0.6300  0.4866
10436SOL    HW143286   9.867   9.285   2.634  0.9797  0.8076 -0.0912
10436SOL    HW243287   9.729   9.232   2.600  1.2836 -1.1385  1.4711
10437SOL     OW43288   2.227  10.043   6.986  0.3851 -0.4815 -0.2725
10437SOL    HW143289   2.188   9.964   6.950 -0.9456 -0.1453  0.3782
10437SOL    HW243290   2.173  10.114   6.952 -1.9142 -0.2116  3.3881
10438SOL     OW43291  10.078  10.131   8.217  0.4142  0.2437 -0.5446
10438SOL    HW143292  10.097  10.222   8.193  1.2604  0.7704  1.8816
10438SOL    HW243293  10.004  10.137   8.277  1.0373 -0.5389  0.3432
10439SOL     OW43294   6.812   6.801   7.776 -0.6878 -0.3001 -0.5419
10439SOL    HW143295   6.737   6.860   7.779  0.0029  0.5797 -0.3739
10439SOL    HW243296   6.882   6.851   7.734 -0.0650 -0.9637 -0.3305
10440SOL     OW43297   6.723   1.204  10.175 -0.3451  0.3438 -0.1172
10440SOL    HW143298   6.720   1.112  10.149 -1.6839 -0.0761  1.3662
10440SOL    HW243299   6.802   1.238  10.133  1.1990 -1.9308  0.7157
10441SOL     OW43300   9.419   0.293   6.973 -0.1174  0.0702 -0.1163
10441SOL    HW143301   9.400   0.324   7.062  0.9293  0.4063  0.0067
10441SOL    HW243302   9.482   0.357   6.939 -0.5349 -0.0349 -1.1156
10442SOL     OW43303   0.122   5.038   3.375 -0.2962  0.0482  0.4250
10442SOL    HW143304   0.121   5.090   3.294  2.4115 -0.3402  0.0388
10442SOL    HW243305   0.101   4.949   3.347  2.0076 -0.3653 -0.1726
10443SOL     OW43306   9.230   9.563   3.484  0.0953 -0.8580  0.0250
10443SOL    HW143307   9.166   9.533   3.549  0.2300  1.2756  1.2225
10443SOL    HW243308   9.231   9.493   3.418 -2.5488 -1.5387  0.5755
10444SOL     OW43309   7.871   1.261   5.328  0.4040 -0.1490  0.0338
10444SOL    HW143310   7.804   1.318   5.291  1.0711  0.7386  0.1463
10444SOL    HW243311   7.865   1.180   5.276 -1.8141 -0.7354  1.1018
10445SOL     OW43312   8.186   1.469   8.459  0.0906 -0.3330  0.9837
10445SOL    HW143313   8.097   1.493   8.483  0.2994  2.1783 -0.3641
10445SOL    HW243314   8.237   1.549   8.472  1.8399 -1.2715  0.3061
10446SOL     OW43315   3.458   7.668   6.202 -0.0225 -0.0925  0.0338
10446SOL    HW143316   3.432   7.760   6.203  0.0891 -0.0525 -0.5268
10446SOL    HW243317   3.530   7.664   6.140  1.3995 -0.1769  1.6084
10447SOL     OW43318   9.052   8.266   5.468  0.0580  0.0016 -0.0031
10447SOL    HW143319   9.141   8.231   5.468  0.4879  1.0079 -1.2273
10447SOL    HW243320   9.064   8.361   5.464 -1.0551  0.1099 -1.5690
10448SOL     OW43321   1.730   9.232   7.652  0.6769 -0.1705 -0.1653
10448SOL    HW143322   1.652   9.192   7.689  0.2558 -1.1680 -1.9927
10448SOL    HW243323   1.736   9.318   7.694  0.8440 -1.5687  2.8589
10449SOL     OW43324   9.257  10.169   1.860  0.7173  0.0372  0.0397
10449SOL    HW143325   9.320  10.240   1.862  1.6546 -0.7966  1.2040
10449SOL    HW243326   9.222  10.171   1.771  2.6731  0.2731 -0.7760
10450SOL     OW43327   6.107   0.535   8.424  0.0349 -0.5858 -0.4625
10450SOL    HW143328   6.179   0.472   8.430 -1.5321 -2.7546 -2.5531
10450SOL    HW243329   6.128   0.586   8.346  0.9361  1.1194  0.8316
10451SOL     OW43330   2.193   6.557   1.668  0.0640  0.3603  0.2205
10451SOL    HW143331   2.205   6.627   1.732 -0.3849 -0.2383  0.9735
10451SOL    HW243332   2.099   6.558   1.650 -0.0849 -0.5926  0.8822
10452SOL     OW43333   5.628   5.549   0.094  0.0960  0.4726  0.0916
10452SOL    HW143334   5.719   5.578   0.098  0.7165 -1.4352  1.3636
10452SOL    HW243335   5.630   5.474   0.034 -0.7456  0.6941 -0.2279
10453SOL     OW43336   1.873   9.667   4.733  0.1795  0.3127 -0.0015
10453SOL    HW143337   1.828   9.643   4.815  0.4366 -1.3708 -0.3322
10453SOL    HW243338   1.820   9.739   4.698  0.9892  2.2833  2.4450
10454SOL     OW43339   3.066   9.127   3.464  0.3774  0.4528  0.1428
10454SOL    HW143340   3.082   9.124   3.558  0.3705 -3.3762  0.1445
10454SOL    HW243341   3.017   9.047   3.444  2.1929  0.0032 -3.4281
10455SOL     OW43342   9.654   0.773   3.431 -0.5907  0.5370 -0.0165
10455SOL    HW143343   9.717   0.711   3.467  1.1130  1.8376 -0.5900
10455SOL    HW243344   9.585   0.719   3.393  0.7858 -0.9959 -0.4457
10456SOL     OW43345   0.239   9.788   6.714  0.8794  0.1905 -0.4206
10456SOL    HW143346   0.172   9.852   6.692  0.5957  0.5604  1.4014
10456SOL    HW243347   0.308   9.839   6.757  1.0334 -0.5901  0.2862
10457SOL     OW43348   3.895   9.310   1.642  0.2016 -0.3019 -0.2926
10457SOL    HW143349   3.959   9.329   1.710 -0.0687  0.0151 -0.1203
10457SOL    HW243350   3.871   9.218   1.656 -0.1294 -0.1343  0.2817
10458SOL     OW43351   5.270   8.184   8.329 -0.4335 -0.7467  0.1005
10458SOL    HW143352   5.345   8.139   8.291 -0.8930 -2.0083  0.6427
10458SOL    HW243353   5.227   8.226   8.254  0.7446 -0.0816 -0.2198
10459SOL     OW43354   2.345   9.497   9.741 -0.1634 -0.1335 -0.4880
10459SOL    HW143355   2.322   9.535   9.826  0.1963  2.2760 -1.4037
10459SOL    HW243356   2.441   9.499   9.739 -0.0978 -1.6224 -0.3887
10460SOL     OW43357   7.777   7.995   3.113 -0.1018 -0.5844  0.2496
10460SOL    HW143358   7.838   7.993   3.040  1.1767 -1.8090  1.2979
10460SOL    HW243359   7.831   7.977   3.190 -1.7154 -1.2829  1.2666
10461SOL     OW43360   2.016   6.787   8.201  0.0227  0.7172  0.6417
10461SOL    HW143361   2.100   6.812   8.241 -0.4654  1.8648  0.9821
10461SOL    HW243362   2.007   6.694   8.221  1.6501  0.3334 -0.1986
10462SOL     OW43363   3.927   8.731   3.102  0.1984  0.2301 -0.4600
10462SOL    HW143364   3.910   8.749   3.195 -0.6101  2.0193 -0.9179
10462SOL    HW243365   3.861   8.782   3.055  1.7978  0.9085 -2.0706
10463SOL     OW43366   4.715   4.096   1.013 -0.2035  1.0757 -0.3438
10463SOL    HW143367   4.799   4.066   0.979 -0.3182  0.7410 -0.3316
10463SOL    HW243368   4.737   4.142   1.094 -0.2525 -1.0780  0.9352
10464SOL     OW43369   0.242   8.145  10.184  0.2881 -0.1889 -0.1095
10464SOL    HW143370   0.286   8.060  10.184 -0.8727 -0.8173 -1.3148
10464SOL    HW243371   0.159   8.129  10.140 -0.1150  1.5022 -0.0180
10465SOL     OW43372   1.868   0.590   6.486 -0.3379 -0.5746  0.5216
10465SOL    HW143373   1.815   0.669   6.495 -0.9814 -0.9984  0.4922
10465SOL    HW243374   1.806   0.523   6.457  0.1395 -1.1701  0.8614
10466SOL     OW43375   7.099   7.640   7.357  0.3466 -0.3223  0.1752
10466SOL    HW143376   7.041   7.634   7.433  0.8532  1.1445  0.7020
10466SOL    HW243377   7.183   7.605   7.388  0.0777 -1.4113 -0.2664
10467SOL     OW43378   2.171   7.236   2.977  0.5170 -0.0216  0.0015
10467SOL    HW143379   2.170   7.207   2.886 -0.5029  2.1726 -0.7489
10467SOL    HW243380   2.129   7.322   2.976  1.5015  0.5804  2.3875
10468SOL     OW43381   4.398   2.187   7.112 -0.3661  0.1752 -0.6197
10468SOL    HW143382   4.312   2.227   7.118 -0.8195 -0.6068 -1.6656
10468SOL    HW243383   4.386   2.099   7.147 -0.1579 -0.1702 -1.3959
10469SOL     OW43384   2.599   2.087  10.005 -0.1284  0.2497 -0.1676
10469SOL    HW143385   2.515   2.046   9.986 -0.5317  0.3126  1.2898
10469SOL    HW243386   2.587   2.179   9.980 -0.2311  0.0904 -0.6970
10470SOL     OW43387   8.094   8.911   9.348 -0.6185 -0.1145 -0.4364
10470SOL    HW143388   8.014   8.859   9.339 -0.7973  0.0541  0.1519
10470SOL    HW243389   8.066   9.001   9.330 -1.3308  0.5037  3.0274
10471SOL     OW43390  10.268   0.381   7.555 -0.0683  0.1108 -0.1661
10471SOL    HW143391  10.341   0.403   7.613 -0.0124  0.8088 -0.4981
10471SOL    HW243392  10.284   0.430   7.475 -1.2967  0.8955  0.0321
10472SOL     OW43393   1.408   7.423   3.543  0.3954 -0.1500 -0.0131
10472SOL    HW143394   1.341   7.491   3.536  0.4315 -0.0846  0.2568
10472SOL    HW243395   1.475   7.448   3.480  1.3034  1.0883  1.3649
10473SOL     OW43396   3.029   9.482   4.930 -0.2329  0.3975 -0.2372
10473SOL    HW143397   3.053   9.407   4.985  0.5196  0.8681  0.0939
10473SOL    HW243398   2.936   9.495   4.948 -1.0238 -1.9181 -2.0934
10474SOL     OW43399   8.418   6.525   5.700  0.2874  0.7368 -0.3255
10474SOL    HW143400   8.393   6.438   5.666  1.2270 -0.7268  2.4373
10474SOL    HW243401   8.513   6.529   5.686  0.5570  0.4472  1.2468
10475SOL     OW43402   6.576   5.730   7.709  0.1091 -0.4789  0.2803
10475SOL    HW143403   6.521   5.657   7.739  0.4960 -1.0656 -0.3947
10475SOL    HW243404   6.661   5.690   7.692  0.5092  0.2644  0.5224
10476SOL     OW43405   3.853   5.384   8.484  0.6402  0.0042  0.2363
10476SOL    HW143406   3.894   5.334   8.555  0.3509 -1.0779 -0.3399
10476SOL    HW243407   3.925   5.434   8.446  1.0874 -0.5314  0.3629
10477SOL     OW43408   1.454   2.316   7.430 -0.0095  0.4894 -0.5572
10477SOL    HW143409   1.397   2.276   7.496  1.6242  0.5842  0.9778
10477SOL    HW243410   1.402   2.315   7.350 -1.6589 -0.6351  0.4680
10478SOL     OW43411   3.979   6.864   7.429 -0.5192  0.4071  0.0378
10478SOL    HW143412   3.905   6.817   7.468 -0.4514  0.5681  0.3642
10478SOL    HW243413   4.039   6.795   7.402  0.2422  0.3031  1.8145
10479SOL     OW43414   5.983   0.218   5.573 -0.0105  0.0840  0.3440
10479SOL    HW143415   5.931   0.250   5.646 -0.7185 -0.0728 -0.0773
10479SOL    HW243416   6.073   0.241   5.595 -0.3170  0.8527  0.8354
10480SOL     OW43417   5.084   4.478   9.742 -0.0682  0.8266 -0.2571
10480SOL    HW143418   5.101   4.386   9.721 -2.9285  0.1822 -0.2459
10480SOL    HW243419   5.042   4.474   9.829 -0.7322  2.0664 -0.5069
10481SOL     OW43420   8.316   1.625   5.511 -0.5719 -0.5238 -0.3337
10481SOL    HW143421   8.222   1.621   5.529 -0.3945 -0.5681  0.6098
10481SOL    HW243422   8.327   1.576   5.429 -1.3921 -0.3382 -0.5603
10482SOL     OW43423   2.328   0.394   6.158  0.4422 -0.2066 -0.3008
10482SOL    HW143424   2.257   0.334   6.137  0.8027 -0.1804 -1.6895
10482SOL    HW243425   2.315   0.469   6.101  0.3845  0.7752  0.9394
10483SOL     OW43426  10.334   1.169   3.215  0.4125 -0.0109  0.7533
10483SOL    HW143427  10.303   1.079   3.230 -0.8897  0.5325  1.4724
10483SOL    HW243428  10.348   1.173   3.120 -0.8519 -0.5820  0.5182
10484SOL     OW43429   8.468   3.041   6.533 -0.0017 -0.0589  0.2377
10484SOL    HW143430   8.434   2.951   6.538  1.6384 -0.8080 -0.9964
10484SOL    HW243431   8.558   3.034   6.566 -0.4538  1.5725  2.0364
10485SOL     OW43432  10.352   8.575   0.600  0.4916 -0.3994 -0.3098
10485SOL    HW143433  10.359   8.536   0.512 -2.2326 -2.3225  0.2122
10485SOL    HW243434  10.443   8.594   0.624  1.7116 -3.0995 -2.1766
10486SOL     OW43435   5.492   2.220   7.310  0.4911  0.2998 -0.1890
10486SOL    HW143436   5.433   2.150   7.281  0.5014  0.3759 -0.3937
10486SOL    HW243437   5.569   2.212   7.253  0.9196 -0.1494  0.4373
10487SOL     OW43438   0.572   8.618   9.966 -0.3975 -0.0829  0.0102
10487SOL    HW143439   0.563   8.569  10.048 -0.6118  0.1143  0.1087
10487SOL    HW243440   0.662   8.650   9.967 -1.4053  3.2743  2.1106
10488SOL     OW43441   3.097   3.805   1.236  0.2493  0.0111 -0.6315
10488SOL    HW143442   3.075   3.714   1.256 -0.9202  0.6415  1.1210
10488SOL    HW243443   3.190   3.813   1.258  0.1749 -0.5697 -0.0744
10489SOL     OW43444   0.640   0.710   2.337  0.0566  0.2007  0.4434
10489SOL    HW143445   0.593   0.786   2.301  0.0338 -0.5408 -1.1704
10489SOL    HW243446   0.578   0.637   2.328  1.4170 -0.7999 -1.7155
10490SOL     OW43447   9.984   6.530   8.749 -0.3753  0.3364  0.2814
10490SOL    HW143448  10.005   6.496   8.837 -0.0938 -0.0073  0.0864
10490SOL    HW243449   9.915   6.472   8.717 -0.8117  0.7529  0.4591
10491SOL     OW43450   9.151   4.020   3.489  0.3329  0.3307  0.5868
10491SOL    HW143451   9.233   3.970   3.490  0.2762  0.2232  0.0387
10491SOL    HW243452   9.084   3.957   3.514  0.4752  0.5337  1.5069
10492SOL     OW43453   0.326   0.562   8.950  0.4558 -0.1690 -0.7014
10492SOL    HW143454   0.302   0.654   8.940  1.2046  0.2563  1.0142
10492SOL    HW243455   0.273   0.531   9.024  0.2717 -1.1001 -1.2095
10493SOL     OW43456   1.659   4.495  10.312  0.1817  0.5742 -0.7491
10493SOL    HW143457   1.712   4.454  10.244 -0.9781 -3.4764  0.5432
10493SOL    HW243458   1.570   4.467  10.293 -0.1957 -0.6503  2.2947
10494SOL     OW43459   0.578   5.578   8.903  0.5847 -0.0481  0.1365
10494SOL    HW143460   0.498   5.541   8.941  0.2146  0.9135  0.3280
10494SOL    HW243461   0.546   5.643   8.840  1.2095 -0.4343 -0.5977
10495SOL     OW43462   9.137   9.287   1.295 -0.0940 -0.2687 -0.4996
10495SOL    HW143463   9.063   9.236   1.329  0.2198 -1.3139 -1.3451
10495SOL    HW243464   9.175   9.329   1.373 -1.3267 -0.0305 -0.0099
10496SOL     OW43465   2.749   6.949   4.053 -0.2825  0.2865 -0.3700
10496SOL    HW143466   2.682   6.997   4.101  1.2732  0.2085  2.0267
10496SOL    HW243467   2.701   6.899   3.987 -2.4202  1.1521  0.4662
10497SOL     OW43468  10.272   3.963   8.025  0.0748  0.7430  0.1713
10497SOL    HW143469  10.212   3.941   8.096 -0.7529  1.9221 -0.1318
10497SOL    HW243470  10.220   3.950   7.945  0.3699  1.3014 -0.1206
10498SOL     OW43471   4.975   9.891   2.952  0.0177  0.0981 -0.1428
10498SOL    HW143472   5.026   9.891   3.033  0.8247  0.6752 -0.6429
10498SOL    HW243473   4.968   9.798   2.928  2.0909  0.0706 -0.8307
10499SOL     OW43474   1.172   5.090   2.887 -0.1432  0.0383 -0.2686
10499SOL    HW143475   1.196   5.107   2.796  1.9309  0.1222  0.2502
10499SOL    HW243476   1.254   5.093   2.935 -1.1086 -0.6066  1.5395
10500SOL     OW43477  10.130   7.049   6.415  0.4429 -0.1015 -0.3812
10500SOL    HW143478  10.204   6.995   6.444  0.0549 -0.8533 -0.7669
10500SOL    HW243479  10.070   6.987   6.374 -3.1852 -0.7033  4.8103
10501SOL     OW43480   5.296   0.276   0.950  0.5242  0.6014 -0.1169
10501SOL    HW143481   5.377   0.233   0.923 -0.0142 -0.9437  0.5880
10501SOL    HW243482   5.319   0.368   0.960  2.4134  0.0728  0.8753
10502SOL     OW43483   9.064   1.831   0.685 -0.2490  0.0217  0.0569
10502SOL    HW143484   9.127   1.891   0.724 -0.3318  0.2383 -0.1441
10502SOL    HW243485   8.981   1.852   0.729 -0.4939  0.7434 -0.7224
10503SOL     OW43486   7.737   2.807   1.567 -0.4055  0.1813 -0.1044
10503SOL    HW143487   7.818   2.829   1.521 -1.3623 -0.0111 -2.0097
10503SOL    HW243488   7.687   2.889   1.568  0.3906  0.7349  2.5167
10504SOL     OW43489   6.902  10.280   5.075 -0.3068 -0.3086  0.2399
10504SOL    HW143490   6.954  10.234   5.010  0.6463  1.0908 -0.0400
10504SOL    HW243491   6.966  10.333   5.123 -1.4485  1.5873 -0.2220
10505SOL     OW43492   4.891   6.380   0.294  0.4256 -0.1225  0.4079
10505SOL    HW143493   4.978   6.411   0.317  0.8703 -0.6971 -0.4738
10505SOL    HW243494   4.894   6.366   0.199 -0.8492  0.5601  0.2477
10506SOL     OW43495   5.979   7.900   0.701  0.0628 -0.0409  0.0672
10506SOL    HW143496   6.058   7.938   0.662  0.0643 -0.5603 -0.4412
10506SOL    HW243497   6.009   7.865   0.785  0.5239 -0.8056 -0.4008
10507SOL     OW43498   0.517   9.950   2.539 -0.2287 -1.0118 -0.3055
10507SOL    HW143499   0.553   9.865   2.514 -0.8411 -2.1615  2.3775
10507SOL    HW243500   0.467   9.932   2.618 -0.8932  1.7701 -0.0029
10508SOL     OW43501   8.977   5.306   7.137 -0.0799 -0.2716 -0.3883
10508SOL    HW143502   9.066   5.273   7.146 -0.0287 -0.0085  0.0660
10508SOL    HW243503   8.982   5.369   7.066  0.5872  1.4329  1.0887
10509SOL     OW43504   6.147   4.204   7.875 -0.7254  0.0831  0.2529
10509SOL    HW143505   6.229   4.220   7.828 -1.1521  0.3780 -0.4102
10509SOL    HW243506   6.127   4.286   7.919 -1.2863  0.4044 -0.5800
10510SOL     OW43507   1.261   7.068   3.328  1.1578 -0.1838  0.5104
10510SOL    HW143508   1.309   6.985   3.318 -0.0175 -0.9122  0.6847
10510SOL    HW243509   1.170   7.045   3.308  0.3253  0.4546  3.1456
10511SOL     OW43510   8.723   6.938   6.855 -0.5055  0.2290  0.3084
10511SOL    HW143511   8.675   7.021   6.861 -0.5430  0.4191 -1.7286
10511SOL    HW243512   8.656   6.874   6.830  0.0655  0.3372 -1.7165
10512SOL     OW43513   8.372   6.922   8.421 -0.1006 -0.1711 -0.0768
10512SOL    HW143514   8.448   6.863   8.425 -2.2348 -3.1587 -0.1017
10512SOL    HW243515   8.305   6.879   8.475 -2.1912  1.7103 -1.0021
10513SOL     OW43516   1.218   4.714   0.049  0.0247  0.1054 -0.3755
10513SOL    HW143517   1.228   4.707   0.144  0.1451  0.4164 -0.3642
10513SOL    HW243518   1.143   4.773   0.037  0.0926  0.1718 -0.4738
10514SOL     OW43519   9.603   7.330   5.074 -0.0374  0.2795 -0.0289
10514SOL    HW143520   9.530   7.369   5.123 -0.7275  0.3281 -1.0568
10514SOL    HW243521   9.678   7.387   5.092 -0.8779  1.7544 -1.0053
10515SOL     OW43522   4.829   1.561   3.034 -0.1464  0.0331 -0.1076
10515SOL    HW143523   4.759   1.615   2.997 -0.8718  0.3330  1.6125
10515SOL    HW243524   4.822   1.477   2.989 -0.6380  0.5524 -1.0208
10516SOL     OW43525   5.846   7.835   4.828  0.2322  0.7672  0.4767
10516SOL    HW143526   5.914   7.819   4.893  1.8407  0.0486 -1.3090
10516SOL    HW243527   5.893   7.852   4.747 -1.6934 -1.0185 -1.1353
10517SOL     OW43528   6.862   8.862   1.699 -0.6551 -0.8399  0.6191
10517SOL    HW143529   6.933   8.919   1.670 -0.1836 -1.4779  0.4925
10517SOL    HW243530   6.788   8.883   1.641 -0.1496 -1.1237 -0.1434
10518SOL     OW43531  10.047   3.293   8.252 -0.0998 -0.0236 -0.5082
10518SOL    HW143532  10.074   3.303   8.161 -0.6717 -1.5174 -0.8561
10518SOL    HW243533   9.952   3.287   8.248 -0.1944  0.7789  0.2854
10519SOL     OW43534   8.283   1.727   4.812  0.1693 -0.0710 -0.1017
10519SOL    HW143535   8.229   1.800   4.842  3.2370  1.7005  1.6817
10519SOL    HW243536   8.289   1.669   4.889 -0.0503 -0.8122 -0.6331
10520SOL     OW43537   2.361   1.262   9.592 -0.2243  0.0831  0.1833
10520SOL    HW143538   2.437   1.215   9.557  0.4179 -0.8155  2.6015
10520SOL    HW243539   2.305   1.276   9.516  0.2452 -3.2935 -0.9483
10521SOL     OW43540   3.039   8.005   2.511 -0.4459  0.5496  0.5211
10521SOL    HW143541   3.004   8.015   2.422 -0.0450 -0.1784  0.2685
10521SOL    HW243542   3.124   7.964   2.498  0.0956  1.4402  1.1867
10522SOL     OW43543   7.854   5.428   5.452 -0.9507 -0.5373 -0.2300
10522SOL    HW143544   7.901   5.471   5.382  0.6066  1.4579  1.8927
10522SOL    HW243545   7.799   5.497   5.490 -2.0764 -1.6693  0.2992
10523SOL     OW43546   3.556  10.079   8.722 -0.2093 -0.0457  0.4230
10523SOL    HW143547   3.462  10.081   8.742 -0.2869  1.9866  0.0977
10523SOL    HW243548   3.564  10.131   8.642  1.0698 -1.2544 -0.2776
10524SOL     OW43549   5.306   7.277   2.948 -0.3212 -0.3039 -0.1391
10524SOL    HW143550   5.244   7.276   3.020 -2.8671  0.1694 -2.1973
10524SOL    HW243551   5.338   7.368   2.945 -0.0151 -0.3802  0.4713
10525SOL     OW43552   9.610   1.443   2.643 -0.3327  0.4390  0.0740
10525SOL    HW143553   9.526   1.416   2.680 -0.4118  1.6619  0.8155
10525SOL    HW243554   9.621   1.534   2.669  1.5530  0.1232  0.5962
10526SOL     OW43555   8.912   6.017   6.528  0.3966  0.3140  0.1708
10526SOL    HW143556   8.849   5.990   6.461  0.2711 -1.3424  0.9012
10526SOL    HW243557   8.909   5.947   6.593  0.6802  1.7641  1.8172
10527SOL     OW43558   6.783   0.465   9.188 -0.2713 -0.0942  0.3325
10527SOL    HW143559   6.727   0.543   9.177 -0.5122 -0.2548  0.4062
10527SOL    HW243560   6.794   0.431   9.099 -0.6139 -0.2830  0.3586
10528SOL     OW43561   4.904   0.884   5.858 -0.3510 -0.0093  0.1605
10528SOL    HW143562   4.860   0.847   5.935 -1.1817  2.4290  0.9550
10528SOL    HW243563   4.843   0.868   5.786  0.4473 -2.3408 -0.0708
10529SOL     OW43564   6.864   4.282   2.173 -0.5553  0.6186  0.2986
10529SOL    HW143565   6.813   4.216   2.126 -2.0207  1.2662  0.9147
10529SOL    HW243566   6.888   4.239   2.255 -2.0871  1.0009  0.9997
10530SOL     OW43567   1.743   6.969   7.803 -0.3825 -0.1560 -0.5653
10530SOL    HW143568   1.819   6.911   7.808 -1.8670 -2.3593 -1.6465
10530SOL    HW243569   1.771   7.041   7.747  1.5258  0.2048  0.7747
10531SOL     OW43570   8.290   7.428   6.583  0.1100  0.1484  0.6419
10531SOL    HW143571   8.378   7.406   6.553 -0.5485  0.4131 -1.6513
10531SOL    HW243572   8.288   7.524   6.584 -0.5317  0.1655 -0.6275
10532SOL     OW43573   2.297   0.964   6.942  0.2434  0.2059 -0.6258
10532SOL    HW143574   2.334   1.016   6.870 -0.5783  1.5928 -0.0768
10532SOL    HW243575   2.314   1.015   7.020 -0.3076 -0.5080 -0.0247
10533SOL     OW43576   2.663   5.467   5.255 -0.3810 -0.2259  0.2649
10533SOL    HW143577   2.713   5.398   5.300 -0.0458  0.9417  1.7624
10533SOL    HW243578   2.575   5.430   5.246 -0.3203 -0.7125  1.4382
10534SOL     OW43579   0.868   2.886   6.942  0.2156 -0.3017  0.2144
10534SOL    HW143580   0.788   2.937   6.954 -0.5424 -0.6210 -2.8373
10534SOL    HW243581   0.859   2.813   7.003 -0.2453  1.3501  2.2435
10535SOL     OW43582   8.040   7.809   5.444 -0.2431  0.3765 -0.3884
10535SOL    HW143583   8.091   7.837   5.368 -0.4564 -1.2716 -1.1605
10535SOL    HW243584   7.976   7.747   5.409 -0.9441  0.2845  1.0007
10536SOL     OW43585   4.063   4.365   7.829 -0.3520 -0.4437 -0.5539
10536SOL    HW143586   4.134   4.390   7.889  0.0094  1.6905 -1.7624
10536SOL    HW243587   4.095   4.286   7.786  0.6706 -0.3174 -0.0631
10537SOL     OW43588   0.521   9.067   7.699 -0.2003  0.0189 -0.6189
10537SOL    HW143589   0.492   9.018   7.622  0.5405  0.0487 -0.9304
10537SOL    HW243590   0.610   9.035   7.715  0.6191  1.8173 -1.3147
10538SOL     OW43591   7.968   0.532   9.071  0.8681  0.0225  0.1575
10538SOL    HW143592   7.971   0.514   8.977 -0.2165  0.1457  0.0907
10538SOL    HW243593   7.875   0.534   9.093  1.0998  0.1647  1.2075
10539SOL     OW43594   5.997   6.177   0.406  0.1726 -0.1860  0.1127
10539SOL    HW143595   5.997   6.244   0.337  1.9499 -0.7894 -0.5338
10539SOL    HW243596   5.951   6.218   0.479 -0.2607  1.1123 -0.8432
10540SOL     OW43597   0.033   9.121   8.306  0.9278 -0.3434 -0.2832
10540SOL    HW143598  -0.029   9.165   8.365  0.7840  1.1336 -1.4697
10540SOL    HW243599   0.036   9.031   8.338 -0.4986 -0.0295  0.8765
10541SOL     OW43600   9.219   5.596   6.092  0.0465 -0.7727 -0.3980
10541SOL    HW143601   9.243   5.505   6.073 -0.3099 -0.9849  0.1512
10541SOL    HW243602   9.198   5.633   6.006  0.3138 -1.1720 -0.6402
10542SOL     OW43603   5.525   9.011   2.151 -0.0190  0.1533 -0.0311
10542SOL    HW143604   5.458   8.966   2.099 -0.3030  0.6792 -0.1337
10542SOL    HW243605   5.477   9.045   2.227 -0.1057  1.4709 -0.6426
10543SOL     OW43606   0.876   4.805   5.941 -0.0468  0.0094 -0.4618
10543SOL    HW143607   0.964   4.781   5.970  1.4480  1.5291 -3.2793
10543SOL    HW243608   0.825   4.810   6.022  2.3063 -1.3100  1.2554
10544SOL     OW43609   4.265   9.497   9.354  0.2344  0.3569  0.1611
10544SOL    HW143610   4.305   9.571   9.308 -1.3617  0.5619 -1.0053
10544SOL    HW243611   4.204   9.538   9.416 -0.4471  0.0526 -0.2914
10545SOL     OW43612   2.774   0.767   8.307  0.4862 -0.7387  0.3956
10545SOL    HW143613   2.806   0.779   8.396  0.2224 -1.9904  0.6749
10545SOL    HW243614   2.763   0.672   8.298 -0.5208 -0.5446 -0.6052
10546SOL     OW43615   5.557   8.113   2.873 -0.0895 -0.2684  0.0426
10546SOL    HW143616   5.517   8.198   2.853  0.6078 -0.2084 -1.2036
10546SOL    HW243617   5.528   8.056   2.803  1.5883 -0.3469 -0.6266
10547SOL     OW43618   6.574   0.299   3.922  0.2233  0.0075 -0.3975
10547SOL    HW143619   6.516   0.254   3.860 -1.0214  0.7749  0.1619
10547SOL    HW243620   6.655   0.314   3.874  0.1012 -1.4347 -1.0869
10548SOL     OW43621   9.788   7.305   4.107 -0.1654  0.2867  0.0609
10548SOL    HW143622   9.861   7.245   4.122  0.3716  1.0245  0.4834
10548SOL    HW243623   9.738   7.302   4.189  0.7104  1.5335  0.6791
10549SOL     OW43624   1.177   6.291   8.230  0.3826  0.3872 -0.6890
10549SOL    HW143625   1.181   6.198   8.206 -1.5812  0.2065 -0.4644
10549SOL    HW243626   1.126   6.332   8.160  1.2591  1.3402 -0.8072
10550SOL     OW43627   1.189   1.868   1.024  0.0700  0.1222 -0.4789
10550SOL    HW143628   1.132   1.814   1.079 -0.0374  2.5443  1.9884
10550SOL    HW243629   1.148   1.864   0.937 -2.5118 -0.1621  0.6381
10551SOL     OW43630   3.567   5.496   8.479 -0.1933 -0.0518 -0.1234
10551SOL    HW143631   3.513   5.418   8.481  2.4371 -2.0333 -0.8682
10551SOL    HW243632   3.607   5.500   8.566 -0.5916  0.7180  0.0367
10552SOL     OW43633   4.691   1.175   9.438 -0.2837  0.5538  0.4210
10552SOL    HW143634   4.697   1.221   9.522 -0.3782  1.0380  0.1681
10552SOL    HW243635   4.650   1.091   9.459  1.2136 -0.0378  1.1320
10553SOL     OW43636   0.371   1.632   2.537  0.2035  0.4561 -0.2171
10553SOL    HW143637   0.370   1.560   2.600  1.0439 -0.1977 -0.9304
10553SOL    HW243638   0.314   1.603   2.466  1.3673  0.0139 -0.9970
10554SOL     OW43639   1.611   2.620   8.662  0.0415 -0.4257 -0.2426
10554SOL    HW143640   1.528   2.607   8.616  0.4458 -0.8074 -0.8735
10554SOL    HW243641   1.678   2.607   8.595  0.5808  1.7211 -0.1889
10555SOL     OW43642   3.158   6.788   8.903  0.1715 -0.2634 -0.3513
10555SOL    HW143643   3.114   6.842   8.837  0.3130 -1.2529 -1.2806
10555SOL    HW243644   3.246   6.776   8.869  0.2844 -0.6800  0.0764
10556SOL     OW43645   4.369   7.417   5.283 -0.6787  0.2407  0.0543
10556SOL    HW143646   4.302   7.397   5.218  0.8690 -2.5357 -0.8345
10556SOL    HW243647   4.328   7.398   5.367 -1.4530  0.0365 -0.3634
10557SOL     OW43648   7.349   1.072   5.584  0.2872  0.6492 -0.8653
10557SOL    HW143649   7.272   1.015   5.583 -0.1066  1.1076  0.4700
10557SOL    HW243650   7.376   1.078   5.492 -0.7061 -0.2701 -1.2402
10558SOL     OW43651   4.893   2.132   8.020 -0.4255  0.0364  0.3766
10558SOL    HW143652   4.897   2.077   7.942  0.1279  0.3921  0.1499
10558SOL    HW243653   4.980   2.126   8.059 -1.4402 -2.4284  2.5930
10559SOL     OW43654   0.213   6.002   4.077 -0.5374 -0.0717 -0.0063
10559SOL    HW143655   0.226   6.038   3.990  0.1892 -0.1465  0.0631
10559SOL    HW243656   0.138   5.944   4.069  1.1183 -2.1588 -1.2258
10560SOL     OW43657   1.278   5.523   6.355 -0.3806  0.2958  0.0674
10560SOL    HW143658   1.304   5.615   6.360 -1.4830  0.5431  2.2811
10560SOL    HW243659   1.228   5.507   6.435 -1.1655 -1.9538 -0.7788
10561SOL     OW43660   9.388   0.446  10.076 -0.2082  0.6242 -0.1232
10561SOL    HW143661   9.425   0.514  10.133 -0.4855  0.6208  0.0618
10561SOL    HW243662   9.311   0.415  10.123 -1.0519  1.3521 -0.9681
10562SOL     OW43663   3.494   8.134   8.085 -0.3214  0.5157  0.3058
10562SOL    HW143664   3.401   8.144   8.105 -0.5586  0.5295 -0.7496
10562SOL    HW243665   3.499   8.139   7.990  0.5164 -1.4701  0.1974
10563SOL     OW43666   6.633   1.000   3.104 -0.1124 -0.5185 -0.5197
10563SOL    HW143667   6.566   0.955   3.155  0.1954  1.0322  1.3835
10563SOL    HW243668   6.709   1.003   3.162  0.9340 -0.4060 -1.8396
10564SOL     OW43669   5.787   6.313   5.637 -0.3471  0.0390 -0.1446
10564SOL    HW143670   5.846   6.367   5.584  1.3667 -2.1820 -0.6532
10564SOL    HW243671   5.784   6.357   5.722  1.3809  0.6677 -0.3736
10565SOL     OW43672  10.365   1.192   8.830  0.0746 -0.1590  0.2420
10565SOL    HW143673  10.369   1.192   8.926 -1.0062 -1.3895  0.3087
10565SOL    HW243674  10.281   1.151   8.809  0.0122  0.6436 -1.2373
10566SOL     OW43675   3.083   9.403   0.623  0.0338 -0.2479 -0.4477
10566SOL    HW143676   3.096   9.417   0.717 -0.1180  1.1673 -0.6161
10566SOL    HW243677   3.094   9.490   0.584  0.6593 -0.9064 -1.8142
10567SOL     OW43678   5.813  10.056   9.514 -0.6780 -0.0429 -0.0642
10567SOL    HW143679   5.871   9.999   9.563  1.1156  1.8009  0.0686
10567SOL    HW243680   5.852  10.063   9.428 -0.8024  1.0585 -0.0457
10568SOL     OW43681  10.048   5.869   3.254  0.4670  0.0942  0.4247
10568SOL    HW143682  10.019   5.929   3.322 -0.2569 -0.2663  0.4439
10568SOL    HW243683  10.097   5.802   3.300  0.9764  0.4783  0.4458
10569SOL     OW43684   7.490   7.757   1.126 -0.5652 -0.0957 -0.0647
10569SOL    HW143685   7.480   7.763   1.221 -2.3264 -0.6926 -0.1918
10569SOL    HW243686   7.462   7.842   1.093  0.1036  0.1328 -0.0654
10570SOL     OW43687   7.668   4.197   2.826 -0.3621 -0.5078 -0.3215
10570SOL    HW143688   7.669   4.141   2.904 -0.6550  0.9462  0.7826
10570SOL    HW243689   7.578   4.226   2.819 -0.4186 -0.9311 -1.4599
10571SOL     OW43690   3.389   2.934   2.807  0.3117 -0.1287  0.3054
10571SOL    HW143691   3.332   2.865   2.771 -3.5952  1.4730  2.6803
10571SOL    HW243692   3.375   3.009   2.749  3.2949 -0.6893 -1.3376
10572SOL     OW43693   4.717   7.259   6.092 -0.3389 -0.1092  0.1923
10572SOL    HW143694   4.769   7.256   6.172 -1.4717 -0.2473  0.9412
10572SOL    HW243695   4.628   7.242   6.120 -0.7440 -0.2989 -1.1255
10573SOL     OW43696   6.087   4.721   8.449 -0.3945 -0.0457  0.0218
10573SOL    HW143697   6.137   4.698   8.527 -1.8057  0.2881  1.0719
10573SOL    HW243698   6.033   4.644   8.431 -1.0791  0.3797  0.2172
10574SOL     OW43699   4.818   1.834   5.365  0.0526 -0.3979 -0.8066
10574SOL    HW143700   4.776   1.918   5.384 -1.2833 -1.2205  0.0323
10574SOL    HW243701   4.748   1.779   5.329 -0.0656 -2.2773  1.9950
10575SOL     OW43702   2.862   5.741   3.029  0.1337  0.5133 -0.3587
10575SOL    HW143703   2.927   5.748   2.959 -0.4419  0.9261 -0.8671
10575SOL    HW243704   2.801   5.674   2.998 -0.1868  0.7791 -0.3123
10576SOL     OW43705   8.832   7.920   7.246 -0.3751 -0.3005  0.0089
10576SOL    HW143706   8.769   7.933   7.176 -2.5019 -1.3458  1.5990
10576SOL    HW243707   8.834   8.004   7.293  2.3373  0.9938 -2.1057
10577SOL     OW43708   0.609   2.367   8.837  0.8858  0.1019  0.0506
10577SOL    HW143709   0.656   2.450   8.850 -0.3270  1.0639 -1.3464
10577SOL    HW243710   0.518   2.393   8.824  0.1282 -1.6241  1.5046
10578SOL     OW43711   7.110   6.902   6.320  0.0796 -0.1584 -0.1731
10578SOL    HW143712   7.156   6.978   6.357  0.5140 -1.2496  1.7100
10578SOL    HW243713   7.121   6.911   6.226  1.9126  1.0361  0.0819
10579SOL     OW43714   1.232   9.156   9.757 -0.2243  0.1234 -0.9108
10579SOL    HW143715   1.183   9.080   9.785 -0.5562  0.8285  0.5036
10579SOL    HW243716   1.166   9.217   9.724 -0.0885  0.2505 -0.9538
10580SOL     OW43717   3.956   0.314   1.910 -0.2295  0.0404 -0.0899
10580SOL    HW143718   3.894   0.308   1.982  0.6413  0.8808  0.7542
10580SOL    HW243719   4.025   0.252   1.933  0.2271  0.5759 -0.0193
10581SOL     OW43720   6.691   4.396   5.097 -0.6215 -0.6318 -0.4653
10581SOL    HW143721   6.607   4.352   5.086 -1.8958  1.5589 -0.2351
10581SOL    HW243722   6.697   4.413   5.191 -0.3724  0.0042 -0.5898
10582SOL     OW43723   1.961   5.665   7.600  0.2861 -0.2958 -0.5853
10582SOL    HW143724   2.049   5.652   7.564  0.3694 -3.8714  0.4950
10582SOL    HW243725   1.977   5.696   7.689  0.6998 -2.8707  0.3403
10583SOL     OW43726   3.303   1.687   2.557 -0.3584  0.7024  0.5341
10583SOL    HW143727   3.213   1.706   2.585 -0.0655 -0.0658  2.1115
10583SOL    HW243728   3.345   1.773   2.550 -0.9874  1.0164  0.5784
10584SOL     OW43729   4.405   2.845  10.118 -0.4405 -0.3623 -0.4696
10584SOL    HW143730   4.449   2.833  10.202  0.0361  0.6530 -0.5560
10584SOL    HW243731   4.473   2.830  10.053 -0.4808  0.1449 -0.6339
10585SOL     OW43732   9.104   7.863   4.197  0.7455 -0.4678 -0.3636
10585SOL    HW143733   9.126   7.906   4.279 -1.6711 -0.9748  0.6340
10585SOL    HW243734   9.134   7.772   4.209 -0.6997 -0.8552  0.4928
10586SOL     OW43735   9.585   6.431   4.178 -0.1278  0.0450  0.5231
10586SOL    HW143736   9.642   6.357   4.157 -1.9039 -0.9319 -1.2080
10586SOL    HW243737   9.641   6.508   4.170  1.1121 -0.9157 -0.4587
10587SOL     OW43738   8.211   0.636   6.863  0.4520 -0.6055  0.5476
10587SOL    HW143739   8.171   0.655   6.948  0.4255 -0.1472  0.4332
10587SOL    HW243740   8.210   0.541   6.857  0.6870 -0.6506  1.1713
10588SOL     OW43741   4.105   8.951  10.039  0.2446 -0.1486 -0.1118
10588SOL    HW143742   4.147   8.980  10.120 -2.0442  0.4833  0.9022
10588SOL    HW243743   4.075   8.862  10.058 -2.1971  0.7482  0.5718
10589SOL     OW43744   2.461   6.602   4.485  0.6337 -0.3087  0.4255
10589SOL    HW143745   2.372   6.610   4.520  1.3225 -0.6360  2.3921
10589SOL    HW243746   2.515   6.582   4.562  2.3452 -0.5717 -0.7907
10590SOL     OW43747   4.486   2.664   7.333 -0.5567  0.1547  0.0539
10590SOL    HW143748   4.484   2.690   7.241 -1.0114  0.4709  0.1511
10590SOL    HW243749   4.560   2.712   7.370  0.9080 -1.4813 -0.5788
10591SOL     OW43750   3.571   2.200   2.155  0.1467 -0.0764  0.0594
10591SOL    HW143751   3.479   2.182   2.138  0.3524 -2.1806  0.8126
10591SOL    HW243752   3.618   2.152   2.087  0.7158 -0.6542  0.8427
10592SOL     OW43753   7.474   9.296   1.291  0.0440  0.4691 -0.2331
10592SOL    HW143754   7.448   9.366   1.351 -0.7696 -1.5426  1.8946
10592SOL    HW243755   7.414   9.224   1.311  1.0805 -0.9950 -2.0856
10593SOL     OW43756   7.173   4.705   0.664 -0.4170 -0.0796 -0.5738
10593SOL    HW143757   7.205   4.795   0.668  2.9410 -1.0793 -1.9643
10593SOL    HW243758   7.200   4.666   0.747  0.8891 -0.5684 -1.2052
10594SOL     OW43759   8.623   6.042   2.666  0.5673 -0.3654  0.1501
10594SOL    HW143760   8.602   6.069   2.755 -1.2734 -0.2578 -0.2702
10594SOL    HW243761   8.690   6.103   2.637  1.2669 -0.4800  1.4898
10595SOL     OW43762   5.523   5.691   4.685 -0.2402  0.2714  0.0834
10595SOL    HW143763   5.480   5.653   4.608  0.5003 -0.6594  0.1176
10595SOL    HW243764   5.521   5.621   4.750  0.9076  0.3738  0.2434
10596SOL     OW43765   0.948   6.704  10.091 -0.4806  0.4029 -0.0473
10596SOL    HW143766   1.025   6.754  10.116 -0.5816  0.9876 -0.8737
10596SOL    HW243767   0.879   6.734  10.151 -0.5357  1.2513 -0.5273
10597SOL     OW43768   5.849   4.080   8.750  0.0325 -0.3996  0.4467
10597SOL    HW143769   5.820   4.090   8.660  1.1863 -0.6809  0.0313
10597SOL    HW243770   5.921   4.142   8.760 -0.1201 -0.3262  1.1966
10598SOL     OW43771   0.849   4.380   1.079  0.3865 -0.3337  0.3915
10598SOL    HW143772   0.941   4.354   1.083  0.4333 -0.1342  0.6175
10598SOL    HW243773   0.817   4.370   1.168  0.4075  0.3892  0.4851
10599SOL     OW43774   3.323   3.843   6.601 -1.0074 -0.0923  0.1430
10599SOL    HW143775   3.285   3.771   6.550 -1.0284 -0.1980  0.3063
10599SOL    HW243776   3.287   3.922   6.561  0.9605 -0.0293 -1.6488
10600SOL     OW43777   0.416   4.524   3.779 -0.3153  0.3033 -0.1954
10600SOL    HW143778   0.378   4.609   3.757 -0.4001  0.5581  0.8566
10600SOL    HW243779   0.393   4.511   3.872 -0.6410 -1.0466 -0.4366
10601SOL     OW43780   1.949   1.456   9.922  0.0904 -0.6817  0.5940
10601SOL    HW143781   2.000   1.431   9.845  0.1034  0.2902  0.2827
10601SOL    HW243782   2.015   1.480   9.987  0.0757 -1.3818  0.8787
10602SOL     OW43783   8.873   4.370   2.648  0.0029 -0.1791  0.4560
10602SOL    HW143784   8.948   4.429   2.658  0.1820 -0.1489 -0.8894
10602SOL    HW243785   8.805   4.424   2.609 -0.0684 -0.6769 -0.1240
10603SOL     OW43786   8.501  10.131   5.975 -0.0749  0.4063  0.8164
10603SOL    HW143787   8.551  10.051   5.993 -1.4683 -0.2430  2.0018
10603SOL    HW243788   8.537  10.164   5.893  0.4348 -1.5151  0.2093
10604SOL     OW43789   0.072   7.264   1.509  0.0779  0.1686  0.8494
10604SOL    HW143790   0.070   7.176   1.547 -0.0333 -0.9354 -1.5178
10604SOL    HW243791   0.001   7.311   1.553 -0.5183 -1.2484  1.4518
10605SOL     OW43792   2.738   5.485   4.724 -0.4651  0.3778  0.3204
10605SOL    HW143793   2.784   5.424   4.781 -0.6814  0.1675  0.2736
10605SOL    HW243794   2.647   5.482   4.754 -0.8116 -0.6019 -0.7627
10606SOL     OW43795   6.706   6.441  10.245  0.7144 -0.1178 -0.7680
10606SOL    HW143796   6.683   6.481  10.329  1.9595 -0.1518 -0.4003
10606SOL    HW243797   6.798   6.417  10.254  0.0640 -3.0596 -0.9725
10607SOL     OW43798   2.062   7.614   3.563 -0.0179 -0.0881 -0.3796
10607SOL    HW143799   1.971   7.592   3.584  0.5512 -2.2556  0.0890
10607SOL    HW243800   2.066   7.609   3.467 -0.1026 -1.4162 -0.3351
10608SOL     OW43801   5.323   0.949   9.986 -0.1266  0.1449  0.0608
10608SOL    HW143802   5.330   0.916  10.076  0.6197  1.3832  0.4772
10608SOL    HW243803   5.388   0.899   9.937  0.4154  0.3961  0.5068
10609SOL     OW43804   1.327   3.504   0.249  0.0882  0.2573  0.7667
10609SOL    HW143805   1.332   3.528   0.157 -1.7968 -2.2649 -0.1072
10609SOL    HW243806   1.279   3.576   0.290  3.3447  2.8064  0.4906
10610SOL     OW43807   9.587   6.252   3.113 -0.0423  0.1349  0.1899
10610SOL    HW143808   9.643   6.181   3.144 -0.5989 -0.7802 -0.8492
10610SOL    HW243809   9.627   6.331   3.148  1.2609 -0.5942  0.3919
10611SOL     OW43810   6.529   8.683   3.562  0.0978 -0.4201  0.0043
10611SOL    HW143811   6.508   8.775   3.545 -0.9427 -0.5520  0.4871
10611SOL    HW243812   6.465   8.656   3.627  1.8628 -0.8681  1.6294
10612SOL     OW43813   8.035   4.392   5.527 -0.1147 -0.2340  0.3898
10612SOL    HW143814   8.070   4.359   5.444  0.0680 -0.6775  0.6410
10612SOL    HW243815   8.036   4.487   5.517  0.5580 -0.2618  0.1515
10613SOL     OW43816   6.275   8.611   8.250 -0.1373  0.2779  0.1746
10613SOL    HW143817   6.180   8.599   8.243 -0.4739  1.4245  2.0582
10613SOL    HW243818   6.310   8.522   8.250 -1.3185 -0.2195  0.5194
10614SOL     OW43819   0.876   9.021   4.955  0.1404  0.0229  0.4990
10614SOL    HW143820   0.922   9.058   4.880  0.5003  0.7054  1.0410
10614SOL    HW243821   0.928   8.946   4.981 -0.4508 -0.7309 -0.4524
10615SOL     OW43822   6.804   8.635   3.431  0.0430  0.0714  0.0693
10615SOL    HW143823   6.869   8.581   3.477 -0.5773 -2.3238 -1.6896
10615SOL    HW243824   6.735   8.649   3.496 -0.2167 -2.1337  0.3652
10616SOL     OW43825   9.816   2.748   9.877 -0.1009 -0.2579 -0.2733
10616SOL    HW143826   9.905   2.784   9.873 -0.1280 -0.2685 -1.0289
10616SOL    HW243827   9.817   2.674   9.817 -0.9683  0.5303 -1.3080
10617SOL     OW43828   4.197   1.983   6.488 -0.2172 -0.5512  0.1099
10617SOL    HW143829   4.106   1.978   6.515 -0.0752 -1.2161  0.4970
10617SOL    HW243830   4.237   1.904   6.524  0.1700 -1.0528 -1.3637
10618SOL     OW43831   4.715   8.614   2.772  0.4257 -0.1899  0.0798
10618SOL    HW143832   4.742   8.524   2.757  0.7229 -0.2109  0.7374
10618SOL    HW243833   4.652   8.609   2.844 -0.5509 -0.0193 -0.7378
10619SOL     OW43834   8.994   0.734   0.978  0.0929 -0.1708 -0.1859
10619SOL    HW143835   8.907   0.702   0.955 -0.8384  1.0691  1.4003
10619SOL    HW243836   8.978   0.818   1.022  2.1109  0.2009 -0.0523
10620SOL     OW43837   8.539   9.562   7.316 -0.3769 -0.4393 -0.2769
10620SOL    HW143838   8.445   9.555   7.300 -0.4548 -0.7673  0.3002
10620SOL    HW243839   8.560   9.486   7.370  0.1351 -0.1141 -0.0104
10621SOL     OW43840   4.054   6.436   9.326  0.1126  0.1785  0.1554
10621SOL    HW143841   4.037   6.346   9.298 -0.4901 -0.1601  1.5069
10621SOL    HW243842   3.966   6.474   9.339  0.3504  0.4871  0.9811
10622SOL     OW43843   1.629   6.803   6.205 -0.0528  0.0950 -0.1078
10622SOL    HW143844   1.720   6.820   6.179  0.5779 -1.7272  0.7071
10622SOL    HW243845   1.633   6.796   6.300 -1.0716  0.0399 -0.0622
10623SOL     OW43846   1.867   2.410   2.815  0.2662  0.5620 -0.3485
10623SOL    HW143847   1.912   2.325   2.814 -0.9559 -0.1286  0.6219
10623SOL    HW243848   1.793   2.398   2.756  0.1797  1.0206 -0.3362
10624SOL     OW43849   8.067   8.499   8.206 -0.6382 -0.2795  0.4104
10624SOL    HW143850   8.048   8.577   8.153 -0.3245  0.2860  1.1121
10624SOL    HW243851   8.146   8.462   8.167 -0.2265  0.3132  0.6623
10625SOL     OW43852   9.736   9.136   1.532  0.0836 -0.3888 -0.1225
10625SOL    HW143853   9.794   9.123   1.608 -1.0875 -1.6224  0.6155
10625SOL    HW243854   9.795   9.141   1.457  1.1763 -1.4399  0.6270
10626SOL     OW43855   3.502   1.401   7.257 -0.4438  0.6860  0.1554
10626SOL    HW143856   3.540   1.484   7.228  2.4671 -1.1089 -1.6696
10626SOL    HW243857   3.457   1.367   7.179 -1.6192  0.4964  0.8903
10627SOL     OW43858   4.543   3.983   9.195  0.4027 -0.3969 -0.1883
10627SOL    HW143859   4.547   3.902   9.245 -0.7378 -0.3812 -0.0488
10627SOL    HW243860   4.458   3.980   9.151  0.4844  0.5666 -0.4383
10628SOL     OW43861   9.304   1.557   1.896 -0.5527 -0.7421 -0.2114
10628SOL    HW143862   9.369   1.531   1.831 -0.5684  0.0019 -0.5204
10628SOL    HW243863   9.347   1.625   1.948 -1.3022  0.2136 -0.8211
10629SOL     OW43864   7.215   3.145   8.689  0.5206 -0.0996  0.1678
10629SOL    HW143865   7.215   3.097   8.607  0.5663  0.2486 -0.0379
10629SOL    HW243866   7.293   3.115   8.735  0.5413 -0.2329  0.0459
10630SOL     OW43867   3.271   6.113   6.066  0.4030  0.0548 -0.1854
10630SOL    HW143868   3.268   6.207   6.087  0.9112  0.4393 -1.7080
10630SOL    HW243869   3.181   6.092   6.040  0.6528  0.5676 -1.5445
10631SOL     OW43870   1.094   0.343   8.089  0.1662  0.2557  0.4720
10631SOL    HW143871   1.168   0.389   8.048  1.1427 -0.2295  1.6371
10631SOL    HW243872   1.030   0.412   8.106  0.3003  0.6748 -0.6296
10632SOL     OW43873   2.317   8.676   9.182 -0.4109  0.0654 -0.6332
10632SOL    HW143874   2.291   8.612   9.116 -1.3176 -0.4830  0.2367
10632SOL    HW243875   2.281   8.759   9.149 -1.4157 -0.3166 -0.5155
10633SOL     OW43876   9.453   9.784   0.544 -0.0817  0.2095  0.2395
10633SOL    HW143877   9.481   9.854   0.602  1.7436  0.4743 -0.8594
10633SOL    HW243878   9.490   9.705   0.581 -1.9042 -0.1943  1.3230
10634SOL     OW43879   1.866   4.119   8.375 -0.2054  0.3899  0.0206
10634SOL    HW143880   1.859   4.096   8.467  0.3003 -2.1180 -0.4914
10634SOL    HW243881   1.960   4.115   8.356 -0.4647 -1.7517 -1.1316
10635SOL     OW43882   2.113   8.604  10.378  0.3085  0.2227  0.2621
10635SOL    HW143883   2.165   8.537  10.423 -0.0125 -0.5982 -0.5475
10635SOL    HW243884   2.088   8.665  10.447  2.8635  1.0103  0.5974
10636SOL     OW43885   8.894   2.658   4.132 -0.3471  0.1402 -0.7356
10636SOL    HW143886   8.973   2.692   4.173 -0.8248 -0.4674  0.7411
10636SOL    HW243887   8.822   2.703   4.177 -0.8765  1.0313 -2.3575
10637SOL     OW43888   7.038   7.435  10.044 -0.2563 -0.1006  0.4155
10637SOL    HW143889   7.114   7.401   9.996 -1.0331 -1.1499 -0.1089
10637SOL    HW243890   7.073   7.461  10.129  0.8414  0.2317 -0.1201
10638SOL     OW43891   2.909   1.151   0.195 -0.2184 -0.0055 -0.4159
10638SOL    HW143892   2.863   1.221   0.241 -0.4328 -1.0741  1.0782
10638SOL    HW243893   2.982   1.195   0.150 -0.0869  1.1115  0.8389
10639SOL     OW43894   6.721   1.777   1.621 -0.0947  0.1427 -0.7703
10639SOL    HW143895   6.794   1.793   1.561  0.1891 -1.5500 -0.9218
10639SOL    HW243896   6.669   1.709   1.577  0.8034 -2.0816  1.4006
10640SOL     OW43897   9.833   1.736   3.486  0.0167 -0.0674 -0.4604
10640SOL    HW143898   9.772   1.701   3.552  1.7777  0.5007  1.5845
10640SOL    HW243899   9.779   1.749   3.408 -2.1647 -0.8497  0.8265
10641SOL     OW43900   2.967   1.959   9.120 -0.4080 -0.2455 -0.1675
10641SOL    HW143901   2.917   1.936   9.041  0.7667  0.5608 -1.1910
10641SOL    HW243902   2.915   2.027   9.162 -2.8424 -3.0229  1.7562
10642SOL     OW43903   9.613   7.746   5.867 -0.0791 -0.4698  0.2057
10642SOL    HW143904   9.648   7.715   5.950 -0.9789  0.7095  1.0624
10642SOL    HW243905   9.682   7.803   5.832 -0.7901  1.3443  1.5828
10643SOL     OW43906   7.440   4.713   8.670  0.4132  0.1560  0.1811
10643SOL    HW143907   7.451   4.646   8.603 -0.3361  0.0231  0.1905
10643SOL    HW243908   7.524   4.712   8.718  0.6852 -0.2401 -0.2951
10644SOL     OW43909   8.874   4.210   7.204 -0.1417  0.5119  0.3505
10644SOL    HW143910   8.898   4.161   7.282 -0.1070  0.4020  0.2708
10644SOL    HW243911   8.869   4.301   7.234 -0.2023  0.4617  0.4971
10645SOL     OW43912   9.820   4.325   2.626 -0.0347 -0.2147  0.5953
10645SOL    HW143913   9.841   4.365   2.710 -0.6654  0.9233  0.2341
10645SOL    HW243914   9.793   4.235   2.648  2.2226 -0.7643  1.3412
10646SOL     OW43915   9.354   0.274   8.310  0.1146  0.3390  0.0699
10646SOL    HW143916   9.444   0.286   8.338 -0.1990  0.6764  0.9527
10646SOL    HW243917   9.338   0.180   8.320  0.7540  0.0597 -1.3101
10647SOL     OW43918   2.606  10.200   7.529  0.7335 -0.2167  0.0929
10647SOL    HW143919   2.547  10.236   7.595  0.8798  2.9761 -1.3031
10647SOL    HW243920   2.693  10.229   7.556  0.7907  1.1880 -1.4147
10648SOL     OW43921   0.589   0.594   7.224  0.2886 -0.2379  0.6024
10648SOL    HW143922   0.561   0.626   7.138 -0.6518 -0.7848  0.6837
10648SOL    HW243923   0.510   0.554   7.261  0.6919 -0.0386  1.7089
10649SOL     OW43924   7.791   0.431   5.780 -0.2076 -0.5607 -0.0444
10649SOL    HW143925   7.701   0.459   5.762  0.4433  1.1971 -0.8414
10649SOL    HW243926   7.844   0.481   5.718  1.4568 -0.3438  1.4802
10650SOL     OW43927   9.782   4.980   1.461 -0.1689  0.1140  0.1334
10650SOL    HW143928   9.844   4.921   1.419  0.8215  0.9841  0.3338
10650SOL    HW243929   9.754   5.038   1.390 -0.1490  0.2173  0.2102
10651SOL     OW43930   0.899   8.730   9.786 -0.1272  0.3662  0.5771
10651SOL    HW143931   0.888   8.667   9.858  0.0420  1.2470  1.3952
10651SOL    HW243932   0.950   8.801   9.825 -1.3098  1.5619 -0.0023
10652SOL     OW43933   5.088   4.728   1.452 -0.5061 -0.0324  0.0473
10652SOL    HW143934   5.068   4.653   1.509 -0.1797  0.6178  1.0385
10652SOL    HW243935   5.004   4.750   1.411 -0.3174 -1.9091 -1.4907
10653SOL     OW43936   1.508   7.162   8.460 -0.1272 -0.5585 -0.8281
10653SOL    HW143937   1.413   7.151   8.453 -0.2488  0.3662 -0.7114
10653SOL    HW243938   1.524   7.251   8.430  0.1787  0.9531  3.2257
10654SOL     OW43939  10.346   6.406   7.089  0.1777 -0.2727 -0.3348
10654SOL    HW143940  10.433   6.396   7.050  0.0912 -0.4349 -0.4885
10654SOL    HW243941  10.287   6.361   7.028  0.0072 -0.3026 -0.1470
10655SOL     OW43942   2.291   6.409   9.764 -0.4081  0.1698  0.3149
10655SOL    HW143943   2.217   6.469   9.767 -0.2478  0.3241  2.0491
10655SOL    HW243944   2.271   6.342   9.830  0.1317 -0.8530 -0.5201
10656SOL     OW43945   0.289   0.039   8.319 -0.1088 -0.4398 -0.0741
10656SOL    HW143946   0.219  -0.024   8.300  0.7911 -1.0345 -1.6317
10656SOL    HW243947   0.253   0.096   8.387 -1.7936 -1.2292 -0.2600
10657SOL     OW43948   6.425   9.581   9.565  0.2667 -0.4391 -0.5437
10657SOL    HW143949   6.440   9.548   9.653  1.6170  0.3017 -0.4637
10657SOL    HW243950   6.513   9.594   9.529 -0.2223  0.9839 -1.3280
10658SOL     OW43951   3.817   9.217   6.452 -1.0872 -0.1723  0.2356
10658SOL    HW143952   3.855   9.248   6.534  0.5758  0.0777 -0.5836
10658SOL    HW243953   3.776   9.294   6.413  0.5796  0.3993 -0.4645
10659SOL     OW43954   3.908   4.789   7.073 -0.1191  0.1977  0.0505
10659SOL    HW143955   3.917   4.870   7.122 -2.2273 -1.5103  3.6765
10659SOL    HW243956   3.980   4.734   7.103 -0.5463 -0.3646  0.0626
10660SOL     OW43957   0.748   9.908   4.659  0.3701 -0.5306 -0.8510
10660SOL    HW143958   0.841   9.883   4.658  0.1561 -1.4159 -0.1606
10660SOL    HW243959   0.749  10.004   4.654  1.3830 -0.4363  0.5897
10661SOL     OW43960   1.848   5.470   9.257  0.2844 -0.3162  0.4080
10661SOL    HW143961   1.865   5.438   9.346  1.9933 -1.5659 -0.3132
10661SOL    HW243962   1.811   5.394   9.211  0.1250  0.0932 -0.1455
10662SOL     OW43963   4.392   7.607   3.872  0.5534 -0.5233  0.0070
10662SOL    HW143964   4.456   7.561   3.926 -0.4037  0.0162  1.6607
10662SOL    HW243965   4.427   7.601   3.783  2.1587 -1.4650  0.6627
10663SOL     OW43966   1.796   7.547   2.404 -0.0084 -0.0148 -0.0534
10663SOL    HW143967   1.711   7.568   2.367  0.2162 -1.3650 -1.4317
10663SOL    HW243968   1.845   7.630   2.401 -0.3286  0.1557 -1.9586
10664SOL     OW43969   1.569  10.226   9.968 -0.7750  0.4137 -0.0044
10664SOL    HW143970   1.619  10.297  10.007  1.3158 -0.0617 -1.6128
10664SOL    HW243971   1.480  10.238  10.000 -0.2056  2.9302  0.8318
10665SOL     OW43972   5.153   8.356  10.308 -0.2680 -0.9290 -0.0565
10665SOL    HW143973   5.192   8.443  10.310 -1.4038 -0.4071  0.1488
10665SOL    HW243974   5.185   8.314  10.388  0.3452 -0.7399 -0.1932
10666SOL     OW43975  10.025   8.147   4.894  0.0617  0.5483 -0.5965
10666SOL    HW143976  10.088   8.096   4.945 -1.5994  0.6066  1.6994
10666SOL    HW243977  10.016   8.099   4.812 -0.7948 -2.4763  1.1119
10667SOL     OW43978   8.039   0.569   8.789 -0.3790  0.2548  0.2755
10667SOL    HW143979   8.101   0.500   8.769 -3.2306 -2.5499  0.2851
10667SOL    HW243980   8.020   0.610   8.704 -2.3954 -2.5282 -0.7597
10668SOL     OW43981   6.654   4.994   7.526  0.3593  0.3267  0.2341
10668SOL    HW143982   6.746   5.016   7.508  0.1738  1.1255  0.2129
10668SOL    HW243983   6.658   4.915   7.580  1.1691  1.5721  2.0972
10669SOL     OW43984   6.219   1.909   9.929 -0.1713  0.6379 -0.3014
10669SOL    HW143985   6.308   1.877   9.912  0.5064  1.8508  0.7923
10669SOL    HW243986   6.166   1.830   9.934  0.8234 -0.1094 -1.0362
10670SOL     OW43987   0.814   5.180   3.735 -0.0479 -0.7038  0.1394
10670SOL    HW143988   0.833   5.102   3.786 -1.4544 -0.0916  1.6680
10670SOL    HW243989   0.740   5.156   3.679 -1.3376 -0.1420  1.5413
10671SOL     OW43990   9.328   9.674   5.357  0.0393 -0.6371 -0.0743
10671SOL    HW143991   9.237   9.697   5.336 -0.7002 -2.3400  1.0832
10671SOL    HW243992   9.377   9.701   5.280 -1.4422  0.2295 -0.7777
10672SOL     OW43993   7.452   2.504   0.088  0.3627  0.1643  0.5239
10672SOL    HW143994   7.537   2.465   0.106  1.4731  2.6841  1.1942
10672SOL    HW243995   7.393   2.464   0.152  1.1098 -1.2366  0.3845
10673SOL     OW43996   9.750   0.460   4.146 -0.5365 -0.2076 -0.2304
10673SOL    HW143997   9.834   0.500   4.169 -0.6353 -0.7175  1.1203
10673SOL    HW243998   9.722   0.506   4.067  0.8459  0.2058 -0.5059
10674SOL     OW43999   3.215   3.366   3.965  0.2927 -0.0099 -0.5653
10674SOL    HW144000   3.209   3.281   4.008 -1.9719  0.9719  1.3047
10674SOL    HW244001   3.137   3.370   3.909 -0.1404  1.1256  0.0709
10675SOL     OW44002   5.445   8.498   6.407 -0.3874 -0.4123 -0.2075
10675SOL    HW144003   5.424   8.452   6.326  0.0145  0.1554 -0.6480
10675SOL    HW244004   5.528   8.543   6.388 -0.0134 -0.6905  0.6934
10676SOL     OW44005   4.394   6.553   6.450 -0.5370  0.0122 -0.1628
10676SOL    HW144006   4.339   6.609   6.395 -0.6647  0.3327  0.2841
10676SOL    HW244007   4.364   6.570   6.539 -1.1259 -1.3699 -0.0708
10677SOL     OW44008   0.188   5.365   0.367 -0.3019  0.2290 -0.0376
10677SOL    HW144009   0.141   5.391   0.288 -1.1889  0.5891  0.5828
10677SOL    HW244010   0.182   5.270   0.369 -0.4470  0.2326 -0.3049
10678SOL     OW44011   9.131   1.698   9.930 -1.1010  0.3301 -0.4169
10678SOL    HW144012   9.125   1.611   9.890  2.3145 -1.2832  2.1060
10678SOL    HW244013   9.064   1.697   9.999  0.3816 -1.3161  1.0963
10679SOL     OW44014   8.247   7.712   1.245  0.1339 -0.0159  0.0736
10679SOL    HW144015   8.182   7.782   1.256 -1.0925 -1.2139  0.6923
10679SOL    HW244016   8.243   7.689   1.152  1.6604  1.7317 -0.4949
10680SOL     OW44017   4.557   2.492   6.751  0.2313 -0.0631  0.0053
10680SOL    HW144018   4.552   2.423   6.685 -1.6801  0.2376 -0.2184
10680SOL    HW244019   4.476   2.541   6.741 -0.0488  0.1061  2.4497
10681SOL     OW44020   1.772   2.765   4.999  0.4104 -0.3161 -0.5162
10681SOL    HW144021   1.711   2.702   5.036 -2.1416  1.0275 -2.1796
10681SOL    HW244022   1.795   2.730   4.913  2.2078 -0.8860  0.1453
10682SOL     OW44023   7.738   8.732   6.781  0.0585 -0.1866 -0.3065
10682SOL    HW144024   7.676   8.800   6.753 -1.3047 -1.2082  0.1154
10682SOL    HW244025   7.757   8.752   6.872  0.2946  0.0769 -0.4114
10683SOL     OW44026   9.668   9.499   5.237  0.0893 -0.5560 -0.2898
10683SOL    HW144027   9.610   9.572   5.258 -0.5274 -1.3346  0.8178
10683SOL    HW244028   9.748   9.540   5.204 -0.2179  0.6149  0.3956
10684SOL     OW44029   8.756   8.925   2.508  0.1220 -0.1863 -0.6163
10684SOL    HW144030   8.703   8.855   2.546 -1.9402  1.5431 -0.1426
10684SOL    HW244031   8.836   8.926   2.562  0.4486 -2.4420 -0.9640
10685SOL     OW44032   4.367   7.042   7.499 -0.4160  0.5551  0.3822
10685SOL    HW144033   4.422   7.099   7.446  1.5366 -1.9914 -0.5568
10685SOL    HW244034   4.370   7.081   7.587  2.0169  1.1590  0.1230
10686SOL     OW44035   0.570   7.936   8.890 -0.3699 -0.2601 -0.1063
10686SOL    HW144036   0.616   7.870   8.941  0.0012  0.7977  0.9877
10686SOL    HW244037   0.541   7.890   8.811 -0.3196 -1.7544  0.7172
10687SOL     OW44038   4.385   9.363   2.975 -0.2853  0.1457  0.4461
10687SOL    HW144039   4.402   9.270   2.988 -1.4627 -0.3071 -0.9749
10687SOL    HW244040   4.417   9.381   2.887  1.1226  1.4368  1.1678
10688SOL     OW44041   5.599   3.560   1.502  0.2822 -0.1690 -0.3222
10688SOL    HW144042   5.541   3.624   1.542 -1.4047 -1.9587  0.2974
10688SOL    HW244043   5.556   3.536   1.420  0.8367 -0.5305 -0.5145
10689SOL     OW44044   5.698   6.349   8.817 -0.4547  0.4870 -0.8206
10689SOL    HW144045   5.605   6.328   8.825 -0.3182 -0.4198 -1.4141
10689SOL    HW244046   5.742   6.264   8.828  0.5558  1.2866  2.8753
10690SOL     OW44047   2.583   2.834   7.117 -0.2606  0.3917  0.2020
10690SOL    HW144048   2.607   2.771   7.186 -1.1575 -0.3528 -0.1461
10690SOL    HW244049   2.526   2.897   7.161 -1.2741 -0.3918  0.0392
10691SOL     OW44050   1.941   8.486   4.595  0.2760  0.2581 -0.5390
10691SOL    HW144051   1.924   8.463   4.686 -0.1939  0.9707 -0.4454
10691SOL    HW244052   1.893   8.420   4.544 -0.9072  0.8994 -0.2729
10692SOL     OW44053   2.458   7.216   7.461  0.3072 -0.0254 -1.0075
10692SOL    HW144054   2.372   7.258   7.452  1.2744  2.0940 -0.8498
10692SOL    HW244055   2.479   7.186   7.373  0.0855  0.9094 -1.3948
10693SOL     OW44056   7.140   2.900   3.766 -0.0181 -0.4636  0.3670
10693SOL    HW144057   7.139   2.990   3.799  2.7834  0.0505 -0.7168
10693SOL    HW244058   7.079   2.902   3.691 -0.5108  0.3269  0.7734
10694SOL     OW44059   7.903  10.327   4.018  0.2664  0.0586  0.3349
10694SOL    HW144060   7.870  10.322   3.929  0.8677 -1.5463  0.1682
10694SOL    HW244061   7.927  10.419   4.030 -0.1435  0.3652 -1.0185
10695SOL     OW44062  10.232   6.287   2.247 -0.1259 -0.3350 -0.5454
10695SOL    HW144063  10.147   6.328   2.258 -0.1131 -0.8094  1.6798
10695SOL    HW244064  10.213   6.193   2.238  0.1703 -0.6366  1.4565
10696SOL     OW44065   9.120   0.698   5.231 -0.3348 -0.4617  0.4757
10696SOL    HW144066   9.197   0.754   5.240  0.2751 -1.3166  0.7829
10696SOL    HW244067   9.058   0.750   5.180  1.4585 -0.7153 -2.2046
10697SOL     OW44068   8.148   4.404   4.787  0.4663 -0.3421  0.1664
10697SOL    HW144069   8.205   4.337   4.824 -0.9789 -1.3248  0.6561
10697SOL    HW244070   8.132   4.376   4.697  1.8176  0.6582 -0.4281
10698SOL     OW44071   3.704   7.155   3.238  0.0360  0.1552 -0.3642
10698SOL    HW144072   3.757   7.166   3.317 -0.5035  0.0318  0.0221
10698SOL    HW244073   3.614   7.151   3.271 -0.3068  1.3771 -1.0897
10699SOL     OW44074   0.488   6.036   8.718 -0.2526 -0.0132 -0.0138
10699SOL    HW144075   0.533   6.062   8.798  1.6614 -0.6031 -0.8292
10699SOL    HW244076   0.540   6.075   8.647 -1.5232 -0.0301 -1.0058
10700SOL     OW44077   5.648   5.452   3.918 -0.2249  0.3782 -0.2001
10700SOL    HW144078   5.710   5.418   3.982  0.3091 -0.0618 -0.9405
10700SOL    HW244079   5.700   5.471   3.841 -0.3370  3.6243  0.3654
10701SOL     OW44080   2.435   8.277   1.014 -0.3809  0.0992 -0.2844
10701SOL    HW144081   2.458   8.319   0.931  0.1438 -1.0598 -0.7434
10701SOL    HW244082   2.505   8.302   1.074  0.2641 -0.6174 -0.7291
10702SOL     OW44083   5.397   1.802   0.501 -0.3607 -0.2717  0.4640
10702SOL    HW144084   5.320   1.760   0.538 -2.5187  0.5272 -2.6901
10702SOL    HW244085   5.447   1.731   0.460 -1.3935 -0.4032 -0.6077
10703SOL     OW44086   7.550   3.063   6.838 -0.2862  0.1119  0.2749
10703SOL    HW144087   7.549   2.999   6.909 -2.2615 -0.0337  0.1587
10703SOL    HW244088   7.546   3.148   6.883 -1.0514  0.0361  0.3541
10704SOL     OW44089   4.501   4.865   8.286  0.1734 -0.2713 -0.1413
10704SOL    HW144090   4.529   4.783   8.246  1.8439  0.2011 -0.0234
10704SOL    HW244091   4.417   4.884   8.245  0.4334 -1.3017 -1.2278
10705SOL     OW44092   6.520   8.836   0.574  0.1213  0.1729 -0.3527
10705SOL    HW144093   6.584   8.867   0.509 -1.1050  1.4039 -1.0298
10705SOL    HW244094   6.456   8.787   0.523 -1.6962  2.4147 -0.4383
10706SOL     OW44095   2.637   1.771   7.850  0.1265 -0.2686  0.6151
10706SOL    HW144096   2.729   1.790   7.870  0.0138 -0.3003  1.1915
10706SOL    HW244097   2.636   1.751   7.756  0.6181  0.2861  0.4836
10707SOL     OW44098   6.619   4.636   6.509  0.0534  0.1553 -0.1303
10707SOL    HW144099   6.558   4.627   6.435  2.7840  0.7448 -2.6458
10707SOL    HW244100   6.681   4.703   6.481  0.6228  1.1845  3.2336
10708SOL     OW44101   2.929   1.315   1.347 -0.3172  0.0566 -0.0657
10708SOL    HW144102   2.858   1.266   1.305 -0.7997 -0.0134  0.8236
10708SOL    HW244103   2.886   1.369   1.413 -0.0118  2.7668 -1.8665
10709SOL     OW44104   8.919   9.349   9.708  0.6517  0.0664 -0.0239
10709SOL    HW144105   8.925   9.313   9.619 -0.2745  1.2517 -0.5954
10709SOL    HW244106   8.854   9.419   9.701  2.0896  1.5713  1.1286
10710SOL     OW44107   1.640  10.167   9.311  0.9690 -0.6883  0.4698
10710SOL    HW144108   1.679  10.172   9.224  0.6783 -1.1560  0.3060
10710SOL    HW244109   1.605  10.078   9.317  0.5177 -0.4936  0.8603
10711SOL     OW44110   4.534   6.514   5.116 -0.5243  0.0335  0.0179
10711SOL    HW144111   4.482   6.573   5.061 -1.2872  0.9549  1.6523
10711SOL    HW244112   4.539   6.558   5.201  1.2679 -0.9832  0.4935
10712SOL     OW44113   8.179   2.892   7.310  0.0272 -0.2250  0.1259
10712SOL    HW144114   8.188   2.930   7.223  2.3677 -1.6407 -0.3108
10712SOL    HW244115   8.209   2.961   7.369 -0.4380  0.3093 -0.2469
10713SOL     OW44116   5.730   8.556   4.134  0.1524 -0.1255 -0.0877
10713SOL    HW144117   5.795   8.622   4.111 -0.7812  0.9892  0.3404
10713SOL    HW244118   5.663   8.563   4.065 -0.5232  0.2031  0.5843
10714SOL     OW44119   0.986   4.158   2.968 -0.0305 -0.1175  0.2079
10714SOL    HW144120   1.051   4.168   3.037  0.0477  1.0011  0.0038
10714SOL    HW244121   0.991   4.241   2.919  0.1975 -1.0129 -1.3718
10715SOL     OW44122   8.202   9.584   4.517  0.0168  0.2293  0.1586
10715SOL    HW144123   8.177   9.532   4.441 -1.1625  0.6474  0.2344
10715SOL    HW244124   8.283   9.544   4.548 -0.5690 -1.2254 -0.0970
10716SOL     OW44125   9.667   2.733   7.215 -0.1887  0.2082 -0.3168
10716SOL    HW144126   9.721   2.655   7.229 -1.0648 -0.2226  0.8263
10716SOL    HW244127   9.599   2.704   7.155 -0.5058  0.0856  0.0964
10717SOL     OW44128   2.766   3.727   5.860 -0.3856 -0.6991 -0.2048
10717SOL    HW144129   2.821   3.676   5.801 -0.2726  0.6996 -1.3360
10717SOL    HW244130   2.814   3.809   5.874 -1.5038 -0.0464 -0.0652
10718SOL     OW44131   6.916   7.098   4.151  0.0617  0.2830 -0.3974
10718SOL    HW144132   6.925   7.018   4.203  0.4450  1.1129  0.8757
10718SOL    HW244133   6.838   7.141   4.187  1.1738  1.6043  0.5659
10719SOL     OW44134   9.589   0.120   1.644  0.3829 -0.2554 -0.0087
10719SOL    HW144135   9.612   0.036   1.683 -0.6972 -0.3369  0.4937
10719SOL    HW244136   9.672   0.167   1.637  0.6812 -0.3914  2.0167
10720SOL     OW44137   0.691   5.144  10.222 -0.3005  0.3629  0.3665
10720SOL    HW144138   0.639   5.080  10.270  0.0882  0.5601  1.0650
10720SOL    HW244139   0.651   5.148  10.135 -1.7695  0.8863  1.0383
10721SOL     OW44140   4.367   6.803   4.699 -0.1319 -0.0290 -0.3934
10721SOL    HW144141   4.399   6.734   4.641 -1.2679 -0.5663 -0.3918
10721SOL    HW244142   4.385   6.770   4.787 -0.2473 -0.1119 -0.4011
10722SOL     OW44143   1.711   4.397   7.857  0.3377 -0.1821 -0.2520
10722SOL    HW144144   1.654   4.397   7.934 -1.1274  0.7012 -1.2796
10722SOL    HW244145   1.711   4.488   7.828 -0.1190 -0.7042 -1.9724
10723SOL     OW44146   8.706   0.239   1.215 -0.1617 -0.3986 -0.2319
10723SOL    HW144147   8.755   0.217   1.136  1.6153  0.5985  0.5146
10723SOL    HW244148   8.754   0.314   1.252 -2.1081  0.4419  0.7313
10724SOL     OW44149   6.617   5.328   6.640 -0.2304 -0.3827 -0.0852
10724SOL    HW144150   6.587   5.262   6.702  1.5909  1.2908  2.7771
10724SOL    HW244151   6.656   5.277   6.569 -2.1470 -2.3729  0.1561
10725SOL     OW44152   8.192   9.629   2.327 -0.2708  0.6473 -0.0268
10725SOL    HW144153   8.178   9.703   2.385  1.3347  1.6036 -0.7983
10725SOL    HW244154   8.118   9.570   2.345 -0.5351  1.5081  1.9966
10726SOL     OW44155   8.594   0.916   1.455 -0.4953  0.1759 -0.2894
10726SOL    HW144156   8.662   0.905   1.388  0.4431 -3.1248  1.0362
10726SOL    HW244157   8.525   0.855   1.431 -0.5981 -0.3295  1.1939
10727SOL     OW44158   5.764   7.334   2.876 -0.4434 -0.0984  0.3182
10727SOL    HW144159   5.693   7.390   2.905  0.3882 -0.0616  2.4947
10727SOL    HW244160   5.805   7.382   2.804 -0.0121  1.9705  1.8269
10728SOL     OW44161   1.421   3.929   3.130 -0.0565  0.1559 -0.1188
10728SOL    HW144162   1.339   3.960   3.093 -1.6103 -1.9822  1.3184
10728SOL    HW244163   1.457   3.872   3.062 -0.2804  0.2554 -0.3256
10729SOL     OW44164   5.534   3.269   2.670  0.2051  0.1619  0.1921
10729SOL    HW144165   5.590   3.213   2.724  2.0036  2.0472  0.3615
10729SOL    HW244166   5.497   3.333   2.731  1.6855  1.8640 -0.6046
10730SOL     OW44167   4.371   0.612   0.095  0.2376 -0.2779  0.5122
10730SOL    HW144168   4.442   0.625   0.157 -0.4277 -0.9479  1.4363
10730SOL    HW244169   4.393   0.530   0.050 -1.0872 -1.7800  2.4605
10731SOL     OW44170   9.560   7.319   6.441 -0.1037  0.4183 -0.1503
10731SOL    HW144171   9.579   7.347   6.530 -1.3464  2.7033 -0.5135
10731SOL    HW244172   9.645   7.293   6.405  0.7716  1.4930  1.0562
10732SOL     OW44173   4.574   6.350   5.424  0.3582 -0.5117 -0.5855
10732SOL    HW144174   4.538   6.386   5.506  3.2634  0.6733  0.3054
10732SOL    HW244175   4.551   6.415   5.358 -0.0268 -0.2974 -0.2479
10733SOL     OW44176   6.106   3.637   0.421  0.2130  0.0736  0.6814
10733SOL    HW144177   6.150   3.649   0.337  1.5396  1.4916  1.5377
10733SOL    HW244178   6.024   3.686   0.413  0.6729  0.8099  0.4550
10734SOL     OW44179   7.977   3.442   8.419  0.7934 -0.3182 -0.1510
10734SOL    HW144180   7.954   3.500   8.347 -0.6364  0.2729  0.7315
10734SOL    HW244181   7.965   3.354   8.384 -1.3265 -0.0415 -0.2682
10735SOL     OW44182   6.580   0.759   0.287  0.7727 -0.1679 -0.2056
10735SOL    HW144183   6.559   0.814   0.211  1.0356  0.2850  0.0405
10735SOL    HW244184   6.522   0.790   0.356  1.8723  0.7800  0.3435
10736SOL     OW44185   9.527   8.377   9.188 -0.1478  0.0975  0.0688
10736SOL    HW144186   9.527   8.387   9.283  1.9284  3.1490 -0.1161
10736SOL    HW244187   9.438   8.398   9.161 -0.4179  0.5359  1.2569
10737SOL     OW44188   1.881   5.706   8.468 -0.2441 -0.3348 -0.1424
10737SOL    HW144189   1.885   5.735   8.559 -3.5467 -0.7508  0.2566
10737SOL    HW244190   1.917   5.617   8.470 -1.2347 -0.7306  0.9734
10738SOL     OW44191   7.778   1.553   0.797  0.3698  0.2521 -0.1663
10738SOL    HW144192   7.787   1.459   0.779 -0.2339  0.0865  0.3420
10738SOL    HW244193   7.847   1.594   0.746  2.3889 -0.6771  1.6466
10739SOL     OW44194   6.385  10.390   5.760 -0.0171 -0.0930  0.2012
10739SOL    HW144195   6.429  10.345   5.832 -0.1344 -2.4628 -1.0886
10739SOL    HW244196   6.441  10.465   5.740  0.9206 -0.3803  1.6185
10740SOL     OW44197  10.115   4.382   6.885  0.3438 -0.1496 -0.6059
10740SOL    HW144198  10.204   4.407   6.911  0.0497 -0.1799  0.5110
10740SOL    HW244199  10.127   4.308   6.826  1.0323 -1.4983  1.1179
10741SOL     OW44200   0.921   5.638   7.458  0.6141 -0.0580 -0.0202
10741SOL    HW144201   0.918   5.718   7.510 -0.3757  0.1517 -0.3756
10741SOL    HW244202   0.917   5.668   7.367 -1.3797 -0.5420 -0.1338
10742SOL     OW44203   2.313  10.165   2.765  0.1703  0.4650  0.8508
10742SOL    HW144204   2.383  10.185   2.827  1.2859 -1.6619  0.3593
10742SOL    HW244205   2.351  10.181   2.679 -0.5768  1.0834  0.6245
10743SOL     OW44206   6.628   0.251   6.042 -0.2004 -0.1627 -0.4361
10743SOL    HW144207   6.698   0.188   6.057  0.8072  0.8834 -0.5453
10743SOL    HW244208   6.548   0.198   6.035  0.4268 -1.3125  0.6335
10744SOL     OW44209   0.548   4.590   7.097 -0.2586 -0.1313 -0.0607
10744SOL    HW144210   0.641   4.582   7.075 -0.5116 -0.9638 -0.9126
10744SOL    HW244211   0.506   4.517   7.051 -1.4944  0.9186 -0.6745
10745SOL     OW44212   0.032   6.153   1.101 -0.1399  0.7537 -0.1998
10745SOL    HW144213   0.088   6.218   1.143  0.3776  0.7777 -0.9183
10745SOL    HW244214   0.070   6.140   1.014 -2.6009  2.6378 -1.7314
10746SOL     OW44215   6.192   9.095   2.827 -0.0118 -0.0483  0.0370
10746SOL    HW144216   6.253   9.105   2.754  0.0182  0.3065  0.1105
10746SOL    HW244217   6.175   9.001   2.831  1.5322 -0.3367  0.8155
10747SOL     OW44218   5.053   2.053   8.813 -0.7665  0.3426 -0.0815
10747SOL    HW144219   5.057   1.983   8.748 -0.7511  0.2038  0.0664
10747SOL    HW244220   4.959   2.069   8.825 -0.7707  0.3299 -0.0976
10748SOL     OW44221   2.560   2.847   8.766 -0.6413  0.2886  0.0438
10748SOL    HW144222   2.493   2.779   8.765 -0.3432 -0.0066 -0.2655
10748SOL    HW244223   2.522   2.920   8.717 -0.7424  0.1289 -0.1153
10749SOL     OW44224   0.819   6.207   8.269 -0.1153  0.2710  0.0039
10749SOL    HW144225   0.828   6.194   8.175 -2.4931 -0.1400 -0.2321
10749SOL    HW244226   0.864   6.133   8.308  0.1977  0.0052 -0.8424
10750SOL     OW44227   0.081   7.138   0.009 -0.3049  0.2453 -0.1622
10750SOL    HW144228   0.133   7.064   0.040 -1.2628 -0.4311 -0.1064
10750SOL    HW244229   0.011   7.098  -0.042 -1.9321  0.9553  1.4023
10751SOL     OW44230   9.449   9.279   0.839 -0.4816  0.4965 -0.3025
10751SOL    HW144231   9.387   9.330   0.891 -2.4555 -2.6716  0.7002
10751SOL    HW244232   9.530   9.282   0.890 -0.8321  1.7580  0.2326
10752SOL     OW44233   6.490   5.523   8.902  0.4951 -0.0084  0.2219
10752SOL    HW144234   6.585   5.526   8.908  0.5564 -1.0679  0.0914
10752SOL    HW244235   6.459   5.591   8.962  1.3193 -0.1785  0.8518
10753SOL     OW44236   5.218   7.091   6.928  0.6888  0.1213 -0.3448
10753SOL    HW144237   5.167   7.141   6.992  2.5449 -0.0777  1.3795
10753SOL    HW244238   5.300   7.139   6.919  1.2176 -0.8844 -1.1592
10754SOL     OW44239   5.192   3.382   5.043  0.6277  0.0462 -0.5769
10754SOL    HW144240   5.166   3.413   5.130  2.6485 -0.4620  0.2711
10754SOL    HW244241   5.144   3.437   4.982 -0.5028  0.7178  0.8620
10755SOL     OW44242   7.647   9.946   0.809 -0.2044 -0.1340 -0.7753
10755SOL    HW144243   7.626   9.890   0.884 -0.5895 -0.0290 -0.8000
10755SOL    HW244244   7.742   9.939   0.799  0.1465  1.3654  0.9451
10756SOL     OW44245   5.000   6.953   5.940  0.7265 -0.0255 -0.2540
10756SOL    HW144246   5.025   7.042   5.966  0.7535  0.0619 -0.5693
10756SOL    HW244247   4.907   6.948   5.960  0.6178  0.2390 -0.6705
10757SOL     OW44248   9.656   8.501   4.099  0.2186 -0.3611 -0.5334
10757SOL    HW144249   9.598   8.496   4.174 -0.0168  0.4968 -0.6364
10757SOL    HW244250   9.675   8.411   4.076  0.2294 -0.6297  0.5052
10758SOL     OW44251   0.398   9.368   0.069  0.3048  0.7491 -0.0360
10758SOL    HW144252   0.431   9.414  -0.009  1.7157  0.7424  0.5336
10758SOL    HW244253   0.473   9.362   0.127 -0.5562  0.1234  1.0510
10759SOL     OW44254   7.811   9.803   6.597 -0.4765 -0.4289 -0.4341
10759SOL    HW144255   7.806   9.707   6.590 -0.7790 -0.5023  0.6041
10759SOL    HW244256   7.741   9.826   6.658 -0.1795  0.4237 -0.4023
10760SOL     OW44257   7.037   5.170   1.300  0.1007  0.1666  0.2481
10760SOL    HW144258   6.969   5.206   1.243  0.2686  0.0141 -0.0501
10760SOL    HW244259   7.119   5.206   1.267  0.3111 -0.7723 -0.2855
10761SOL     OW44260   2.532   0.855   5.198  0.0096  0.2916 -0.1050
10761SOL    HW144261   2.476   0.784   5.168 -1.5968  1.9041 -1.1395
10761SOL    HW244262   2.473   0.914   5.245  1.3614  0.7895  1.0576
10762SOL     OW44263   6.976   5.917   7.866 -0.0350  0.0875 -0.2052
10762SOL    HW144264   6.941   6.002   7.892 -0.2397 -0.0450 -0.0509
10762SOL    HW244265   7.017   5.882   7.945 -1.2443 -0.6131  0.1204
10763SOL     OW44266   4.083   9.325  10.077 -0.5977 -0.2914 -0.5850
10763SOL    HW144267   4.088   9.384  10.153 -1.1923 -0.8708 -0.0809
10763SOL    HW244268   4.105   9.239  10.113 -2.4381 -0.8482 -0.7230
10764SOL     OW44269   8.145   4.566   7.413  0.0061  0.1263 -0.3784
10764SOL    HW144270   8.115   4.611   7.492 -0.5866 -0.3927 -0.2993
10764SOL    HW244271   8.240   4.559   7.425 -0.1230 -0.3252  0.4919
10765SOL     OW44272   9.580  10.214   8.826  0.8644  0.2951  0.1728
10765SOL    HW144273   9.651  10.162   8.788 -0.0269 -0.4606 -0.5143
10765SOL    HW244274   9.604  10.305   8.807  1.7406  0.0683  0.1321
10766SOL     OW44275   5.845   7.289   9.260  0.0990 -0.2951 -0.2884
10766SOL    HW144276   5.843   7.328   9.173  2.3482 -0.8009 -0.6480
10766SOL    HW244277   5.857   7.195   9.244  0.9061 -0.3505  0.5389
10767SOL     OW44278   6.022   4.696   9.866  0.2535 -0.1320 -0.1443
10767SOL    HW144279   6.000   4.692   9.773  0.1881 -0.5823 -0.1106
10767SOL    HW244280   6.064   4.613   9.885 -0.2258 -0.2692  0.3540
10768SOL     OW44281   8.319   8.899  10.269 -0.3164 -0.6588  0.6237
10768SOL    HW144282   8.272   8.816  10.271  0.0330 -0.8842 -0.2562
10768SOL    HW244283   8.398   8.882  10.218 -1.9171  1.0329 -2.7582
10769SOL     OW44284   2.091   7.009   6.073 -0.5025 -0.2543 -0.3696
10769SOL    HW144285   2.138   7.063   6.009  0.7840 -1.3925 -0.4139
10769SOL    HW244286   2.135   7.027   6.156 -0.4098 -0.8248 -0.2913
10770SOL     OW44287   1.566   3.219   2.373 -0.3706  0.5628  0.7125
10770SOL    HW144288   1.561   3.307   2.410 -0.7175  1.3492 -1.1430
10770SOL    HW244289   1.653   3.188   2.398 -0.0878  1.5821  1.0517
10771SOL     OW44290   3.430   0.044   8.491 -0.1170 -0.0938 -0.0736
10771SOL    HW144291   3.520   0.046   8.524 -0.7535 -0.4664  1.8345
10771SOL    HW244292   3.399   0.134   8.499  0.0256  0.0074 -0.6040
10772SOL     OW44293   2.167   4.475   3.958 -0.4602 -0.5187  0.6078
10772SOL    HW144294   2.240   4.439   4.009  1.4919 -0.5576 -1.9997
10772SOL    HW244295   2.118   4.398   3.929  0.0500 -0.6941  0.1876
10773SOL     OW44296   4.241   1.878   6.094 -0.4015 -0.1346  0.2849
10773SOL    HW144297   4.264   1.836   6.177  0.5597  3.8412  2.2584
10773SOL    HW244298   4.320   1.925   6.067 -1.7531  1.6120 -0.8924
10774SOL     OW44299   7.028   6.029   2.493  0.0682 -0.5035  0.2341
10774SOL    HW144300   6.952   6.086   2.505 -0.2393 -0.9043  0.2181
10774SOL    HW244301   6.991   5.941   2.489  0.6027 -0.7781  1.0223
10775SOL     OW44302   4.536   8.293   1.030 -0.0924 -0.1576 -0.2146
10775SOL    HW144303   4.539   8.383   1.062 -1.9054 -0.1404  0.0278
10775SOL    HW244304   4.460   8.255   1.074  0.0473 -1.4971 -1.0810
10776SOL     OW44305   8.824   6.392   8.686 -0.3207 -0.5884  0.1830
10776SOL    HW144306   8.766   6.316   8.679 -1.5833  0.4358 -1.4208
10776SOL    HW244307   8.810   6.439   8.604  1.5174  0.6258  0.5220
10777SOL     OW44308   4.629   2.337   6.518 -0.0032  0.0261 -0.2839
10777SOL    HW144309   4.625   2.242   6.506 -0.1761 -0.0640  0.4596
10777SOL    HW244310   4.722   2.357   6.520  0.2501 -0.7348  3.9041
10778SOL     OW44311   7.822   4.217   5.577  0.0499 -0.2385  0.1553
10778SOL    HW144312   7.769   4.255   5.506  0.1799 -3.2958 -1.7756
10778SOL    HW244313   7.903   4.269   5.576 -0.8586  1.2594 -0.3064
10779SOL     OW44314   2.571   3.603   9.367 -0.4966 -0.4400 -0.1667
10779SOL    HW144315   2.623   3.532   9.328 -0.1654  0.4222 -1.3319
10779SOL    HW244316   2.481   3.586   9.338 -0.5974 -0.9477  0.4131
10780SOL     OW44317   6.314   4.448   7.332 -0.1485 -0.0250 -0.0448
10780SOL    HW144318   6.379   4.492   7.387  0.7910 -0.5327 -0.7255
10780SOL    HW244319   6.236   4.503   7.338  0.4293  0.7437  0.5609
10781SOL     OW44320   7.227   4.513   7.769 -0.3089  0.2872  0.3538
10781SOL    HW144321   7.293   4.580   7.751 -0.7953  1.2689  1.9473
10781SOL    HW244322   7.144   4.557   7.755 -0.6858 -0.9716 -1.7435
10782SOL     OW44323   8.091   7.621   5.983  0.1282  0.4008  0.0853
10782SOL    HW144324   8.054   7.696   5.937  0.8147 -0.4005 -1.9446
10782SOL    HW244325   8.029   7.550   5.967  0.2780  0.1546  0.5868
10783SOL     OW44326  10.000   4.498   7.432 -0.0239 -0.0006  0.2771
10783SOL    HW144327  10.010   4.415   7.479 -0.0018  1.0462  2.2056
10783SOL    HW244328   9.946   4.552   7.489  0.2646  1.4662 -0.7679
10784SOL     OW44329   7.038   9.389   3.776  0.1543  0.0142 -0.2114
10784SOL    HW144330   6.951   9.414   3.745  0.5787 -0.2472 -1.6710
10784SOL    HW244331   7.088   9.470   3.776  0.3942 -0.1279 -1.0578
10785SOL     OW44332   0.630   7.803   2.186  0.5708  0.4347 -0.4086
10785SOL    HW144333   0.713   7.757   2.183 -0.0177 -0.5850 -2.6193
10785SOL    HW244334   0.635   7.867   2.115 -0.0144  1.3625  0.3489
10786SOL     OW44335   3.404   0.929   8.078 -0.1423  0.0482 -0.2047
10786SOL    HW144336   3.360   0.845   8.063  1.1100 -0.8071  0.7587
10786SOL    HW244337   3.496   0.907   8.089  0.2673  1.5986 -0.2327
10787SOL     OW44338   3.290   8.207   5.049 -0.6348 -0.3440 -0.3625
10787SOL    HW144339   3.310   8.290   5.093 -2.9017  0.2913 -0.4214
10787SOL    HW244340   3.295   8.142   5.118 -1.1773  0.2044  0.2088
10788SOL     OW44341   0.101   2.794   9.262  0.3146 -0.2091 -0.3170
10788SOL    HW144342   0.088   2.717   9.316  1.9361  0.1417  0.6444
10788SOL    HW244343   0.193   2.789   9.234  0.7238  1.7485  0.4589
10789SOL     OW44344   7.535   8.162   7.100 -0.2471 -0.7720  0.4188
10789SOL    HW144345   7.580   8.147   7.183 -0.4015 -1.6015  0.3652
10789SOL    HW244346   7.577   8.240   7.064  4.0969 -3.6294 -1.5675
10790SOL     OW44347   4.629   1.107   9.031  0.0890  0.2978  0.0279
10790SOL    HW144348   4.669   1.185   8.993 -1.5539  2.1132  1.7374
10790SOL    HW244349   4.683   1.034   9.001  1.9891  2.1326 -1.2649
10791SOL     OW44350   5.417   8.475   1.065  0.3564  0.3136  0.7668
10791SOL    HW144351   5.385   8.497   0.977  1.5262 -0.0539  0.2364
10791SOL    HW244352   5.435   8.381   1.062  1.9852  0.5936  0.8647
10792SOL     OW44353   5.152   6.716   0.439  0.3650  0.2142 -0.2243
10792SOL    HW144354   5.156   6.623   0.420  2.6006  0.5565 -1.8224
10792SOL    HW244355   5.240   6.738   0.469  0.2371  2.0261 -1.0257
10793SOL     OW44356   4.568  10.079   8.753  0.1498 -0.7050  0.2693
10793SOL    HW144357   4.640  10.140   8.774  0.5127 -0.6389 -1.0308
10793SOL    HW244358   4.498  10.102   8.814  0.3708  0.8700 -0.0202
10794SOL     OW44359   6.951   7.714   9.779 -0.2212  0.4853  0.5671
10794SOL    HW144360   6.982   7.777   9.844 -0.7534  0.4691  0.8421
10794SOL    HW244361   6.884   7.761   9.729 -1.5882 -0.2425  1.6305
10795SOL     OW44362   4.472  10.069   7.420  0.1082  0.2566 -0.2798
10795SOL    HW144363   4.517  10.010   7.359  0.8469  0.3526  0.1580
10795SOL    HW244364   4.481  10.027   7.505  0.5647  0.9527  0.0244
10796SOL     OW44365   4.208   6.448   5.761  0.3270  0.2038 -0.0725
10796SOL    HW144366   4.167   6.398   5.832 -1.2712  0.5102 -0.7458
10796SOL    HW244367   4.269   6.386   5.721 -0.1807 -0.5814  0.3446
10797SOL     OW44368   5.423   0.041   9.380 -0.2395 -0.2717  0.2364
10797SOL    HW144369   5.469  -0.033   9.420  0.4427 -0.4950 -0.9270
10797SOL    HW244370   5.360   0.000   9.320 -1.5837  0.0488  1.3617
10798SOL     OW44371   7.780   4.734   7.421 -0.0502  0.0982  0.3105
10798SOL    HW144372   7.846   4.795   7.452 -0.0496  0.3690 -0.2072
10798SOL    HW244373   7.798   4.724   7.327  1.7325 -2.9313  0.8682
10799SOL     OW44374  10.164   3.998   2.763  1.1789 -0.4512  0.0212
10799SOL    HW144375  10.247   4.019   2.721  0.9618  1.9181  0.6238
10799SOL    HW244376  10.179   4.015   2.856 -0.1053  0.5850  0.0723
10800SOL     OW44377   4.225   2.545   6.921  0.5937 -0.2400  0.0692
10800SOL    HW144378   4.287   2.531   6.993  1.0956 -2.7521 -0.7728
10800SOL    HW244379   4.274   2.596   6.857  2.3208 -3.1451 -1.0875
10801SOL     OW44380   4.906   2.889   4.941 -0.0688  0.0347 -0.0256
10801SOL    HW144381   4.943   2.965   4.896  0.2343  0.3555  0.7300
10801SOL    HW244382   4.885   2.922   5.029  0.8882 -0.9475  0.6076
10802SOL     OW44383   5.071   9.449   8.285  0.2835  0.0316  0.6772
10802SOL    HW144384   5.060   9.527   8.230 -0.0106 -0.7875 -0.4754
10802SOL    HW244385   5.129   9.477   8.356 -0.5330  1.5372  0.7965
10803SOL     OW44386   3.858   6.820   0.324  0.0249  0.2940 -0.4070
10803SOL    HW144387   3.801   6.761   0.274 -0.5201  0.8623 -0.4650
10803SOL    HW244388   3.840   6.907   0.288  2.0294  0.3276 -1.4926
10804SOL     OW44389   9.677   7.769   1.777  0.5829  0.0836 -0.6145
10804SOL    HW144390   9.721   7.732   1.853  0.1897  0.0412 -0.4040
10804SOL    HW244391   9.676   7.698   1.713 -1.2754 -0.7220  0.2313
10805SOL     OW44392   4.743   5.148   0.554 -0.2506  0.8312 -0.0748
10805SOL    HW144393   4.712   5.231   0.518 -0.2430 -0.1718 -2.6338
10805SOL    HW244394   4.838   5.149   0.540 -0.2048  0.5218  0.1828
10806SOL     OW44395   5.017   4.508   3.443  0.6814  0.5017  0.5475
10806SOL    HW144396   4.989   4.430   3.491 -0.2189 -0.5805 -1.5834
10806SOL    HW244397   5.106   4.489   3.415 -0.3347 -1.0067 -2.1002
10807SOL     OW44398   3.759   6.160   1.077 -0.0849  0.6320  0.2131
10807SOL    HW144399   3.749   6.101   1.151 -0.6963  0.3969 -0.0462
10807SOL    HW244400   3.797   6.239   1.113  1.7552 -0.2792  0.4081
10808SOL     OW44401   3.502   3.172   3.925 -0.3847 -0.1597 -0.6331
10808SOL    HW144402   3.421   3.128   3.899 -1.4886  0.6545  1.1769
10808SOL    HW244403   3.473   3.250   3.973  1.4982  0.9395 -1.1473
10809SOL     OW44404   4.184   6.096   7.083 -0.3265  0.0663  0.2499
10809SOL    HW144405   4.182   6.190   7.101  1.9360  0.2843 -0.3388
10809SOL    HW244406   4.199   6.056   7.169  1.7649  0.5035  0.1384
10810SOL     OW44407   4.140   2.757   8.120 -0.0929 -0.4266  0.4953
10810SOL    HW144408   4.126   2.788   8.030  0.4556  0.3103  0.6540
10810SOL    HW244409   4.137   2.662   8.113  0.9143 -0.4104 -0.4802
10811SOL     OW44410   8.995   8.873   0.285  0.3747 -0.3142 -0.1900
10811SOL    HW144411   8.943   8.939   0.330 -0.9241 -0.0434 -1.9719
10811SOL    HW244412   8.950   8.790   0.303 -0.8661 -0.0548 -1.8948
10812SOL     OW44413   1.407   2.388   4.017 -0.3258 -0.1987 -0.1866
10812SOL    HW144414   1.338   2.445   3.983  1.0201  1.8367  0.3824
10812SOL    HW244415   1.394   2.389   4.112  2.4644  3.1022  0.3375
10813SOL     OW44416  10.342   4.916   9.922  0.0188  0.4031  0.8135
10813SOL    HW144417  10.401   4.924   9.997 -1.2352  0.9864  1.7798
10813SOL    HW244418  10.326   5.007   9.896  0.6556  0.1906 -0.3457
10814SOL     OW44419   3.360   6.026   5.550  0.3489 -0.2878 -0.1805
10814SOL    HW144420   3.348   6.077   5.631  1.2082  0.8847 -0.7525
10814SOL    HW244421   3.452   6.003   5.550  0.2972 -0.5013 -0.6991
10815SOL     OW44422   5.272   0.800   0.968 -0.1286 -0.5254  0.3307
10815SOL    HW144423   5.257   0.854   1.046  1.2341 -2.0169  1.7157
10815SOL    HW244424   5.207   0.830   0.905  0.0028  2.0921  1.3251
10816SOL     OW44425   2.421   8.038   8.481 -0.8959 -0.1016  0.1112
10816SOL    HW144426   2.431   7.943   8.483  0.1064 -0.0086 -0.3891
10816SOL    HW244427   2.326   8.051   8.471 -0.9011 -1.0678 -1.3989
10817SOL     OW44428   7.452   2.713   1.916  0.9018  0.4797  0.0863
10817SOL    HW144429   7.452   2.630   1.964 -1.1146  0.4836  0.1908
10817SOL    HW244430   7.509   2.770   1.968  1.4791 -0.5253  0.5895
10818SOL     OW44431   8.512   2.640   9.299 -0.1809  0.0535  0.3408
10818SOL    HW144432   8.501   2.700   9.373  2.6816 -0.0675  0.9667
10818SOL    HW244433   8.497   2.553   9.335  1.5692 -0.0378  0.9497
10819SOL     OW44434   7.166   9.731   4.613  0.4640 -0.4005 -0.5946
10819SOL    HW144435   7.224   9.728   4.537  1.8456 -1.7517  0.4570
10819SOL    HW244436   7.196   9.806   4.663 -0.1283  0.1933 -1.1058
10820SOL     OW44437   0.962   7.975   7.904  0.2676 -0.2802 -0.1177
10820SOL    HW144438   1.011   8.007   7.980 -1.5826 -0.4980  1.2490
10820SOL    HW244439   0.980   7.881   7.901  0.1064 -0.3243  0.2529
10821SOL     OW44440   2.825   8.426   7.706 -0.7008  0.0089  0.2819
10821SOL    HW144441   2.821   8.355   7.770  0.5583 -0.7766 -0.4736
10821SOL    HW244442   2.736   8.431   7.671 -0.6310 -1.8635 -0.3182
10822SOL     OW44443   1.740   6.790   4.235 -0.5524  0.0202 -0.1559
10822SOL    HW144444   1.690   6.774   4.155 -1.1388 -0.3219  0.2792
10822SOL    HW244445   1.782   6.706   4.254  2.7263  0.9859 -2.2018
10823SOL     OW44446   0.426   9.549   0.684  0.1698 -0.0445 -0.1652
10823SOL    HW144447   0.518   9.524   0.693  0.0341 -0.9778 -1.2302
10823SOL    HW244448   0.392   9.493   0.614 -1.1717  0.4016  0.0988
10824SOL     OW44449   8.824   0.356   0.528 -0.0446 -0.4616  0.2975
10824SOL    HW144450   8.738   0.381   0.562 -0.3307  2.1042 -2.0646
10824SOL    HW244451   8.886   0.398   0.587 -0.5277  2.6248 -1.2223
10825SOL     OW44452   8.536   9.708   0.486  0.6125 -0.0373  0.3119
10825SOL    HW144453   8.509   9.799   0.473 -0.2242 -0.4595 -1.2160
10825SOL    HW244454   8.619   9.701   0.440  1.3327  0.2539  1.5366
10826SOL     OW44455   1.032  10.010   4.161  0.1803 -0.1981  0.1051
10826SOL    HW144456   1.030   9.917   4.185  2.5893 -0.5137 -0.6074
10826SOL    HW244457   1.013  10.011   4.068  1.5903 -0.1835 -0.2087
10827SOL     OW44458   7.392   6.309   5.362  0.0415 -0.7530  0.9555
10827SOL    HW144459   7.304   6.275   5.343 -0.2765  0.5856 -0.1272
10827SOL    HW244460   7.445   6.281   5.287  0.3025 -0.6913  1.1154
10828SOL     OW44461   0.104   4.930   7.703 -0.1426  0.2526 -0.0654
10828SOL    HW144462   0.186   4.979   7.696  0.8505 -1.3939 -0.4307
10828SOL    HW244463   0.068   4.956   7.788  1.9880 -0.7496  1.2231
10829SOL     OW44464   3.199   6.590   5.867 -0.0774 -0.1711  1.2067
10829SOL    HW144465   3.156   6.566   5.785  0.4051  1.4992  0.4409
10829SOL    HW244466   3.129   6.624   5.922  0.1511  2.6647 -0.0846
10830SOL     OW44467   4.689   3.564   6.998  0.0734  0.3961  0.0329
10830SOL    HW144468   4.688   3.567   7.094  1.0925 -0.7625  0.1161
10830SOL    HW244469   4.782   3.559   6.976 -0.1382  1.1244 -1.0452
10831SOL     OW44470   6.713   8.552   6.400  0.1664  0.0443  0.5293
10831SOL    HW144471   6.770   8.502   6.342 -0.0185 -0.3739  0.6978
10831SOL    HW244472   6.631   8.562   6.351  0.6273  1.3128 -0.0229
10832SOL     OW44473   2.918   4.592   1.233  0.2800  0.2196 -0.6555
10832SOL    HW144474   2.853   4.606   1.302  0.4825 -0.9917 -0.2017
10832SOL    HW244475   2.996   4.638   1.265 -0.0870  1.0000 -0.8361
10833SOL     OW44476   1.199   2.687   2.569  0.1831 -0.3846 -0.0823
10833SOL    HW144477   1.258   2.729   2.507 -0.1812  0.2524 -0.0094
10833SOL    HW244478   1.254   2.660   2.642  0.7132 -1.6404 -0.9124
10834SOL     OW44479   9.365   7.101   6.115  0.1985 -0.5048  0.2157
10834SOL    HW144480   9.413   7.137   6.041 -0.3585  0.5698  0.3498
10834SOL    HW244481   9.325   7.020   6.082 -0.0560 -0.0269 -0.6695
10835SOL     OW44482   4.672   0.017   5.119 -0.3387  0.5674 -0.6544
10835SOL    HW144483   4.594   0.066   5.091 -0.8889  0.2400  0.2391
10835SOL    HW244484   4.657  -0.072   5.087 -1.0037  0.1739  0.6550
10836SOL     OW44485   5.117   8.981   2.428 -0.1881 -0.1893 -0.0264
10836SOL    HW144486   5.201   8.961   2.387 -0.3071 -0.9489  0.0896
10836SOL    HW244487   5.059   9.001   2.355  0.5043  2.0927 -0.0471
10837SOL     OW44488   8.276   1.317   5.515 -0.0878 -0.0673  0.1333
10837SOL    HW144489   8.193   1.291   5.555 -0.1023 -1.0669 -0.5138
10837SOL    HW244490   8.251   1.353   5.430  0.0970  0.2360  0.2056
10838SOL     OW44491   0.960   9.077   9.105  0.2787  0.1158  0.0192
10838SOL    HW144492   0.908   9.132   9.163  0.0387 -0.3327  0.2355
10838SOL    HW244493   1.050   9.088   9.137 -0.0115 -1.3111  1.4982
10839SOL     OW44494   2.431   0.129   6.341  0.4537  0.3756 -0.6681
10839SOL    HW144495   2.337   0.109   6.346  0.7693 -1.5063 -1.4791
10839SOL    HW244496   2.466   0.099   6.425  0.5316 -0.1212 -0.8785
10840SOL     OW44497   4.557   7.657   1.116 -0.2192  0.6159 -0.1284
10840SOL    HW144498   4.615   7.643   1.191 -0.3957  0.6690  0.0179
10840SOL    HW244499   4.486   7.711   1.150 -0.0441  1.0559 -0.4576
10841SOL     OW44500   9.161   8.467   6.117 -0.1615  0.0941  0.1985
10841SOL    HW144501   9.170   8.524   6.040 -1.0569 -1.6006 -1.2166
10841SOL    HW244502   9.240   8.413   6.116  0.1057  0.4612  0.8337
10842SOL     OW44503   1.759   5.649   5.407 -0.0515 -0.3969 -0.0412
10842SOL    HW144504   1.733   5.628   5.317 -0.3092 -0.1425 -0.0256
10842SOL    HW244505   1.687   5.700   5.442 -0.0601 -0.6988  0.3933
10843SOL     OW44506   5.398   8.280   9.185 -0.2253 -0.2847  0.3329
10843SOL    HW144507   5.408   8.373   9.165  1.1364 -0.2729  0.8912
10843SOL    HW244508   5.472   8.261   9.243 -0.3921 -1.7546  0.0946
10844SOL     OW44509   1.432   6.742   7.962 -0.0324  0.2748  0.2188
10844SOL    HW144510   1.476   6.787   8.033  0.8201 -0.0415 -0.1001
10844SOL    HW244511   1.446   6.649   7.980 -1.8213  0.0920  0.9017
10845SOL     OW44512   6.379   5.749   6.670  0.3521 -0.0699 -0.3446
10845SOL    HW144513   6.400   5.688   6.740 -0.1131  0.4354  0.2480
10845SOL    HW244514   6.292   5.722   6.639 -0.3413  0.9039  0.6425
10846SOL     OW44515   5.098   4.429   7.192  0.1960 -0.2208 -0.4871
10846SOL    HW144516   5.070   4.365   7.258 -1.1339  1.8599  1.1057
10846SOL    HW244517   5.080   4.514   7.232  4.8827  1.3722 -1.1367
10847SOL     OW44518   4.111   1.748   3.944 -0.2770  0.1540  0.1230
10847SOL    HW144519   4.126   1.665   3.990 -0.2312 -1.0403 -1.9355
10847SOL    HW244520   4.038   1.730   3.885  1.3654  0.7322 -2.2296
10848SOL     OW44521   5.931   7.539   1.784  0.1966  0.3526  0.1090
10848SOL    HW144522   6.019   7.576   1.779 -0.0842  0.8773 -1.2849
10848SOL    HW244523   5.910   7.514   1.694 -1.9601  2.3448 -0.0207
10849SOL     OW44524   0.774  10.059   2.426 -0.1575 -0.1015  0.3062
10849SOL    HW144525   0.771  10.153   2.407 -1.2432 -0.1322  0.2476
10849SOL    HW244526   0.708  10.046   2.494 -0.1989 -0.8624  0.1302
10850SOL     OW44527   4.714   8.888   9.203  0.2972  0.5278  0.2341
10850SOL    HW144528   4.778   8.904   9.133  0.2705 -0.3142  0.0112
10850SOL    HW244529   4.702   8.793   9.204  2.6716  0.0910  3.4900
10851SOL     OW44530   7.780   1.130   8.655 -0.3628  0.3809 -0.1195
10851SOL    HW144531   7.686   1.140   8.639 -0.3048  1.3416  0.0784
10851SOL    HW244532   7.804   1.050   8.608 -1.5173 -0.5846  0.8609
10852SOL     OW44533   2.230   0.052   9.552  0.0686  0.3790  0.0853
10852SOL    HW144534   2.250  -0.033   9.511  1.6701  0.4647  0.6038
10852SOL    HW244535   2.162   0.032   9.616 -1.6822  0.0424 -1.7676
10853SOL     OW44536   2.089   4.032   3.247 -0.2246  0.2793  0.3357
10853SOL    HW144537   2.013   3.981   3.275 -0.1966  0.5102  0.8508
10853SOL    HW244538   2.095   4.017   3.153 -0.7816  0.0887  0.3266
10854SOL     OW44539   4.940   5.336   1.276  0.4694  0.1758 -0.2069
10854SOL    HW144540   4.997   5.321   1.201  2.4579  0.2264  1.2263
10854SOL    HW244541   4.937   5.252   1.321  0.0152  0.3797  0.1606
10855SOL     OW44542   5.955   3.607   1.903  0.6530 -0.6015  0.2455
10855SOL    HW144543   5.956   3.701   1.922 -0.7698 -0.9925  2.6470
10855SOL    HW244544   6.027   3.571   1.955  0.7093 -0.9171 -0.0506
10856SOL     OW44545   7.451   8.897   6.515 -0.2848  0.2414  0.5925
10856SOL    HW144546   7.495   8.920   6.597 -1.4542  1.5353  0.9094
10856SOL    HW244547   7.361   8.875   6.541 -0.4340 -0.1856 -0.2505
10857SOL     OW44548   4.857   7.905   4.456 -0.1173 -0.3046  0.0717
10857SOL    HW144549   4.894   7.938   4.538  0.3080  0.4733 -0.4187
10857SOL    HW244550   4.764   7.926   4.461  0.1326  0.9661 -0.2051
10858SOL     OW44551  10.251   5.975   4.182  0.4231  0.7007  0.6934
10858SOL    HW144552  10.189   5.904   4.196  0.4144  0.4111 -0.7160
10858SOL    HW244553  10.337   5.936   4.198  0.5575 -0.1535 -1.8151
10859SOL     OW44554   8.559   1.266   0.287  0.3145 -0.3514  0.2520
10859SOL    HW144555   8.538   1.237   0.198  0.8183 -1.5446  0.5137
10859SOL    HW244556   8.594   1.189   0.331  2.3192  0.7641  0.7814
10860SOL     OW44557  10.187   8.647   3.318 -0.0406 -1.1330 -0.2073
10860SOL    HW144558  10.114   8.699   3.285  0.4652  1.3213  2.2334
10860SOL    HW244559  10.262   8.675   3.266  0.3857  1.3202  1.5951
10861SOL     OW44560  10.386   0.511   2.620 -0.0732 -0.3917  0.4553
10861SOL    HW144561  10.451   0.523   2.551 -0.0229 -0.9424  0.4011
10861SOL    HW244562  10.304   0.543   2.583 -0.0605 -0.7542  0.1104
10862SOL     OW44563   1.951   7.923   5.618  0.3495 -0.6273 -0.5820
10862SOL    HW144564   1.897   7.999   5.639  0.1469 -0.6677 -0.9384
10862SOL    HW244565   1.920   7.855   5.678 -0.5629 -0.8852 -1.3087
10863SOL     OW44566   4.706   1.488   7.510  0.2435  0.0436  0.0288
10863SOL    HW144567   4.752   1.439   7.442 -1.1437 -0.9418 -0.2435
10863SOL    HW244568   4.682   1.422   7.575 -0.2841  0.6211  0.4317
10864SOL     OW44569   4.865   5.034   3.243 -0.5005 -1.3900  0.4836
10864SOL    HW144570   4.867   4.943   3.212  0.8997 -0.8693 -1.0873
10864SOL    HW244571   4.920   5.034   3.321  0.2328 -1.7256 -0.0235
10865SOL     OW44572   7.020   3.597   6.192  0.0105 -0.1751  0.2519
10865SOL    HW144573   7.070   3.532   6.241 -1.7779 -2.6994 -1.0065
10865SOL    HW244574   7.079   3.627   6.123  0.3496 -1.8659 -0.2328
10866SOL     OW44575   2.329   6.194   6.006 -0.0870 -1.0051  0.0373
10866SOL    HW144576   2.288   6.228   5.926  1.6238 -0.8785 -0.8332
10866SOL    HW244577   2.287   6.243   6.077  1.5542  2.3013 -1.0961
10867SOL     OW44578   5.553   6.986   8.602 -0.0306 -0.1138  0.4548
10867SOL    HW144579   5.576   7.079   8.608  0.2639  0.0228 -1.8663
10867SOL    HW244580   5.634   6.943   8.576 -0.5407 -0.7887 -0.0343
10868SOL     OW44581   4.348   8.664   8.742  0.3863  0.0204 -0.4688
10868SOL    HW144582   4.274   8.666   8.803  1.3022  0.4275  0.6872
10868SOL    HW244583   4.327   8.593   8.681 -0.3420 -0.7530  0.6319
10869SOL     OW44584  10.206   5.256   9.017  0.2311 -0.4234  0.0079
10869SOL    HW144585  10.220   5.179   8.961 -0.2841  1.2644 -2.6351
10869SOL    HW244586  10.131   5.300   8.978  0.5188  1.4261  1.4364
10870SOL     OW44587   1.597   1.476   4.833 -0.2804  0.4553  0.2670
10870SOL    HW144588   1.508   1.510   4.819 -2.6338 -5.0823 -0.5919
10870SOL    HW244589   1.590   1.420   4.910  3.3431  1.8310  1.8331
10871SOL     OW44590   8.347   9.058   6.207 -0.1401  0.2991  0.2575
10871SOL    HW144591   8.342   9.151   6.186 -1.6902  0.0998 -0.4610
10871SOL    HW244592   8.415   9.052   6.274  0.3903  1.8587 -0.0860
10872SOL     OW44593   5.166   4.287   3.204 -0.6055 -0.2600 -0.2099
10872SOL    HW144594   5.122   4.372   3.215  0.8377  0.7517 -1.8150
10872SOL    HW244595   5.166   4.249   3.292 -0.2724  1.9218  0.7942
10873SOL     OW44596   9.005   2.551   4.660 -0.4017 -0.2239  0.2862
10873SOL    HW144597   8.997   2.456   4.656 -1.4749 -0.1137 -1.1445
10873SOL    HW244598   9.054   2.568   4.740  1.6858 -2.0743 -0.5057
10874SOL     OW44599   8.843   4.896   8.444 -0.2303 -0.0496  0.2521
10874SOL    HW144600   8.895   4.892   8.525 -1.0855 -0.2510  0.8079
10874SOL    HW244601   8.808   4.985   8.444 -1.5657 -0.5482  0.9805
10875SOL     OW44602   8.043   1.867   8.451 -0.1616  0.0174  0.0822
10875SOL    HW144603   7.984   1.796   8.477 -0.5298 -0.3509 -1.6227
10875SOL    HW244604   8.087   1.834   8.373 -0.3659  1.6619 -0.7779
10876SOL     OW44605   5.969   0.622   1.508  0.1782 -0.3905  0.6146
10876SOL    HW144606   5.952   0.540   1.461  0.4757  0.1954 -0.5471
10876SOL    HW244607   6.063   0.621   1.525  0.0628 -0.6329  1.2992
10877SOL     OW44608   6.777   9.036   4.178  0.2745 -1.3517 -0.2433
10877SOL    HW144609   6.719   9.003   4.247 -1.3760 -0.4593 -1.1478
10877SOL    HW244610   6.841   8.966   4.166  1.2316 -1.1660  2.8055
10878SOL     OW44611  10.235   2.542   7.485  0.3567  0.1493 -0.0218
10878SOL    HW144612  10.228   2.547   7.581 -0.3772 -2.5100  0.1400
10878SOL    HW244613  10.322   2.577   7.466 -0.4982  3.3630  1.2638
10879SOL     OW44614   9.323   6.415   5.521 -0.9568 -0.0493  0.0275
10879SOL    HW144615   9.374   6.463   5.587  0.8445  0.6821 -1.7966
10879SOL    HW244616   9.318   6.326   5.556 -0.1439  0.3355  1.2163
10880SOL     OW44617   2.316   5.800   3.558 -0.2353 -0.4307  0.2129
10880SOL    HW144618   2.275   5.874   3.513 -2.5340 -1.8177 -0.1483
10880SOL    HW244619   2.354   5.748   3.488  1.2089  0.2775  0.4488
10881SOL     OW44620   9.649   4.949   0.769  0.1476 -0.0738 -0.0538
10881SOL    HW144621   9.706   4.930   0.695  0.1586  0.5364 -0.2051
10881SOL    HW244622   9.688   5.026   0.810  0.1691 -0.4326  0.6155
10882SOL     OW44623   0.014   7.744   5.849  0.0423  0.4991  0.2308
10882SOL    HW144624   0.085   7.706   5.901 -0.2810 -0.8659 -0.2980
10882SOL    HW244625  -0.066   7.707   5.887 -0.1984 -0.4938 -1.1928
10883SOL     OW44626   6.905   0.950   5.228 -0.5199  0.5048  0.0788
10883SOL    HW144627   6.949   1.031   5.254 -1.1434  0.2964  1.9138
10883SOL    HW244628   6.866   0.971   5.142  1.0768  1.4390 -0.4590
10884SOL     OW44629   7.581   1.146   7.175  0.1548 -0.3063  1.1941
10884SOL    HW144630   7.667   1.186   7.163 -0.1321 -0.3390 -1.4968
10884SOL    HW244631   7.520   1.203   7.127 -0.7804 -2.0562  0.1712
10885SOL     OW44632   0.767   1.267   5.986  0.5208 -0.1467  0.3435
10885SOL    HW144633   0.756   1.360   5.963  2.2823  0.0222  0.0728
10885SOL    HW244634   0.737   1.261   6.076  1.0829  0.8643  0.6139
10886SOL     OW44635   9.752   9.737   3.220 -0.1632 -0.1859  0.6981
10886SOL    HW144636   9.761   9.832   3.221 -1.3882 -0.0470  1.3737
10886SOL    HW244637   9.727   9.716   3.130 -0.7984  0.2511  0.7633
10887SOL     OW44638   5.605   2.666   2.560  0.2140 -0.1667  0.4559
10887SOL    HW144639   5.658   2.684   2.638  0.1031  0.5276  0.3842
10887SOL    HW244640   5.548   2.743   2.552 -0.9723 -1.0002  0.6647
10888SOL     OW44641   0.022   7.065   1.149 -0.0785  0.3291 -0.2143
10888SOL    HW144642  -0.016   7.019   1.074 -0.0009  0.3346 -0.2571
10888SOL    HW244643  -0.053   7.082   1.206  0.0311 -0.7817  0.2959
10889SOL     OW44644   9.056   5.392   8.832  0.4999 -0.1894  0.0339
10889SOL    HW144645   9.126   5.352   8.782  0.9884  2.0581 -1.1961
10889SOL    HW244646   8.976   5.358   8.793  0.8950  0.0311 -0.9932
10890SOL     OW44647   3.819   8.539   9.993  0.5327  0.4385  0.2767
10890SOL    HW144648   3.742   8.494   9.960  2.3828 -1.9685 -1.1433
10890SOL    HW244649   3.834   8.500  10.079 -0.0395  1.2230  0.7441
10891SOL     OW44650   2.382   0.666   6.844 -0.2154 -1.1868  0.3698
10891SOL    HW144651   2.358   0.740   6.900  0.0695 -2.1374  1.7925
10891SOL    HW244652   2.444   0.703   6.781  1.2476 -0.5234  2.1051
10892SOL     OW44653   9.245   3.842   9.103 -0.0902  0.1436 -0.3671
10892SOL    HW144654   9.188   3.881   9.037 -0.2497  0.2783 -0.1532
10892SOL    HW244655   9.225   3.890   9.183 -1.6604 -1.5780  0.3526
10893SOL     OW44656   5.004   2.882   9.994  0.1383  0.3043 -0.5129
10893SOL    HW144657   5.080   2.925  10.033  0.1923 -0.1576 -0.1107
10893SOL    HW244658   4.941   2.953   9.980  0.7953  0.7591 -1.2390
10894SOL     OW44659   7.632   3.901   3.726 -0.1835 -0.0844 -0.7166
10894SOL    HW144660   7.711   3.896   3.779  0.7691  0.0161 -2.0833
10894SOL    HW244661   7.607   3.810   3.711 -1.7027 -0.1461  1.6046
10895SOL     OW44662   0.917   8.521   1.579 -0.1267 -0.3017 -0.1532
10895SOL    HW144663   0.849   8.537   1.645 -0.3494  1.0055 -0.6883
10895SOL    HW244664   0.915   8.598   1.523  1.8840 -0.1933 -0.1163
10896SOL     OW44665   8.339   5.979   5.157 -0.1141  0.4140 -0.2928
10896SOL    HW144666   8.348   6.050   5.094 -1.9037 -0.6093 -1.8039
10896SOL    HW244667   8.256   5.937   5.134  1.2165 -2.6594  0.0049
10897SOL     OW44668   6.730   0.788   5.862  0.0305 -0.3768  0.1855
10897SOL    HW144669   6.777   0.859   5.820 -1.0489 -0.1665 -0.7233
10897SOL    HW244670   6.651   0.829   5.898 -0.4332 -1.0257 -0.0558
10898SOL     OW44671  10.260   0.507   2.031  0.0152 -0.2683 -0.3262
10898SOL    HW144672  10.176   0.508   1.987  0.2378 -2.5907 -0.9213
10898SOL    HW244673  10.240   0.478   2.120  0.0565  0.4863 -0.0594
10899SOL     OW44674   8.274   1.033   3.281 -0.1680 -0.0239  0.2412
10899SOL    HW144675   8.178   1.032   3.279 -0.1748 -2.1797 -0.3952
10899SOL    HW244676   8.296   1.114   3.327 -2.2733  0.8473 -0.1837
10900SOL     OW44677   6.011   7.763   5.428  0.4081 -0.0528 -0.2734
10900SOL    HW144678   5.952   7.837   5.444  0.7830  0.0831  0.5629
10900SOL    HW244679   6.075   7.795   5.365  0.1834  0.1286 -0.4086
10901SOL     OW44680   3.598   9.029   5.373 -0.2735  0.0101  0.0988
10901SOL    HW144681   3.670   9.090   5.384 -0.0413 -0.2820  0.2066
10901SOL    HW244682   3.521   9.085   5.359 -0.1469  0.3392  0.6769
10902SOL     OW44683   0.268   1.407   8.082 -0.8013  0.3039 -0.1458
10902SOL    HW144684   0.272   1.441   7.993  0.6518  1.4147  0.3204
10902SOL    HW244685   0.260   1.484   8.138  0.9287 -0.1715  0.8378
10903SOL     OW44686   5.625   8.022  10.089 -0.3609  0.2561  0.0984
10903SOL    HW144687   5.639   7.941  10.137 -0.6786  0.6292  0.8388
10903SOL    HW244688   5.541   8.009  10.045  0.6746 -0.7071 -1.6912
10904SOL     OW44689   5.831   2.330   7.473  0.1522  0.3100 -0.0779
10904SOL    HW144690   5.902   2.390   7.496 -0.4211  1.0521 -0.1901
10904SOL    HW244691   5.834   2.324   7.377 -0.3895  0.9259 -0.1391
10905SOL     OW44692   7.265   2.380   1.303  0.1416  0.6013  0.0697
10905SOL    HW144693   7.205   2.351   1.234 -1.5753  1.4754  1.1333
10905SOL    HW244694   7.282   2.472   1.283  1.6891  0.2043 -0.5751
10906SOL     OW44695   1.512   0.507   8.135 -0.0693  0.0792  0.0328
10906SOL    HW144696   1.473   0.497   8.222  0.4442  1.7348  0.4906
10906SOL    HW244697   1.580   0.439   8.131 -0.4676 -0.3735  0.6860
10907SOL     OW44698   7.318   9.983   6.960 -0.1493  0.0527  0.2270
10907SOL    HW144699   7.262   9.908   6.938  1.2990 -1.1407  0.5156
10907SOL    HW244700   7.310  10.042   6.885 -3.0251  0.7180  0.9149
10908SOL     OW44701   3.636   3.140   2.774 -0.2010 -0.5672  0.6519
10908SOL    HW144702   3.597   3.190   2.846 -1.2145 -2.3554  1.4067
10908SOL    HW244703   3.568   3.137   2.707  0.1956 -0.1701  0.2233
10909SOL     OW44704   7.856   5.627   6.729  0.6908  0.0300  0.1783
10909SOL    HW144705   7.875   5.693   6.796  2.3235 -0.7563  0.5580
10909SOL    HW244706   7.910   5.552   6.754  0.0318 -0.9065 -1.0872
10910SOL     OW44707   1.308   3.952   0.575 -0.1715 -0.2167  0.2935
10910SOL    HW144708   1.218   3.956   0.608 -0.1742 -0.0710  0.2703
10910SOL    HW244709   1.363   3.946   0.654 -0.0806  1.7313  0.4222
10911SOL     OW44710   3.720   4.456   6.863  0.3701  0.2037  0.1630
10911SOL    HW144711   3.656   4.412   6.918  0.3647 -0.5484 -0.4311
10911SOL    HW244712   3.716   4.547   6.890 -0.0177 -0.0606  1.0292
10912SOL     OW44713   6.068   0.516   0.797  0.1325  0.2419 -0.0701
10912SOL    HW144714   6.142   0.476   0.751 -0.4154  0.4390 -1.1603
10912SOL    HW244715   6.057   0.601   0.755 -0.7450  0.1910  0.0376
10913SOL     OW44716   7.802   7.785   7.805 -0.0307  0.0538 -0.7118
10913SOL    HW144717   7.845   7.864   7.775 -3.0722  1.0974 -2.8200
10913SOL    HW244718   7.853   7.713   7.766  0.5920  1.1324 -1.9571
10914SOL     OW44719   6.548   7.823  10.133  0.3914  0.1999 -0.2449
10914SOL    HW144720   6.490   7.807  10.208 -0.1911  2.1576 -0.2454
10914SOL    HW244721   6.559   7.736  10.093 -0.0712 -0.7209  1.5166
10915SOL     OW44722   9.219   8.857   1.230 -0.3541 -0.1770  0.2508
10915SOL    HW144723   9.274   8.787   1.265  0.8381 -0.0505 -1.2849
10915SOL    HW244724   9.140   8.812   1.200  0.3463 -0.8616 -0.6055
10916SOL     OW44725   8.305   1.018   6.173 -0.3793  0.4081 -0.0443
10916SOL    HW144726   8.279   0.951   6.111 -1.6501  2.2626 -1.6418
10916SOL    HW244727   8.384   1.057   6.136 -1.6986  2.1958 -1.1497
10917SOL     OW44728   5.076   1.208   7.915  0.2103 -0.3558 -0.3112
10917SOL    HW144729   4.984   1.194   7.895  0.2311 -0.2537 -0.4865
10917SOL    HW244730   5.084   1.191   8.009  0.1670 -1.1372 -0.4414
10918SOL     OW44731   2.325   8.983   6.258  0.0927  0.5262 -0.2237
10918SOL    HW144732   2.292   8.895   6.278 -0.3996  0.3177 -1.8571
10918SOL    HW244733   2.283   9.007   6.176  0.9199  1.9294 -0.2721
10919SOL     OW44734   4.877   5.894   2.364  0.4237 -0.5155  0.0702
10919SOL    HW144735   4.835   5.934   2.289 -1.1170 -0.1246  1.0933
10919SOL    HW244736   4.951   5.951   2.384 -1.3921  1.5937  1.1524
10920SOL     OW44737  10.060   5.921   4.959  0.5642 -0.5762 -0.2949
10920SOL    HW144738  10.036   6.014   4.952  0.6441 -0.5448 -0.1357
10920SOL    HW244739  10.017   5.880   4.883 -0.4460 -0.6086  0.2656
10921SOL     OW44740   3.129   2.209   4.887  0.5602 -0.1879 -0.1871
10921SOL    HW144741   3.212   2.184   4.927  0.2353 -0.8627  0.0796
10921SOL    HW244742   3.127   2.162   4.804  0.6927  0.2706 -0.4553
10922SOL     OW44743   1.869   3.875   3.624 -0.5436  0.4531  0.4191
10922SOL    HW144744   1.866   3.871   3.720  0.2534  0.9875  0.4690
10922SOL    HW244745   1.779   3.897   3.598 -0.6795  0.6643  1.0603
10923SOL     OW44746   5.281   8.366   3.099 -0.1031  0.8280  0.1858
10923SOL    HW144747   5.235   8.305   3.041  3.1139 -0.3097 -1.3954
10923SOL    HW244748   5.276   8.450   3.054 -0.2451  0.6164 -0.1952
10924SOL     OW44749   7.635   6.736   5.207 -0.5642  0.1534  0.3025
10924SOL    HW144750   7.563   6.757   5.147  0.0146 -0.7600 -0.7503
10924SOL    HW244751   7.712   6.729   5.151  0.8835  3.3107  1.6328
10925SOL     OW44752   3.968   0.713   8.147  0.3780 -0.3007  0.3637
10925SOL    HW144753   3.963   0.698   8.053 -0.3193 -1.1354  0.5193
10925SOL    HW244754   4.051   0.760   8.160 -0.1455  1.0007 -0.7960
10926SOL     OW44755   0.247   2.880   2.734 -0.0653  0.4555 -0.0357
10926SOL    HW144756   0.204   2.801   2.701  0.4929  0.2620 -0.3173
10926SOL    HW244757   0.257   2.864   2.828  0.7777 -0.1760 -0.2157
10927SOL     OW44758   4.416   6.693   7.525  0.1814  1.0839  0.3772
10927SOL    HW144759   4.363   6.673   7.448  0.5805 -0.5148  0.4703
10927SOL    HW244760   4.434   6.787   7.519  1.5370  0.7509 -2.3424
10928SOL     OW44761   0.247   5.381   4.547  0.4942 -0.1105 -0.2806
10928SOL    HW144762   0.173   5.426   4.504  1.2953  0.1979 -1.3829
10928SOL    HW244763   0.253   5.297   4.502  0.9078 -0.0695 -0.3037
10929SOL     OW44764   4.051   0.020   1.477 -0.7066  0.0954 -0.1143
10929SOL    HW144765   4.066   0.088   1.412  0.8905  1.1359  1.2462
10929SOL    HW244766   4.056  -0.062   1.428  2.1052  0.7560 -1.1226
10930SOL     OW44767   0.145   5.597   4.793 -0.2893 -0.8018  0.3062
10930SOL    HW144768   0.139   5.578   4.700  1.1538 -0.8523  0.1907
10930SOL    HW244769   0.055   5.603   4.823 -0.9285  2.3249 -1.7155
10931SOL     OW44770   0.864   4.470   8.845  0.0013 -1.1317 -0.8219
10931SOL    HW144771   0.868   4.459   8.940 -1.8751  0.1784 -0.5428
10931SOL    HW244772   0.778   4.437   8.820 -0.3489  0.3902 -1.7648
10932SOL     OW44773   1.954   7.394   7.487 -0.5260  0.4040  0.1230
10932SOL    HW144774   1.910   7.356   7.562 -1.2040 -1.5368 -1.1701
10932SOL    HW244775   1.891   7.456   7.451 -1.4112 -0.8239 -0.5042
10933SOL     OW44776   5.812   7.203   6.816  0.2801 -0.7092 -0.5397
10933SOL    HW144777   5.897   7.159   6.824  1.2992  0.9379 -1.7785
10933SOL    HW244778   5.832   7.295   6.829 -1.0868 -0.1392 -2.2691
10934SOL     OW44779   9.335   8.546   6.505  0.5917 -0.2797  0.2147
10934SOL    HW144780   9.414   8.575   6.462  0.3984  1.3957  0.9112
10934SOL    HW244781   9.358   8.543   6.598  0.0155 -0.3730  0.3601
10935SOL     OW44782   5.953   8.800   1.927 -0.2141 -0.3315  0.4971
10935SOL    HW144783   5.965   8.725   1.985 -2.0186 -0.5988  0.5580
10935SOL    HW244784   5.859   8.809   1.917 -0.1042  2.2857  0.9359
10936SOL     OW44785   0.468   2.446   9.309 -0.2196 -0.6290  0.5123
10936SOL    HW144786   0.542   2.386   9.305 -0.2619 -0.7525  1.3540
10936SOL    HW244787   0.417   2.417   9.385 -1.3831 -0.8267 -0.3100
10937SOL     OW44788   0.523   9.842   8.401  0.5225 -0.1813  0.3332
10937SOL    HW144789   0.578   9.773   8.438  2.1059  1.0235  0.2790
10937SOL    HW244790   0.552   9.922   8.445 -0.1425  0.7067 -0.8142
10938SOL     OW44791   5.930   1.522   7.579 -0.0204  0.3075  0.0541
10938SOL    HW144792   5.899   1.588   7.641  0.6565 -2.2120  3.3690
10938SOL    HW244793   5.860   1.457   7.576  0.3916 -0.1199 -1.0938
10939SOL     OW44794   0.960   6.176   9.941 -0.4640 -0.0748 -0.4936
10939SOL    HW144795   0.968   6.252   9.998 -0.1142 -0.1661 -0.4134
10939SOL    HW244796   0.892   6.122   9.982 -1.2449  0.5379 -0.9586
10940SOL     OW44797   2.837   1.217   8.303  0.2652  0.3746 -0.5327
10940SOL    HW144798   2.833   1.280   8.232 -1.5097  2.4319  1.2383
10940SOL    HW244799   2.748   1.181   8.309  0.6036 -0.4067  0.0937
10941SOL     OW44800   5.133   9.029   0.318  0.0779 -0.3408  0.8864
10941SOL    HW144801   5.164   9.082   0.391  0.7399 -0.8065  0.9544
10941SOL    HW244802   5.039   9.020   0.333  0.3236 -1.0702  2.1184
10942SOL     OW44803  10.194   0.782   1.222 -0.4628  0.2797  0.1258
10942SOL    HW144804  10.121   0.829   1.182  0.2255  0.3200 -1.1383
10942SOL    HW244805  10.230   0.729   1.151  0.8573  0.4092  0.6715
10943SOL     OW44806   3.401   5.926   3.029  0.4264  0.0945 -0.5211
10943SOL    HW144807   3.465   5.994   3.054 -0.2178  0.8449 -0.8944
10943SOL    HW244808   3.346   5.968   2.964 -0.8192 -0.3620  0.2167
10944SOL     OW44809   0.154   6.278   8.150 -0.1778 -0.3654 -0.1013
10944SOL    HW144810   0.186   6.339   8.083  2.3316 -1.1581  0.2344
10944SOL    HW244811   0.195   6.309   8.231 -0.2375 -1.4768  0.3710
10945SOL     OW44812   0.513   8.953   7.973 -0.3862 -0.5635  0.0742
10945SOL    HW144813   0.555   9.027   8.016  0.3797 -1.1918  0.4358
10945SOL    HW244814   0.514   8.976   7.880 -1.4422  0.4954  0.3007
10946SOL     OW44815   1.583   1.081  10.175  0.0456  0.2389  0.2691
10946SOL    HW144816   1.566   1.172  10.199  1.8036  0.5694  0.3396
10946SOL    HW244817   1.587   1.035  10.259  0.3122  0.3061  0.2922
10947SOL     OW44818   5.836   9.614   9.871  0.1254  0.2482  0.7066
10947SOL    HW144819   5.801   9.695   9.832  0.1242  0.0466  0.2863
10947SOL    HW244820   5.930   9.629   9.877  0.1900  0.0995  0.1774
10948SOL     OW44821   6.772   1.055   8.083 -0.1531  0.8327 -0.1064
10948SOL    HW144822   6.703   0.994   8.055  0.6601 -1.1733  1.8941
10948SOL    HW244823   6.830   1.062   8.007 -0.5787 -0.4506 -0.5801
10949SOL     OW44824   9.036   4.912   4.099 -0.5040 -0.0096  0.4350
10949SOL    HW144825   9.013   4.966   4.173  0.3306 -1.0870  1.5276
10949SOL    HW244826   9.132   4.906   4.102 -0.4463  0.0277 -0.7981
10950SOL     OW44827   9.176   5.700   1.130 -0.1497  0.0318 -0.3788
10950SOL    HW144828   9.265   5.708   1.096 -0.1756 -2.0877 -1.1424
10950SOL    HW244829   9.176   5.750   1.212  1.5213  0.6666 -0.7341
10951SOL     OW44830   8.726  10.030   3.760  0.1071 -0.1151  0.4246
10951SOL    HW144831   8.702  10.106   3.813  0.3946  1.9119 -2.1454
10951SOL    HW244832   8.651   9.972   3.766 -2.6538  2.8471 -1.7448
10952SOL     OW44833   9.963   1.519   9.111  0.3702 -0.0299 -0.5420
10952SOL    HW144834   9.940   1.556   9.197  0.0359  0.2104 -0.7315
10952SOL    HW244835  10.050   1.556   9.092  0.2647  0.2477 -0.4928
10953SOL     OW44836   4.197   6.158   4.426  0.6766 -0.0573  0.8885
10953SOL    HW144837   4.145   6.112   4.360  0.4369 -1.4477  2.0031
10953SOL    HW244838   4.148   6.147   4.508  0.6975  2.0769  1.2462
10954SOL     OW44839   2.269   0.502   4.043  0.4534  0.8529  0.4022
10954SOL    HW144840   2.201   0.515   3.977  1.2494  1.0923 -0.3826
10954SOL    HW244841   2.308   0.589   4.056  1.9468  0.3794 -0.6459
10955SOL     OW44842   7.964   2.180   8.345  0.1235 -0.0711  0.7313
10955SOL    HW144843   7.873   2.183   8.315  0.3476  0.1975  0.0340
10955SOL    HW244844   7.982   2.087   8.357 -0.0142 -0.1854  0.1106
10956SOL     OW44845   7.112   2.750   5.018 -0.2655 -0.3203  0.5715
10956SOL    HW144846   7.021   2.736   4.991  0.3248 -0.7960 -1.3018
10956SOL    HW244847   7.138   2.667   5.058 -0.4214 -0.4485  0.4091
10957SOL     OW44848   1.626   5.191   9.597  0.5217  0.1412  0.6808
10957SOL    HW144849   1.574   5.218   9.674 -0.0308  1.6798 -0.1802
10957SOL    HW244850   1.622   5.267   9.539  0.9985 -0.9652 -0.8379
10958SOL     OW44851   4.493   3.211   9.141  0.4090 -0.0017  0.1273
10958SOL    HW144852   4.531   3.134   9.099 -0.2048 -0.2868  0.0890
10958SOL    HW244853   4.474   3.271   9.068  0.5191  0.0263  0.1210
10959SOL     OW44854   6.903   0.996   5.839 -0.1976 -0.0930  0.2018
10959SOL    HW144855   6.901   0.972   5.746 -3.1847  1.3238 -0.2099
10959SOL    HW244856   6.996   0.997   5.862  0.5466 -4.5640 -1.5953
10960SOL     OW44857   1.361   3.018   3.455 -0.1315 -0.7520  0.0757
10960SOL    HW144858   1.357   3.006   3.360 -0.2272  0.6873 -0.1219
10960SOL    HW244859   1.416   3.095   3.466 -0.8270 -0.4017  1.1556
10961SOL     OW44860   4.557   2.496   3.605 -0.3685  0.5186 -0.1128
10961SOL    HW144861   4.600   2.528   3.684  0.0035 -0.8140  0.2500
10961SOL    HW244862   4.599   2.545   3.534  1.0402 -0.0045  0.3258
10962SOL     OW44863   4.929   1.100   5.068  0.1552  0.2942 -0.1207
10962SOL    HW144864   4.894   1.175   5.116 -0.5375  1.7577 -2.7370
10962SOL    HW244865   5.018   1.090   5.101 -0.1593  1.4349  1.1812
10963SOL     OW44866   6.211   3.960   3.741 -0.1416 -0.6362  0.3706
10963SOL    HW144867   6.132   4.014   3.739 -0.2049 -0.7296 -1.5231
10963SOL    HW244868   6.195   3.896   3.809 -1.3121 -0.0835  0.6294
10964SOL     OW44869   9.850   2.425  10.070 -0.4053  0.0794 -0.0436
10964SOL    HW144870   9.867   2.506  10.117 -1.6238  0.3308 -0.0116
10964SOL    HW244871   9.907   2.360  10.113  1.6850  1.1865 -1.0283
10965SOL     OW44872   7.750   5.790   9.222  0.0006  0.2670  0.2092
10965SOL    HW144873   7.704   5.741   9.154  0.4698 -2.1932  1.5654
10965SOL    HW244874   7.685   5.801   9.291  0.6613 -0.9672  1.0643
10966SOL     OW44875   5.166   9.985   6.518  0.2751 -0.4012  0.0580
10966SOL    HW144876   5.218  10.065   6.515 -1.3314  0.6834 -1.9207
10966SOL    HW244877   5.137   9.972   6.427 -1.5870 -1.7876  0.7863
10967SOL     OW44878   2.232   7.625   9.514  0.2575  0.2153  0.4543
10967SOL    HW144879   2.192   7.570   9.582  0.4700 -1.5034 -0.7356
10967SOL    HW244880   2.240   7.567   9.438  0.4386  1.9317 -0.9194
10968SOL     OW44881   7.132   2.596   5.535 -0.4451 -0.2887 -0.0060
10968SOL    HW144882   7.046   2.606   5.495 -0.3070  3.0425  0.2236
10968SOL    HW244883   7.116   2.607   5.629 -0.0001 -2.0786  0.3267
10969SOL     OW44884   8.786   0.170   5.086 -0.6368 -0.2440  0.2860
10969SOL    HW144885   8.843   0.205   5.018  0.5035 -1.0584  0.8082
10969SOL    HW244886   8.708   0.226   5.082 -0.1448  0.3958 -0.9538
10970SOL     OW44887   6.703   5.369   1.463  0.3923 -0.3012 -0.8544
10970SOL    HW144888   6.731   5.372   1.372 -0.2269  0.0404 -1.0342
10970SOL    HW244889   6.614   5.333   1.460  0.1717  0.2025 -0.4335
10971SOL     OW44890   2.603   4.050   9.355 -0.3471 -0.2334 -0.3167
10971SOL    HW144891   2.510   4.032   9.369 -0.3784 -0.7664 -1.1592
10971SOL    HW244892   2.647   4.004   9.427 -0.6323 -1.3277 -0.8217
10972SOL     OW44893   6.089   3.928   0.828 -0.0999  0.1549 -0.1166
10972SOL    HW144894   6.038   3.886   0.759  0.6274  0.3298 -0.7787
10972SOL    HW244895   6.032   3.928   0.905 -1.4671  1.2047 -1.0846
10973SOL     OW44896   7.228   4.219  10.131 -0.2639  0.1685  0.1526
10973SOL    HW144897   7.143   4.258  10.111 -0.0721  0.5384  0.0546
10973SOL    HW244898   7.286   4.294  10.147  0.1176 -0.0703 -0.0887
10974SOL     OW44899   1.249   2.254   7.696  0.1263  0.2845  0.4678
10974SOL    HW144900   1.182   2.191   7.723  0.5846 -0.4559 -0.0804
10974SOL    HW244901   1.329   2.224   7.738  0.3694  0.4324  0.1168
10975SOL     OW44902   3.553   5.416   7.646  0.2885  0.3236 -0.0366
10975SOL    HW144903   3.570   5.405   7.740  2.7045  1.1740 -0.3055
10975SOL    HW244904   3.560   5.510   7.631 -0.1997  0.2073 -1.0643
10976SOL     OW44905   3.849   5.098   6.130 -0.0065 -0.2246  0.1378
10976SOL    HW144906   3.797   5.096   6.049  0.4191 -1.1807 -0.1347
10976SOL    HW244907   3.939   5.084   6.100  0.4711  1.7169  0.5755
10977SOL     OW44908   1.290   3.469   8.906  0.2095  0.0434  0.0619
10977SOL    HW144909   1.279   3.515   8.823  0.7466  1.1022  0.5560
10977SOL    HW244910   1.297   3.376   8.882  2.0951  0.4727 -1.2474
10978SOL     OW44911  10.112   3.552   7.884  0.0611 -0.4019  0.8528
10978SOL    HW144912  10.035   3.571   7.938 -0.0974 -2.4131  1.3948
10978SOL    HW244913  10.138   3.463   7.908  3.1029  0.4859  1.2998
10979SOL     OW44914   1.599   4.839   7.188  0.0354 -0.8904  0.1553
10979SOL    HW144915   1.690   4.813   7.198  0.5530  0.7197 -0.1175
10979SOL    HW244916   1.565   4.781   7.120  1.1396 -0.8593 -0.4436
10980SOL     OW44917   5.474   5.712   9.441  0.3792 -0.3166  0.0214
10980SOL    HW144918   5.540   5.767   9.399  1.1567 -1.0818  0.2108
10980SOL    HW244919   5.392   5.733   9.396  0.8331  0.3335 -0.5112
10981SOL     OW44920   1.012   7.723   7.830  0.0857 -0.2496  0.2951
10981SOL    HW144921   0.952   7.700   7.758  0.9588 -0.5722 -0.3409
10981SOL    HW244922   1.032   7.639   7.872  0.2649 -0.1644  0.3770
10982SOL     OW44923   7.617   4.389   5.411 -0.4417  0.6826  0.3499
10982SOL    HW144924   7.693   4.442   5.388 -0.8196  1.3481  0.5924
10982SOL    HW244925   7.542   4.443   5.386 -0.8380 -0.0005  0.0361
10983SOL     OW44926   4.120   1.976   7.689  0.0582  0.5262  0.0401
10983SOL    HW144927   4.105   1.882   7.680 -0.1476  0.1655  3.1346
10983SOL    HW244928   4.038   2.016   7.658 -0.4484 -0.3953  0.1509
10984SOL     OW44929   3.184   6.437   0.652  0.2513  0.2876 -0.6542
10984SOL    HW144930   3.237   6.441   0.732 -1.6085  2.4081  0.6097
10984SOL    HW244931   3.182   6.527   0.621  0.1633 -0.3549 -2.6210
10985SOL     OW44932   6.443   6.615   0.570  0.0675  0.5236  0.2689
10985SOL    HW144933   6.512   6.559   0.605 -0.7038  0.2553  1.4172
10985SOL    HW244934   6.394   6.645   0.647 -1.4400  0.2599 -0.5312
10986SOL     OW44935   7.867   5.658   6.082  0.2456 -0.0668 -0.3819
10986SOL    HW144936   7.881   5.613   6.165  0.4185  1.5912  0.5195
10986SOL    HW244937   7.869   5.588   6.016 -0.2902 -1.4585  1.0279
10987SOL     OW44938   7.443   0.414   8.022  0.2425  0.0587 -0.2809
10987SOL    HW144939   7.523   0.414   7.970  1.4708 -0.4004  1.5190
10987SOL    HW244940   7.446   0.332   8.071 -1.4749 -0.0920 -0.3456
10988SOL     OW44941   5.129   7.592   5.600  0.0537  0.1856 -0.6454
10988SOL    HW144942   5.064   7.539   5.555 -0.6205 -0.0474  0.5615
10988SOL    HW244943   5.078   7.650   5.656  0.8614  0.3513 -0.0582
10989SOL     OW44944   3.199   6.321   3.007 -0.5278 -0.4376 -0.0553
10989SOL    HW144945   3.134   6.389   3.023 -2.1493 -2.0375  0.4279
10989SOL    HW244946   3.268   6.365   2.956 -1.3453  1.6164  0.5396
10990SOL     OW44947   6.199  10.352   2.078 -0.4915  0.1785 -0.4312
10990SOL    HW144948   6.195  10.416   2.150  1.4259  0.5250 -0.5924
10990SOL    HW244949   6.180  10.404   1.999 -1.9220 -0.0745 -0.2890
10991SOL     OW44950   1.806   0.762   8.928  0.9599  0.4606  0.8750
10991SOL    HW144951   1.867   0.817   8.878 -0.7499 -0.0797 -2.0360
10991SOL    HW244952   1.814   0.675   8.888 -1.0219  0.1812  1.0120
10992SOL     OW44953   4.176   8.163   4.848  0.4001  0.2334 -0.1978
10992SOL    HW144954   4.234   8.226   4.806  0.2513  0.0470 -0.6905
10992SOL    HW244955   4.193   8.173   4.942  1.0858  0.3063 -0.3294
10993SOL     OW44956   1.090   0.786   6.142 -0.0753  0.1637  0.0781
10993SOL    HW144957   1.175   0.777   6.185 -0.0442  1.5389  0.3569
10993SOL    HW244958   1.069   0.879   6.150 -0.4886  0.3036 -2.0920
10994SOL     OW44959   9.947   3.191   3.047  0.3648 -0.5748 -0.0486
10994SOL    HW144960   9.959   3.120   2.983  2.9583  1.3397 -1.9009
10994SOL    HW244961   9.998   3.163   3.123 -1.3310 -2.0920  0.6061
10995SOL     OW44962   1.483   3.333   9.111 -0.2682 -0.0245 -0.2597
10995SOL    HW144963   1.560   3.347   9.056 -0.0912  0.3145  0.0760
10995SOL    HW244964   1.411   3.373   9.062  0.1713  1.8675  0.5410
10996SOL     OW44965   3.994   2.025  10.088  0.0939 -0.1328 -0.9752
10996SOL    HW144966   4.011   1.943  10.134 -1.2049  0.5135  0.7666
10996SOL    HW244967   3.940   2.076  10.148 -0.3859  1.4174 -2.6188
10997SOL     OW44968   9.337   5.079   1.095 -0.7129 -0.0298  0.4593
10997SOL    HW144969   9.344   5.120   1.181  1.4064  0.1148  0.2635
10997SOL    HW244970   9.380   5.139   1.035 -1.2058 -0.6340 -0.5430
10998SOL     OW44971   1.266   3.636   0.001  0.2308  0.1583  0.5461
10998SOL    HW144972   1.233   3.726   0.008 -0.2037  0.1915 -1.3917
10998SOL    HW244973   1.257   3.614  -0.092  2.6478 -1.0176  0.5064
10999SOL     OW44974   3.962   0.209   7.450 -0.1788 -0.1875  0.4317
10999SOL    HW144975   3.951   0.120   7.418  0.4874 -0.6238  1.3917
10999SOL    HW244976   4.054   0.214   7.477 -0.0441  0.9819 -0.1851
11000SOL     OW44977   4.394   1.156   4.691 -0.0720  0.5073 -0.5433
11000SOL    HW144978   4.329   1.088   4.708  2.1282 -1.8192 -0.7069
11000SOL    HW244979   4.413   1.193   4.777 -0.5907  0.2027 -0.2931
11001SOL     OW44980   2.306   0.044   2.304  0.1213  0.4027  0.2857
11001SOL    HW144981   2.378   0.104   2.283  1.3242 -1.3922 -0.9381
11001SOL    HW244982   2.349  -0.036   2.334 -1.4095 -0.3273  0.6352
11002SOL     OW44983   1.305   5.643   9.172  0.8691 -0.3488  0.4007
11002SOL    HW144984   1.262   5.654   9.087 -1.3372  2.4199  1.7123
11002SOL    HW244985   1.354   5.725   9.184  0.6043 -0.4108  2.0657
11003SOL     OW44986   4.483   9.708   8.541  0.3631 -0.0787  0.2337
11003SOL    HW144987   4.429   9.633   8.520  0.7498 -0.4911  0.6816
11003SOL    HW244988   4.534   9.725   8.462 -2.3552  2.0750 -1.2650
11004SOL     OW44989   0.949   4.341   6.488 -0.6573 -0.6508  0.1693
11004SOL    HW144990   0.901   4.411   6.443  1.3870  0.0132 -1.1567
11004SOL    HW244991   1.003   4.386   6.552 -0.8405 -1.2536  0.7631
11005SOL     OW44992   7.904  10.193   4.698  0.1693  0.6983  0.3959
11005SOL    HW144993   7.814  10.163   4.683  0.3453  0.4882 -0.2618
11005SOL    HW244994   7.939  10.131   4.763  0.3833 -0.2837 -0.6185
11006SOL     OW44995   7.157   3.108   6.384  1.1585 -0.0285 -0.3896
11006SOL    HW144996   7.219   3.037   6.370  1.7218  0.0504  1.4224
11006SOL    HW244997   7.145   3.110   6.479 -0.5854  0.8413 -0.5994
11007SOL     OW44998   8.228   0.825   5.121  0.4412 -0.2770 -0.1146
11007SOL    HW144999   8.283   0.804   5.046 -0.9557  0.7429 -1.4785
11007SOL    HW245000   8.145   0.781   5.104  0.3306 -0.6113  1.1955
11008SOL     OW45001   2.025   9.362   3.022  0.0897  0.0636 -0.2835
11008SOL    HW145002   2.047   9.282   2.974 -1.2126 -0.1188 -0.6215
11008SOL    HW245003   2.021   9.430   2.954 -1.2525 -0.0971 -0.4037
11009SOL     OW45004   9.142   3.358   2.704 -0.2929 -0.3722  0.2716
11009SOL    HW145005   9.215   3.420   2.701 -1.5201  1.1292 -1.8968
11009SOL    HW245006   9.179   3.279   2.744  2.6703  0.1000 -1.2323
11010SOL     OW45007   9.144  10.191   4.045 -0.0567 -0.0149 -0.1611
11010SOL    HW145008   9.200  10.160   4.116  0.7497 -1.5540 -1.4139
11010SOL    HW245009   9.061  10.212   4.087  0.6725 -0.0759  1.3541
11011SOL     OW45010   0.700   2.943   5.441  0.2672  0.1854  0.1067
11011SOL    HW145011   0.786   2.983   5.428 -0.8364  2.8496  0.4347
11011SOL    HW245012   0.714   2.880   5.511  1.9439  0.6172  0.2068
11012SOL     OW45013   4.561  10.168   3.766  0.2044  0.1537  0.2740
11012SOL    HW145014   4.554  10.136   3.676  2.3975  0.7087 -0.1363
11012SOL    HW245015   4.628  10.236   3.763  0.2004  0.3149  2.3154
11013SOL     OW45016   6.264   7.648   9.992 -0.4555 -0.1347 -0.0434
11013SOL    HW145017   6.288   7.730   9.948  0.5333 -0.1690  0.4132
11013SOL    HW245018   6.346   7.615  10.028 -1.1921 -0.1122  1.8171
11014SOL     OW45019   5.757   2.464   6.138  0.1069  0.4021 -0.6469
11014SOL    HW145020   5.745   2.469   6.043 -0.3975 -1.1256 -0.6836
11014SOL    HW245021   5.713   2.383   6.164  0.6033  0.5777  0.8375
11015SOL     OW45022   4.101   8.237   9.169 -0.3898  0.6433  1.0651
11015SOL    HW145023   4.066   8.305   9.112 -0.8650 -0.7487 -0.3855
11015SOL    HW245024   4.025   8.204   9.216 -0.8449 -1.2392 -0.8530
11016SOL     OW45025   4.259   9.791   0.968  0.6896  0.2593  0.1374
11016SOL    HW145026   4.294   9.712   1.009 -1.0720 -0.6221  0.0561
11016SOL    HW245027   4.199   9.827   1.034  0.8460  1.0743 -0.1506
11017SOL     OW45028   3.298   1.345   1.957 -0.4581  0.0284  0.4955
11017SOL    HW145029   3.263   1.430   1.930 -1.1957 -1.0744 -2.4278
11017SOL    HW245030   3.234   1.312   2.020 -0.1449  1.5822  1.7039
11018SOL     OW45031  10.139   1.128   5.748 -0.7735 -0.0956 -0.0023
11018SOL    HW145032  10.185   1.196   5.797 -1.8858  0.0106  0.9344
11018SOL    HW245033  10.143   1.157   5.657 -0.3395  0.6792  0.2570
11019SOL     OW45034   3.146   5.404   3.823 -0.3019 -0.6142  0.3795
11019SOL    HW145035   3.227   5.424   3.777 -1.5053  0.7207 -1.3163
11019SOL    HW245036   3.155   5.447   3.908 -0.3279  2.1375 -0.8773
11020SOL     OW45037   2.439   5.758   8.333 -0.3559  0.2701 -0.4514
11020SOL    HW145038   2.474   5.846   8.341  2.3383 -0.4810 -2.5311
11020SOL    HW245039   2.379   5.762   8.259  0.9446  0.0955 -1.5487
11021SOL     OW45040   3.277   7.812   8.343 -0.4252  0.3151 -0.2801
11021SOL    HW145041   3.261   7.727   8.385  2.0686 -0.5698 -0.9048
11021SOL    HW245042   3.313   7.867   8.412  1.9770 -0.5743 -0.7019
11022SOL     OW45043   1.471   8.458   0.232  0.2735 -0.5764 -0.8236
11022SOL    HW145044   1.409   8.407   0.181 -1.1456  0.9844 -0.7590
11022SOL    HW245045   1.545   8.399   0.247 -2.0216 -3.3006  0.8868
11023SOL     OW45046   4.610   5.277   2.191 -0.3173  0.0921  0.1241
11023SOL    HW145047   4.551   5.228   2.249 -0.3212  0.0675  0.0988
11023SOL    HW245048   4.649   5.343   2.248 -0.6003  0.3078  0.0678
11024SOL     OW45049   5.559   7.894   9.120 -0.0107 -0.3971  0.4267
11024SOL    HW145050   5.566   7.800   9.105 -1.5498 -0.7129  1.4851
11024SOL    HW245051   5.574   7.933   9.033  0.6461 -1.5983 -0.0191
11025SOL     OW45052   0.601   1.090   7.238 -0.2880  0.2340 -0.1092
11025SOL    HW145053   0.617   1.080   7.144  0.7672 -1.7384  0.2228
11025SOL    HW245054   0.666   1.154   7.267 -1.5178  1.9133 -0.9075
11026SOL     OW45055   6.383   2.979  10.261  0.0225 -0.0437 -0.5515
11026SOL    HW145056   6.369   2.909  10.197 -0.9704  0.9939 -1.5148
11026SOL    HW245057   6.299   3.023  10.267  0.1428  0.0085  1.3690
11027SOL     OW45058   7.214   6.642   5.596  0.0429 -0.5181 -0.0592
11027SOL    HW145059   7.223   6.738   5.600  1.7656 -0.6475 -0.2449
11027SOL    HW245060   7.192   6.617   5.685  0.2734  0.0005  0.1509
11028SOL     OW45061   4.866   4.131   7.112 -0.0322  0.2430 -0.6920
11028SOL    HW145062   4.901   4.071   7.047 -1.4076  1.5460 -2.7842
11028SOL    HW245063   4.897   4.217   7.084  1.5755  0.6517  1.9972
11029SOL     OW45064   3.294   8.532   9.978 -0.3261  0.6606 -0.0966
11029SOL    HW145065   3.295   8.456   9.919  0.8765  0.5324  0.0647
11029SOL    HW245066   3.205   8.567   9.970 -0.3323  0.3758 -1.6379
11030SOL     OW45067   8.300   4.104   9.362 -0.7026  0.2894  0.0392
11030SOL    HW145068   8.370   4.084   9.301 -0.5728  2.8351 -0.7342
11030SOL    HW245069   8.219   4.095   9.311 -0.7627  0.1600  0.1541
11031SOL     OW45070   2.533   1.393   4.786 -0.8298  0.3669  0.2978
11031SOL    HW145071   2.509   1.316   4.838  1.0735  0.0652  0.8024
11031SOL    HW245072   2.545   1.463   4.851  0.4037  0.2886  0.1766
11032SOL     OW45073  10.117   4.270   0.780  0.2685  0.2560  1.1030
11032SOL    HW145074  10.212   4.274   0.770  0.2878  2.9196  1.5490
11032SOL    HW245075  10.101   4.301   0.869 -1.0498  1.7408  0.4109
11033SOL     OW45076  10.230   8.068  10.340  0.0961 -0.2892  0.3309
11033SOL    HW145077  10.210   8.058  10.433 -1.0456  1.4633  0.3162
11033SOL    HW245078  10.152   8.036  10.295  0.4735 -0.7219 -0.0327
11034SOL     OW45079   8.037   1.832   5.293 -0.2014 -0.2306 -0.5394
11034SOL    HW145080   8.030   1.780   5.213  0.7330  0.2598 -0.9483
11034SOL    HW245081   8.038   1.767   5.363  0.1703 -0.7252 -0.9931
11035SOL     OW45082   7.359   3.315   2.475 -0.1051 -0.6252 -0.1212
11035SOL    HW145083   7.304   3.237   2.484 -0.5838 -0.1673  1.1622
11035SOL    HW245084   7.329   3.373   2.545  0.0733  0.8233 -1.2052
11036SOL     OW45085   0.710   1.032   0.507  0.4119  0.2498  0.0595
11036SOL    HW145086   0.770   1.104   0.523  0.0212  0.6368 -0.2237
11036SOL    HW245087   0.631   1.054   0.557  0.6781 -0.5047  0.8510
11037SOL     OW45088   3.256   3.068   3.817 -0.1565 -0.4401  0.4262
11037SOL    HW145089   3.188   3.015   3.859 -0.7121  0.0121  0.1272
11037SOL    HW245090   3.222   3.084   3.729 -0.4662  1.1830  0.7943
11038SOL     OW45091   2.645   8.901   3.740 -0.0407 -0.2452 -0.1693
11038SOL    HW145092   2.610   8.929   3.825  2.5924  0.8736  0.6446
11038SOL    HW245093   2.606   8.962   3.677  1.3385  1.8788  0.8869
11039SOL     OW45094   7.938   0.469   4.248 -0.3017 -0.4334  0.0152
11039SOL    HW145095   8.004   0.444   4.313  0.0004  1.1838  0.3716
11039SOL    HW245096   7.989   0.506   4.176 -0.6880 -1.5239 -0.8509
11040SOL     OW45097   6.125   4.732   3.895 -0.1522 -0.1178  0.0807
11040SOL    HW145098   6.139   4.738   3.989  0.0901  2.1271 -0.0344
11040SOL    HW245099   6.112   4.823   3.867  1.0020 -0.5875 -2.2344
11041SOL     OW45100   5.396   4.662   5.769 -0.0986  0.5049 -0.4697
11041SOL    HW145101   5.382   4.579   5.723 -0.6050  0.2827  0.0822
11041SOL    HW245102   5.490   4.679   5.759  0.1687 -0.5551  0.1272
11042SOL     OW45103   0.196   4.317   2.014 -0.1520 -0.0603  0.5650
11042SOL    HW145104   0.239   4.343   2.096 -2.9327  0.1585  2.0998
11042SOL    HW245105   0.145   4.395   1.989 -1.2457 -0.9205  0.0350
11043SOL     OW45106   4.045   1.275   8.813  0.1207  0.0361 -0.5718
11043SOL    HW145107   4.017   1.195   8.858 -0.9831  0.4903 -0.4295
11043SOL    HW245108   3.973   1.296   8.754 -0.0226  1.4346  0.0593
11044SOL     OW45109   6.828   8.299   9.307  0.4772 -0.0813  0.4169
11044SOL    HW145110   6.803   8.349   9.229 -1.2627 -2.1973 -0.4929
11044SOL    HW245111   6.917   8.269   9.290  1.0266  1.4963  0.3765
11045SOL     OW45112   4.856   7.934   7.556  0.6703  0.3505  0.1894
11045SOL    HW145113   4.789   7.941   7.488 -0.1412  1.4152  1.0526
11045SOL    HW245114   4.934   7.903   7.511  0.0837  0.8232 -1.1819
11046SOL     OW45115   5.085   9.299   6.846 -0.3618 -0.1055 -0.1270
11046SOL    HW145116   5.074   9.213   6.886 -2.1599 -1.2991 -2.8718
11046SOL    HW245117   5.057   9.361   6.913  0.6222 -1.6186  1.7986
11047SOL     OW45118   2.111   7.778   1.256  0.0205  0.1132  0.3902
11047SOL    HW145119   2.103   7.853   1.316 -0.9502 -0.1892  0.6493
11047SOL    HW245120   2.066   7.806   1.177 -1.7287 -0.7455  1.0351
11048SOL     OW45121   7.228   7.497   5.946  0.2224  0.4801  0.0580
11048SOL    HW145122   7.166   7.560   5.982  1.2583  1.2673  0.4957
11048SOL    HW245123   7.265   7.540   5.869  0.7632  0.3230  0.2218
11049SOL     OW45124   8.125   4.312   1.759 -0.2793 -0.0423 -0.0680
11049SOL    HW145125   8.073   4.382   1.798  0.4649 -0.5606  2.0344
11049SOL    HW245126   8.091   4.302   1.670 -1.9579  1.3963  0.3663
11050SOL     OW45127   0.822   8.117   9.110 -0.0810  0.3509  0.1726
11050SOL    HW145128   0.881   8.109   9.035 -1.0570  3.1016 -1.0594
11050SOL    HW245129   0.863   8.067   9.180  0.9439 -2.2693 -2.1301
11051SOL     OW45130   2.861   9.312   9.241 -0.0290 -0.4461  0.0745
11051SOL    HW145131   2.872   9.224   9.205  0.4996 -1.0104  1.5428
11051SOL    HW245132   2.886   9.370   9.169 -1.8436 -1.4235 -1.4310
11052SOL     OW45133   6.665   4.488   5.850  0.2342  0.4452  0.1029
11052SOL    HW145134   6.760   4.489   5.866  0.1975  0.5634  0.3095
11052SOL    HW245135   6.638   4.398   5.869  0.2385  0.5108  0.4231
11053SOL     OW45136   1.535   4.642   6.942  0.0732  0.3120  0.0072
11053SOL    HW145137   1.625   4.612   6.931  0.0300  0.2454 -0.1735
11053SOL    HW245138   1.516   4.692   6.863  0.8613  2.7017  1.2469
11054SOL     OW45139   2.950   6.455   6.197 -0.4127 -0.2889  0.6783
11054SOL    HW145140   2.929   6.362   6.198 -0.6189 -0.2489  1.7999
11054SOL    HW245141   2.956   6.479   6.290  0.3538  0.6548  0.3986
11055SOL     OW45142   2.512   9.276   2.549  0.1882  0.0827 -0.3322
11055SOL    HW145143   2.478   9.235   2.628  1.2310  1.1772  0.7282
11055SOL    HW245144   2.532   9.203   2.490 -1.1904 -0.7089  0.1410
11056SOL     OW45145  10.196   2.092   5.712 -0.3403 -0.1956  0.0046
11056SOL    HW145146  10.240   2.043   5.643  0.3843  1.8932 -1.1076
11056SOL    HW245147  10.204   2.184   5.686 -2.3299  0.5133  1.5580
11057SOL     OW45148   8.976   7.430   8.458  0.1189  0.4282  0.2406
11057SOL    HW145149   8.925   7.402   8.382  0.1007  1.1793 -0.0368
11057SOL    HW245150   9.049   7.481   8.420 -0.6330  1.9607  0.7626
11058SOL     OW45151   7.995   4.360   0.449 -0.5144  0.0190 -0.0640
11058SOL    HW145152   8.000   4.440   0.501  1.5635 -0.8922  1.2640
11058SOL    HW245153   8.004   4.289   0.513 -0.1083 -1.2165 -1.4389
11059SOL     OW45154   9.618   5.220   5.192 -0.3138  0.7696  0.0743
11059SOL    HW145155   9.602   5.136   5.234 -1.4540  1.0843  0.2850
11059SOL    HW245156   9.588   5.208   5.102  0.4832  0.6434 -0.1843
11060SOL     OW45157   6.792   4.078   8.168  0.7961  0.2000  0.7045
11060SOL    HW145158   6.822   4.067   8.078  1.6348 -1.7311  1.1577
11060SOL    HW245159   6.696   4.080   8.162  0.8579  1.8843 -0.3508
11061SOL     OW45160   8.639   9.567   2.092  0.0787  0.3572  0.6606
11061SOL    HW145161   8.679   9.483   2.069  2.4248  1.1206  1.7190
11061SOL    HW245162   8.569   9.544   2.153  1.1456 -0.8134  1.4879
11062SOL     OW45163   7.424  10.292   9.187 -0.2258 -0.1571 -0.5091
11062SOL    HW145164   7.469  10.375   9.173 -1.1764  0.4105 -0.2878
11062SOL    HW245165   7.364  10.284   9.113 -0.7447 -0.2231 -0.0872
11063SOL     OW45166   9.042   0.140   4.679 -0.0118 -0.4430  0.4445
11063SOL    HW145167   9.071   0.089   4.604 -0.4061  2.1460 -1.5964
11063SOL    HW245168   9.123   0.171   4.720  0.3229  1.8007 -1.6765
11064SOL     OW45169   2.856   0.465   3.689  0.3658 -0.1348 -0.5485
11064SOL    HW145170   2.776   0.415   3.704 -0.5675  1.3561 -0.3513
11064SOL    HW245171   2.882   0.495   3.776  2.8488 -2.9593 -0.1271
11065SOL     OW45172   3.361   6.730   5.178  0.3593  0.5954  0.0781
11065SOL    HW145173   3.327   6.801   5.230 -0.3556  0.8759 -0.7527
11065SOL    HW245174   3.450   6.716   5.211 -0.3574  0.1642  1.9423
11066SOL     OW45175   5.316   9.682   0.125 -0.8218 -0.6417  0.2435
11066SOL    HW145176   5.272   9.714   0.204 -3.1220 -0.6451 -0.9618
11066SOL    HW245177   5.283   9.738   0.055 -0.9940 -2.3802 -1.1301
11067SOL     OW45178   9.719   5.012   8.153  0.0030  0.2651  0.2157
11067SOL    HW145179   9.681   4.924   8.160  0.7579 -0.1747 -0.9644
11067SOL    HW245180   9.644   5.071   8.153 -0.5239 -0.3938  0.7119
11068SOL     OW45181  10.152   7.003   0.269 -0.4123 -0.5074  0.0874
11068SOL    HW145182  10.193   7.055   0.200 -0.6289 -2.0913 -1.3213
11068SOL    HW245183  10.068   7.046   0.284  1.2274  2.2524  2.3769
11069SOL     OW45184   2.727   6.319   5.028  0.0940 -0.4797  0.1077
11069SOL    HW145185   2.703   6.255   5.095 -0.5796 -0.7934 -0.4288
11069SOL    HW245186   2.662   6.388   5.036  0.0340 -0.5015 -0.2072
11070SOL     OW45187   7.431   1.657   3.420 -0.1091 -0.3400 -0.3189
11070SOL    HW145188   7.520   1.688   3.438 -0.0970 -0.6514  0.1840
11070SOL    HW245189   7.441   1.563   3.405 -0.7212 -1.1106  3.1325
11071SOL     OW45190   6.878   6.819  10.208 -0.0740  0.5317 -0.2332
11071SOL    HW145191   6.825   6.893  10.179 -0.7637 -0.2107 -0.9086
11071SOL    HW245192   6.823   6.772  10.270  0.2653  0.4351  0.0024
11072SOL     OW45193   0.412   4.373   7.541  0.5348 -0.2031  0.0931
11072SOL    HW145194   0.433   4.450   7.488 -0.7498  0.6009  0.6857
11072SOL    HW245195   0.430   4.401   7.631 -1.9351  0.2273  0.5420
11073SOL     OW45196   0.168   9.205   7.592 -0.1040  0.1776 -0.4861
11073SOL    HW145197   0.119   9.152   7.529 -1.2947 -0.4670  0.9272
11073SOL    HW245198   0.157   9.159   7.675  0.8734  1.3656  0.3307
11074SOL     OW45199   7.561   4.113   8.061  0.0411  0.1587  0.1551
11074SOL    HW145200   7.521   4.200   8.067 -0.7333 -0.0157 -2.0089
11074SOL    HW245201   7.494   4.054   8.096  0.1077  0.2878  0.5138
11075SOL     OW45202   4.465   7.954   5.956  0.4088 -0.2477  0.2937
11075SOL    HW145203   4.370   7.942   5.956  0.2517  0.8698 -0.0760
11075SOL    HW245204   4.493   7.920   5.871  0.1414  0.6924 -0.1903
11076SOL     OW45205   5.339  10.357   0.773  0.2906  0.5403  0.0282
11076SOL    HW145206   5.293  10.433   0.807  1.1074  1.5383 -1.0315
11076SOL    HW245207   5.300  10.283   0.820 -0.8319  1.5484  0.7540
11077SOL     OW45208   6.281   0.104   9.924 -0.1258  0.0701 -0.6027
11077SOL    HW145209   6.375   0.085   9.928 -0.1809 -0.6992 -2.1941
11077SOL    HW245210   6.264   0.121   9.832 -1.6946 -0.5617 -0.4569
11078SOL     OW45211   7.738   2.716   6.951  0.2338  0.2761  0.0794
11078SOL    HW145212   7.795   2.792   6.952 -0.2182  0.6180  0.7312
11078SOL    HW245213   7.651   2.750   6.971  0.0730 -0.4420  0.6595
11079SOL     OW45214   5.167   6.391   2.535 -0.2600  0.3876  0.1167
11079SOL    HW145215   5.248   6.385   2.585  0.1005  0.2462 -0.4777
11079SOL    HW245216   5.119   6.311   2.557 -1.0591  1.2645  1.8400
11080SOL     OW45217   4.291   3.072   5.176 -0.0855  0.4305 -0.2607
11080SOL    HW145218   4.207   3.089   5.132 -1.1939 -0.4096  1.4145
11080SOL    HW245219   4.266   3.039   5.262  1.9756  2.1655  1.0952
11081SOL     OW45220   4.161   0.281   3.545 -0.1891  0.0093 -0.3093
11081SOL    HW145221   4.222   0.333   3.598 -0.6124  0.0596  0.1397
11081SOL    HW245222   4.151   0.331   3.464  0.3763 -0.0067 -0.3925
11082SOL     OW45223   3.041   0.271   4.449  0.1540 -0.7227 -0.4704
11082SOL    HW145224   3.118   0.315   4.486 -0.6718  0.5310 -0.2186
11082SOL    HW245225   3.034   0.190   4.500 -1.0901  1.0575  2.4424
11083SOL     OW45226   0.443   2.701   9.304  0.2963 -0.1548 -0.2700
11083SOL    HW145227   0.464   2.607   9.302 -0.0048 -0.3438  2.0651
11083SOL    HW245228   0.433   2.725   9.212 -0.0674 -2.5235 -0.9346
11084SOL     OW45229   1.038   9.056   8.693 -0.3039 -1.2271  0.0730
11084SOL    HW145230   1.095   9.027   8.622  0.0730  2.1301 -1.1824
11084SOL    HW245231   1.096   9.070   8.767  0.6136  1.7191 -1.0610
11085SOL     OW45232   6.477  10.118   7.741  0.0024  0.0007  0.1273
11085SOL    HW145233   6.537  10.190   7.721  1.0817 -0.6915  0.8086
11085SOL    HW245234   6.532  10.040   7.742 -1.3590 -1.0641 -1.8627
11086SOL     OW45235   6.530   4.938   2.149 -0.1135 -0.3569  0.1273
11086SOL    HW145236   6.534   5.021   2.102  0.3367 -1.0290 -1.0507
11086SOL    HW245237   6.583   4.877   2.097  1.5605 -0.8009  2.1837
11087SOL     OW45238   4.220   3.976   8.163  0.1221 -0.6524 -0.2062
11087SOL    HW145239   4.292   4.037   8.175  0.6420 -0.9393 -1.6889
11087SOL    HW245240   4.218   3.924   8.244 -0.9271  1.8694  1.5132
11088SOL     OW45241   4.824   3.570   9.950  0.1888  0.3196 -0.6054
11088SOL    HW145242   4.829   3.644  10.010 -0.0166 -1.3782  1.6331
11088SOL    HW245243   4.753   3.592   9.890 -0.7348  1.3972  0.8256
11089SOL     OW45244   6.739   9.911   9.236  0.4846  0.5136 -0.4891
11089SOL    HW145245   6.711   9.868   9.155 -1.9552 -1.0933  1.0831
11089SOL    HW245246   6.807   9.854   9.271  0.6818  0.5642 -0.7813
11090SOL     OW45247   2.829   1.018   2.254  0.6512  0.2431  0.2353
11090SOL    HW145248   2.896   0.985   2.195  0.9121 -0.0357  0.6848
11090SOL    HW245249   2.773   0.943   2.273  0.6597  0.2936  0.4660
11091SOL     OW45250   5.292   5.952   2.113  0.1354  0.6647 -0.1790
11091SOL    HW145251   5.206   5.932   2.076 -0.7313  1.9093  1.0329
11091SOL    HW245252   5.347   5.877   2.090 -1.1735  0.0027 -1.2752
11092SOL     OW45253   5.998   5.111   3.018 -0.1656  0.1571  0.0844
11092SOL    HW145254   6.047   5.104   2.936 -1.1200  0.0071 -0.4926
11092SOL    HW245255   6.055   5.161   3.076  0.7007 -0.0949 -0.5282
11093SOL     OW45256   7.335   7.342   3.024  0.6076  0.2671 -0.3597
11093SOL    HW145257   7.367   7.396   3.097 -1.5177 -0.3722  1.1442
11093SOL    HW245258   7.392   7.265   3.025 -0.1994 -0.3785  1.5858
11094SOL     OW45259   0.647   9.562   9.773  0.5212 -0.6747  0.0413
11094SOL    HW145260   0.644   9.654   9.746  0.6266 -1.3301 -2.4448
11094SOL    HW245261   0.559   9.529   9.757  0.4112 -0.9710  1.1680
11095SOL     OW45262   2.667   8.753   1.931  0.4761  0.5904  0.0464
11095SOL    HW145263   2.653   8.764   2.025  1.8982 -0.0182  0.3617
11095SOL    HW245264   2.706   8.666   1.923 -1.6187 -0.2937 -1.3462
11096SOL     OW45265   1.516   9.186   2.070 -0.6155  0.0495  0.4570
11096SOL    HW145266   1.578   9.124   2.030 -0.9556 -0.3867  0.5944
11096SOL    HW245267   1.478   9.137   2.143 -1.1077  0.3257  0.3871
11097SOL     OW45268   9.686   9.379   2.972 -0.3216 -0.6019  0.0745
11097SOL    HW145269   9.683   9.411   2.882  1.4662 -0.7300 -0.0500
11097SOL    HW245270   9.595   9.355   2.991 -1.0294  0.9376 -1.1227
11098SOL     OW45271   3.968   6.391   0.567  0.2039 -0.4790  0.6312
11098SOL    HW145272   3.965   6.312   0.621  0.6903 -1.1634 -0.3034
11098SOL    HW245273   4.003   6.459   0.625  0.4559 -1.1311  1.2540
11099SOL     OW45274   9.060   7.748  10.225  0.3639  0.4046  0.2061
11099SOL    HW145275   9.041   7.697  10.303  1.6395 -3.4242 -1.6999
11099SOL    HW245276   9.139   7.798  10.247  1.5130 -1.6728  1.0191
11100SOL     OW45277   2.641   5.290   9.164  0.0246  0.2213  0.0616
11100SOL    HW145278   2.584   5.232   9.214 -1.2093  0.8087 -0.6295
11100SOL    HW245279   2.621   5.377   9.196  0.3535  0.4573 -0.3651
11101SOL     OW45280   4.026   1.091   0.793  0.1915 -0.2448  0.8019
11101SOL    HW145281   4.015   1.006   0.750  2.2909 -0.7090  1.0595
11101SOL    HW245282   4.004   1.074   0.885  0.9802 -0.6273  0.9272
11102SOL     OW45283   8.455   1.995   3.416 -0.2192 -0.3583  0.4852
11102SOL    HW145284   8.540   1.955   3.398 -0.7168 -1.0834 -0.3483
11102SOL    HW245285   8.475   2.086   3.439  0.6585  0.1297 -1.9356
11103SOL     OW45286   4.846   5.448   4.990 -0.0505  0.1918  0.2022
11103SOL    HW145287   4.851   5.446   4.894 -0.0208 -0.4324  0.2150
11103SOL    HW245288   4.855   5.541   5.012  1.5597  0.1913 -0.3194
11104SOL     OW45289   1.374   1.880   9.502 -0.0370  0.2245  0.6277
11104SOL    HW145290   1.360   1.847   9.413 -1.3607  2.9207 -0.2709
11104SOL    HW245291   1.314   1.828   9.556 -1.5230  0.5619 -0.6015
11105SOL     OW45292   9.006   0.540   7.334  0.3124  0.4814  0.3179
11105SOL    HW145293   9.027   0.633   7.340  0.4314  0.4627  0.1976
11105SOL    HW245294   8.924   0.537   7.285 -0.0973  0.5691  0.9866
11106SOL     OW45295   9.755   7.215   5.976 -0.1772  0.3719 -0.4486
11106SOL    HW145296   9.779   7.137   6.026 -1.5045 -0.1815 -0.6481
11106SOL    HW245297   9.803   7.207   5.894  0.1343  0.0617 -0.2388
11107SOL     OW45298   9.024   0.233   2.517 -0.4310  0.2929  0.0691
11107SOL    HW145299   9.007   0.271   2.430  0.7447 -1.1558 -0.8266
11107SOL    HW245300   9.072   0.301   2.564 -0.1803  0.7109 -0.7752
11108SOL     OW45301   2.750  10.139   1.340  0.7987 -0.1385 -0.2899
11108SOL    HW145302   2.774  10.230   1.321 -0.1528 -0.2675 -2.3370
11108SOL    HW245303   2.665  10.127   1.298  0.9745 -2.0133 -0.1952
11109SOL     OW45304   7.426   8.076   9.592 -0.7256  0.1843 -0.2764
11109SOL    HW145305   7.396   7.987   9.614  1.6891 -0.9738 -1.2681
11109SOL    HW245306   7.496   8.093   9.655 -0.2008  0.7756 -1.0063
11110SOL     OW45307   0.257   0.573   4.006  0.4575  0.0830  0.8215
11110SOL    HW145308   0.176   0.558   4.054 -0.0629  0.5980  0.1085
11110SOL    HW245309   0.293   0.653   4.044  0.5021 -0.0047  0.9639
11111SOL     OW45310   1.592   9.398   5.925 -0.7289 -0.1527  0.2681
11111SOL    HW145311   1.605   9.449   5.845  2.3103  2.6099  2.2690
11111SOL    HW245312   1.674   9.351   5.937 -0.3044  1.0473  2.6706
11112SOL     OW45313   0.750   0.598   4.856 -0.3711 -0.0026  0.3772
11112SOL    HW145314   0.659   0.596   4.827 -0.3224 -3.6365 -0.0375
11112SOL    HW245315   0.800   0.575   4.777  0.9608  1.8433  0.6231
11113SOL     OW45316   5.381   4.724   6.180 -0.0427 -0.1346 -0.4932
11113SOL    HW145317   5.352   4.764   6.098 -2.3418 -1.6191 -0.4819
11113SOL    HW245318   5.452   4.665   6.153 -0.2434 -0.0225 -1.3043
11114SOL     OW45319   5.864   9.572   1.944 -0.1801  0.3867  0.7958
11114SOL    HW145320   5.851   9.667   1.946 -1.6416  0.3389 -1.6068
11114SOL    HW245321   5.775   9.536   1.936  0.4039 -0.7552 -3.7767
11115SOL     OW45322   5.288   3.466   4.703  0.4361 -0.2568  0.6032
11115SOL    HW145323   5.213   3.507   4.745 -0.3446 -1.5701  0.5264
11115SOL    HW245324   5.298   3.382   4.746  1.4052 -0.4230  0.0998
11116SOL     OW45325   6.781   9.545   4.565  0.1822 -0.3293  0.2629
11116SOL    HW145326   6.842   9.518   4.634  1.1528 -0.3105 -0.5695
11116SOL    HW245327   6.717   9.473   4.561  0.8091 -0.9055  0.3656
11117SOL     OW45328   4.155   4.902   2.273  0.1508  0.0019  0.2992
11117SOL    HW145329   4.137   4.935   2.361 -0.3745 -0.2815  0.3016
11117SOL    HW245330   4.248   4.882   2.273  0.7055  2.2662  0.0497
11118SOL     OW45331   6.460   7.764   4.017 -0.0579  0.0650  0.4045
11118SOL    HW145332   6.509   7.686   4.041  0.9748  0.7977  0.7296
11118SOL    HW245333   6.520   7.837   4.033  0.0460  0.7821 -2.5137
11119SOL     OW45334   8.369   6.711   7.027  0.1059 -0.1779  0.0707
11119SOL    HW145335   8.443   6.739   6.972 -0.0804  0.0762 -0.0484
11119SOL    HW245336   8.327   6.792   7.054 -1.1834 -0.3512 -1.2876
11120SOL     OW45337   9.810   7.595   1.299 -0.4986 -0.3999  0.2321
11120SOL    HW145338   9.843   7.535   1.366 -0.9658  0.5215  1.3214
11120SOL    HW245339   9.753   7.655   1.347 -1.1901  0.0266 -1.0744
11121SOL     OW45340   4.296   5.985   5.308 -0.0068 -0.2686  0.0957
11121SOL    HW145341   4.211   5.969   5.349 -1.5054  0.4079 -2.4884
11121SOL    HW245342   4.308   5.912   5.247 -0.5897  1.4392 -2.2065
11122SOL     OW45343   7.220   5.582   5.971 -0.0033  0.0302 -0.2682
11122SOL    HW145344   7.133   5.547   5.991 -0.5598  0.6440 -1.4972
11122SOL    HW245345   7.209   5.625   5.886  1.7188 -0.6739 -0.8835
11123SOL     OW45346   6.313   8.116   3.996  0.0359  0.0395  0.0886
11123SOL    HW145347   6.367   8.183   4.038 -0.5318  0.5207  0.0697
11123SOL    HW245348   6.275   8.160   3.919  1.2376 -0.8867 -1.0861
11124SOL     OW45349   1.130   1.843  10.325  0.2145 -0.2430 -0.0624
11124SOL    HW145350   1.085   1.801  10.398  0.9517 -1.4260 -0.2655
11124SOL    HW245351   1.092   1.804  10.247  1.4413 -1.1428 -0.2419
11125SOL     OW45352   9.901   7.151   5.749  0.2039  0.4639  0.3001
11125SOL    HW145353   9.988   7.188   5.731  0.1190  0.6488  0.2656
11125SOL    HW245354   9.851   7.170   5.669  0.6138 -1.1297 -0.3779
11126SOL     OW45355   5.622   4.442   9.600 -0.0418 -0.4986  0.2917
11126SOL    HW145356   5.664   4.436   9.514  0.3333 -0.6267  0.4836
11126SOL    HW245357   5.533   4.473   9.580  0.4205  0.6762 -0.0304
11127SOL     OW45358   1.572   1.403  10.275  0.3423 -0.1769 -0.1171
11127SOL    HW145359   1.577   1.421  10.368  0.4316 -1.1838  0.0883
11127SOL    HW245360   1.653   1.439  10.238  0.8402 -0.7642  0.3801
11128SOL     OW45361   2.295   2.291   9.334 -0.5157 -0.1031  0.1869
11128SOL    HW145362   2.348   2.273   9.256 -1.6237  0.4298 -0.7231
11128SOL    HW245363   2.355   2.336   9.394  0.4100 -0.7015 -0.2651
11129SOL     OW45364  10.306   1.016   6.835  0.5180 -0.2985  0.1502
11129SOL    HW145365  10.234   1.064   6.793  0.6514 -0.3888 -0.1921
11129SOL    HW245366  10.284   0.924   6.821  0.9498 -0.3281 -0.4107
11130SOL     OW45367   8.606   7.663   5.598  0.2977  0.1506  0.0025
11130SOL    HW145368   8.580   7.713   5.676  1.1705 -0.0694  0.4463
11130SOL    HW245369   8.614   7.573   5.629  1.6600  0.2252 -0.0962
11131SOL     OW45370   3.274   7.723   8.930 -0.8249  0.4494 -0.6647
11131SOL    HW145371   3.229   7.708   9.014 -1.4721 -0.4075 -1.1387
11131SOL    HW245372   3.255   7.644   8.879  0.7493  0.3270 -1.1112
11132SOL     OW45373   9.635   4.761   1.533 -0.1986  0.2309  0.1546
11132SOL    HW145374   9.686   4.686   1.500 -1.9529 -1.3695  0.8468
11132SOL    HW245375   9.687   4.837   1.511  0.5692 -0.9966 -2.8594
11133SOL     OW45376   6.439   8.110  10.090 -0.2152  0.1067  0.2874
11133SOL    HW145377   6.449   8.018  10.114 -0.6362  0.5413  2.3342
11133SOL    HW245378   6.528   8.146  10.095  0.2028 -0.4430 -1.9696
11134SOL     OW45379   1.326   3.010   5.606  0.2958  0.2341  0.3435
11134SOL    HW145380   1.341   3.088   5.553  0.2618  0.2391  0.3417
11134SOL    HW245381   1.239   3.022   5.643  0.2871  0.1932  0.3366
11135SOL     OW45382   7.707   3.373   9.532 -0.3642  0.4712 -0.4547
11135SOL    HW145383   7.731   3.422   9.453  1.3550 -0.3583 -0.5050
11135SOL    HW245384   7.776   3.307   9.541 -0.9177  0.0723  1.3367
11136SOL     OW45385   8.697   5.304   6.768  0.1163 -0.5860  0.5199
11136SOL    HW145386   8.697   5.309   6.864  0.6263 -1.2176  0.5624
11136SOL    HW245387   8.737   5.219   6.749  0.2958 -0.3321 -0.2607
11137SOL     OW45388   1.617   9.491   1.548  0.2911 -0.3098  0.3306
11137SOL    HW145389   1.597   9.584   1.537 -2.5414 -0.9582 -0.7471
11137SOL    HW245390   1.589   9.471   1.638 -2.3218 -0.7435 -0.4892
11138SOL     OW45391   3.781   5.511   2.352 -0.2200  0.0739 -0.0559
11138SOL    HW145392   3.750   5.435   2.402 -0.3566 -0.7126 -1.2770
11138SOL    HW245393   3.859   5.541   2.399 -0.1518 -0.8388  0.4399
11139SOL     OW45394   0.424   9.449   9.682 -0.3256 -0.1442 -0.4034
11139SOL    HW145395   0.455   9.359   9.678 -1.7146 -0.6694  0.0560
11139SOL    HW245396   0.389   9.467   9.595 -0.0167 -0.0329 -0.5053
11140SOL     OW45397   1.666   9.262   0.807 -0.0076 -0.8637  0.3972
11140SOL    HW145398   1.681   9.259   0.902 -1.0836  2.4145  0.7921
11140SOL    HW245399   1.611   9.186   0.790  0.6659 -1.8543  2.2725
11141SOL     OW45400   3.763   6.263   9.258 -0.1423 -0.2254 -0.1155
11141SOL    HW145401   3.845   6.214   9.247 -0.4454 -1.0525  1.0569
11141SOL    HW245402   3.781   6.323   9.331 -0.5455 -0.3514  0.0918
11142SOL     OW45403   4.221   7.052   4.004  0.6669  0.5113 -0.0584
11142SOL    HW145404   4.287   7.086   4.064  0.9673  1.4225 -0.8777
11142SOL    HW245405   4.158   7.124   3.995  1.8119  1.3105 -2.5658
11143SOL     OW45406   1.329   1.550   0.394  0.1291 -0.2575  0.5527
11143SOL    HW145407   1.304   1.547   0.486  1.8085 -0.4131  1.0193
11143SOL    HW245408   1.248   1.526   0.347 -1.6202  2.7304  1.7675
11144SOL     OW45409   9.849   7.752   0.086 -0.0489 -0.6537  0.1165
11144SOL    HW145410   9.878   7.671   0.128 -0.4193 -0.9304 -0.1512
11144SOL    HW245411   9.754   7.755   0.101 -0.1841 -0.7405 -0.6538
11145SOL     OW45412   6.894  10.151   9.242 -0.1202 -0.6936  0.2021
11145SOL    HW145413   6.843  10.072   9.224 -0.5718 -0.5691  0.8941
11145SOL    HW245414   6.952  10.126   9.315 -0.7456 -0.2036  0.8888
11146SOL     OW45415   5.989  10.196   3.560  0.5464 -0.5740 -0.8304
11146SOL    HW145416   5.971  10.278   3.514 -3.0781 -0.1948  0.9023
11146SOL    HW245417   6.002  10.131   3.491 -0.1852  0.7743 -2.3015
11147SOL     OW45418   2.178   8.605   2.782 -0.0192  0.3115  0.2090
11147SOL    HW145419   2.100   8.568   2.823 -0.6523  0.4292 -0.8687
11147SOL    HW245420   2.203   8.542   2.715  1.5589 -0.3362  1.3258
11148SOL     OW45421   6.078   7.346   8.798 -0.4321 -0.0142  0.1997
11148SOL    HW145422   6.114   7.302   8.875 -0.9312  0.8349  0.9418
11148SOL    HW245423   5.990   7.310   8.788 -0.0212 -0.8459 -0.5913
11149SOL     OW45424   5.027   1.811   6.946 -0.5822  0.2959 -0.3097
11149SOL    HW145425   5.100   1.796   7.006  0.3861 -1.2274 -1.7631
11149SOL    HW245426   4.966   1.739   6.964 -0.6304  0.2493 -0.6487
11150SOL     OW45427   5.155   5.610   9.579 -0.0529  0.0319  0.1734
11150SOL    HW145428   5.061   5.601   9.597  0.0400 -0.6780  0.3454
11150SOL    HW245429   5.189   5.521   9.588  0.8506  0.4744  1.2822
11151SOL     OW45430   1.682   8.424   6.325 -0.0539 -0.2529  0.2058
11151SOL    HW145431   1.685   8.388   6.236  1.9929 -2.7750  1.1694
11151SOL    HW245432   1.681   8.519   6.312  1.0142 -0.5222 -2.5442
11152SOL     OW45433   9.573   4.778   8.648  0.5751 -0.7056  0.3799
11152SOL    HW145434   9.520   4.796   8.725  0.7772 -2.1040  0.8885
11152SOL    HW245435   9.510   4.753   8.580  0.1085  3.3707 -0.9318
11153SOL     OW45436   3.240   7.932   4.493 -0.8648 -0.1833 -0.5716
11153SOL    HW145437   3.167   7.993   4.499 -0.7072 -0.1047  0.8360
11153SOL    HW245438   3.259   7.908   4.584  1.1784  0.1726 -0.8588
11154SOL     OW45439   8.958   3.639   2.341 -0.3741  0.3667 -0.1547
11154SOL    HW145440   8.881   3.658   2.288 -0.4719 -0.5174 -0.3543
11154SOL    HW245441   8.925   3.629   2.430 -0.7936 -1.7561 -0.5041
11155SOL     OW45442   1.176   2.615   9.628  0.0244 -0.3010  0.1553
11155SOL    HW145443   1.142   2.592   9.542  0.9915 -0.1720 -0.2820
11155SOL    HW245444   1.169   2.710   9.633  0.7736 -0.2248 -0.1458
11156SOL     OW45445   2.556   8.891   9.987  0.1809  0.0928  0.0120
11156SOL    HW145446   2.549   8.955  10.057 -0.8369 -1.2134  1.1728
11156SOL    HW245447   2.638   8.844  10.005 -0.8482 -1.2848  1.3060
11157SOL     OW45448   3.557   0.218   3.045 -0.3183  0.2691  0.1660
11157SOL    HW145449   3.488   0.156   3.023  0.7425 -0.5315 -1.0646
11157SOL    HW245450   3.590   0.249   2.961  0.8186  0.6174  0.7161
11158SOL     OW45451   2.473   7.353   2.891 -0.0987 -0.1990  0.8394
11158SOL    HW145452   2.451   7.444   2.872  0.0143 -0.4454 -0.5694
11158SOL    HW245453   2.564   7.356   2.921  1.1388 -0.1248 -2.4658
11159SOL     OW45454   4.633   6.405   3.049 -0.2321 -0.1566 -0.2737
11159SOL    HW145455   4.571   6.380   3.118 -0.9867  1.2630 -0.4112
11159SOL    HW245456   4.642   6.325   2.996 -2.8235 -0.1293 -0.9045
11160SOL     OW45457   0.307   4.031   4.870 -0.1631  0.7267 -1.0829
11160SOL    HW145458   0.247   4.067   4.935  1.3819  0.3367  0.6559
11160SOL    HW245459   0.319   4.101   4.806 -0.7196  1.6149 -0.2353
11161SOL     OW45460   1.421   0.201   6.100  0.4203  0.4137  0.0852
11161SOL    HW145461   1.501   0.149   6.101  0.1990  0.0695  0.3037
11161SOL    HW245462   1.370   0.167   6.027  0.2099  0.2143  0.3193
11162SOL     OW45463   6.582   1.129   8.278  0.3604  0.2569  0.0396
11162SOL    HW145464   6.657   1.083   8.241  1.0035  0.0700  1.5347
11162SOL    HW245465   6.577   1.099   8.368 -1.9248 -0.2495 -0.1999
11163SOL     OW45466   3.966   3.888   8.739 -0.3434 -0.2216 -0.7264
11163SOL    HW145467   3.900   3.871   8.807  1.1924 -0.8184  0.6747
11163SOL    HW245468   3.921   3.944   8.676 -0.9759  3.1183  2.3630
11164SOL     OW45469   0.334   5.825   3.253 -0.2795 -0.4251 -0.5493
11164SOL    HW145470   0.371   5.905   3.217 -0.5021 -0.5178 -0.9966
11164SOL    HW245471   0.399   5.794   3.316 -1.1979  1.3159  1.3435
11165SOL     OW45472   2.054   0.392   4.815  0.3133  0.5448  0.2998
11165SOL    HW145473   2.078   0.425   4.902 -1.3880  1.2365  0.5482
11165SOL    HW245474   2.081   0.301   4.816  3.3365  1.3256  0.3308
11166SOL     OW45475   0.261  10.320   6.729 -0.3779  0.0446  0.3909
11166SOL    HW145476   0.219  10.238   6.754 -2.4002  0.9110  0.0297
11166SOL    HW245477   0.197  10.364   6.672  1.8328  0.5632 -1.9093
11167SOL     OW45478   1.461   6.008   2.905  0.0102 -0.2341  0.3406
11167SOL    HW145479   1.526   5.944   2.877 -1.3853 -0.9568 -1.4832
11167SOL    HW245480   1.376   5.964   2.890 -0.9370  0.6965  2.5324
11168SOL     OW45481   6.597   9.841   7.569  0.3922 -0.4511  0.0883
11168SOL    HW145482   6.658   9.903   7.609  0.1660  0.6063 -1.1600
11168SOL    HW245483   6.653   9.776   7.526  0.6641  0.3928 -0.8657
11169SOL     OW45484   1.712   1.581   6.876  0.7422  0.0881 -0.2451
11169SOL    HW145485   1.694   1.488   6.887 -0.5091  0.1773 -1.2543
11169SOL    HW245486   1.652   1.625   6.935  0.7239  0.2809 -0.4039
11170SOL     OW45487   4.767   3.945   6.008 -0.1191  0.2308  0.2706
11170SOL    HW145488   4.742   4.011   6.072 -1.1884  0.5751 -0.4873
11170SOL    HW245489   4.728   3.864   6.040  2.2541 -0.3766  1.8943
11171SOL     OW45490   0.300   7.887   9.970 -0.0204 -0.1005 -0.3377
11171SOL    HW145491   0.257   7.918   9.890 -0.9761  0.8230  0.5085
11171SOL    HW245492   0.388   7.924   9.965 -0.3600  0.6905 -0.5345
11172SOL     OW45493  10.286   0.472   7.269  0.3590  0.2745  0.7327
11172SOL    HW145494  10.201   0.516   7.276  1.4939  3.3236 -2.0180
11172SOL    HW245495  10.286   0.432   7.182  1.5093 -0.2778  0.9633
11173SOL     OW45496   5.440   8.786   0.850 -0.3204 -0.5487 -0.4667
11173SOL    HW145497   5.426   8.876   0.879 -1.1293 -0.4638 -1.1022
11173SOL    HW245498   5.352   8.753   0.831 -0.1137 -1.7243  0.4919
11174SOL     OW45499   5.476   3.842   8.465 -0.0971 -0.0026  0.1607
11174SOL    HW145500   5.501   3.912   8.404 -0.5168  0.5842  0.6542
11174SOL    HW245501   5.524   3.765   8.433 -0.2963  0.2912 -0.9062
11175SOL     OW45502   0.899   2.188   6.745  0.5331  0.9266 -0.4075
11175SOL    HW145503   0.865   2.173   6.833  0.5625  2.0152 -0.2057
11175SOL    HW245504   0.958   2.114   6.730 -0.8343 -0.2378 -0.2310
11176SOL     OW45505   2.049   7.009   5.392 -0.0951 -0.6962 -0.2220
11176SOL    HW145506   2.096   6.989   5.311 -1.3913 -4.3368 -0.2556
11176SOL    HW245507   2.080   6.944   5.454 -2.2864 -0.7443  0.8896
11177SOL     OW45508   3.951   3.715   3.806  0.1959  0.8404 -0.1134
11177SOL    HW145509   3.952   3.671   3.891 -0.7506  1.2296  0.1211
11177SOL    HW245510   4.037   3.697   3.768  0.3205 -0.0486  0.5564
11178SOL     OW45511   0.261   9.911   1.907  0.0904  0.3363 -0.4100
11178SOL    HW145512   0.207   9.861   1.846 -0.5708 -0.0954  0.5044
11178SOL    HW245513   0.318   9.964   1.851 -1.3779  0.9247 -1.4116
11179SOL     OW45514   7.593   5.141   3.755  0.1069 -0.0076  0.7516
11179SOL    HW145515   7.548   5.065   3.791  0.8851  0.1819  2.1774
11179SOL    HW245516   7.523   5.206   3.745 -0.1675 -0.1123  1.8205
11180SOL     OW45517   4.391   2.362   4.454 -0.4080  0.0517 -0.4607
11180SOL    HW145518   4.354   2.371   4.366  0.4538  0.7775 -0.7645
11180SOL    HW245519   4.319   2.329   4.507 -0.9917 -0.2251 -1.4019
11181SOL     OW45520   2.653   7.635   0.851  0.0429 -0.1564  0.1069
11181SOL    HW145521   2.580   7.675   0.805  0.7254 -0.1552 -1.0289
11181SOL    HW245522   2.678   7.561   0.796  1.0756  0.0180  0.3168
11182SOL     OW45523   0.222   5.923   2.675  0.2677  0.0309  0.1177
11182SOL    HW145524   0.295   5.921   2.614 -0.2779  0.6822 -0.5705
11182SOL    HW245525   0.213   6.016   2.699 -0.9042  0.1078 -0.5280
11183SOL     OW45526   9.342   2.733  10.181  0.7070 -0.3497  0.2046
11183SOL    HW145527   9.355   2.806  10.242  1.6277  1.0704 -1.5926
11183SOL    HW245528   9.357   2.771  10.095 -1.7443 -1.9913 -1.0546
11184SOL     OW45529   9.542   7.242   2.477 -0.1257 -0.3275 -0.2349
11184SOL    HW145530   9.632   7.253   2.445 -0.2013  0.7235 -0.1102
11184SOL    HW245531   9.552   7.236   2.572 -0.2150  0.0388 -0.2043
11185SOL     OW45532   1.018   4.976   0.954 -0.1768  0.2842 -0.1498
11185SOL    HW145533   0.958   5.041   0.989  0.2005 -0.2646  1.6410
11185SOL    HW245534   1.090   4.973   1.017  0.2409 -1.2395 -0.6370
11186SOL     OW45535   0.386   6.491   8.244 -0.0547  0.1461 -0.3389
11186SOL    HW145536   0.432   6.565   8.284 -2.5162  1.1099  0.8450
11186SOL    HW245537   0.446   6.417   8.255  0.9131  1.1761  1.7988
11187SOL     OW45538   3.914   3.358   7.751 -0.4476 -0.1958  0.1591
11187SOL    HW145539   3.847   3.424   7.770  0.4557  0.9492 -0.4993
11187SOL    HW245540   3.873   3.275   7.775 -2.1519  0.4497 -0.3763
11188SOL     OW45541   1.258   2.339   8.216 -0.2279 -0.7414 -0.6974
11188SOL    HW145542   1.209   2.257   8.217 -0.8970 -0.3348 -0.1025
11188SOL    HW245543   1.194   2.407   8.237  0.9930 -0.4380  2.6999
11189SOL     OW45544   6.275   0.419   4.112 -0.3110 -0.3357  0.1942
11189SOL    HW145545   6.244   0.345   4.059 -1.0090 -1.1331  1.6491
11189SOL    HW245546   6.364   0.394   4.138  0.1443  0.1901 -0.8032
11190SOL     OW45547   7.426   3.671   7.936 -0.3465  0.3160 -0.0880
11190SOL    HW145548   7.463   3.711   8.014 -0.1435 -1.0680  0.5500
11190SOL    HW245549   7.471   3.714   7.863  1.0838  0.0695  0.6168
11191SOL     OW45550   1.390   9.516   2.149  0.2544  0.2571 -0.8136
11191SOL    HW145551   1.434   9.432   2.162  1.4889  0.8310 -1.1034
11191SOL    HW245552   1.462   9.580   2.144 -0.7320  1.6122  1.3058
11192SOL     OW45553   4.511   0.157   4.443  0.6494 -0.1239  0.3143
11192SOL    HW145554   4.598   0.122   4.462  0.4046 -0.3394  1.0808
11192SOL    HW245555   4.456   0.079   4.430  1.0648 -0.0267 -2.7592
11193SOL     OW45556   6.902   8.686   0.262  0.2320 -0.1448 -0.1836
11193SOL    HW145557   6.872   8.685   0.171  0.1383  0.3430 -0.1590
11193SOL    HW245558   6.901   8.778   0.287 -0.3670 -0.3308  0.5154
11194SOL     OW45559   1.993   0.570   1.294 -0.0457  0.0242  0.1416
11194SOL    HW145560   1.990   0.595   1.202 -1.3793 -1.6619 -0.3104
11194SOL    HW245561   2.014   0.477   1.294  0.8528  0.1874  1.6014
11195SOL     OW45562   6.662   0.339   5.476  0.2042  0.4353  0.3150
11195SOL    HW145563   6.715   0.281   5.421  1.1417 -0.9705  2.5473
11195SOL    HW245564   6.721   0.410   5.499 -0.1494  0.9572 -0.3615
11196SOL     OW45565   9.636   3.266   2.837 -0.4974  0.0856 -0.1685
11196SOL    HW145566   9.693   3.338   2.813  0.8083 -1.0222 -0.5044
11196SOL    HW245567   9.569   3.264   2.768 -0.2404  0.6273 -0.4404
11197SOL     OW45568   5.947   5.911   1.655  0.6354  0.1779 -0.5045
11197SOL    HW145569   5.936   5.827   1.611 -1.0431  1.1824 -2.1043
11197SOL    HW245570   6.028   5.947   1.618  1.3993 -0.6964  0.2328
11198SOL     OW45571   6.431   7.302   5.375 -0.8933  0.0723  0.0058
11198SOL    HW145572   6.473   7.337   5.296 -0.0988 -2.7838 -0.9701
11198SOL    HW245573   6.408   7.379   5.426 -1.3538  2.0552 -2.9449
11199SOL     OW45574   7.239   8.691   8.789  0.0056 -0.1711  0.0976
11199SOL    HW145575   7.305   8.648   8.735 -0.0441  1.1623 -1.0921
11199SOL    HW245576   7.247   8.784   8.767 -0.8435  0.2666  1.5173
11200SOL     OW45577   9.082   6.656   3.379  0.6374  0.4003  0.0815
11200SOL    HW145578   9.042   6.704   3.306 -1.3620 -1.0000  0.1769
11200SOL    HW245579   9.047   6.697   3.457  0.3295 -0.0670  0.1915
11201SOL     OW45580   6.422   3.669   1.660  0.5059  0.7386 -0.0719
11201SOL    HW145581   6.389   3.621   1.585 -1.5241  0.9263  0.6226
11201SOL    HW245582   6.409   3.611   1.735  0.0752  1.5091  0.4752
11202SOL     OW45583   1.579   0.343   4.951 -1.2649 -0.2643 -0.2207
11202SOL    HW145584   1.563   0.434   4.924  0.5148  0.9355  2.3174
11202SOL    HW245585   1.660   0.319   4.906 -0.4005  0.3434  0.9579
11203SOL     OW45586  10.025   1.303   4.020  0.4010  0.9195  0.0832
11203SOL    HW145587   9.974   1.302   4.101 -1.2229 -0.0220 -0.8897
11203SOL    HW245588  10.064   1.216   4.016 -1.7816 -0.0660 -1.4381
11204SOL     OW45589   5.733   6.057   8.218 -0.1740  0.0221  0.4226
11204SOL    HW145590   5.676   6.105   8.158  0.2490  0.8266  0.6544
11204SOL    HW245591   5.672   6.006   8.272 -0.4959 -2.6205 -2.1942
11205SOL     OW45592   1.811   2.894   5.849  0.1041  0.0713  0.0111
11205SOL    HW145593   1.736   2.838   5.871 -0.0778 -0.8643 -2.6267
11205SOL    HW245594   1.834   2.870   5.760  2.5298  1.5333  0.1412
11206SOL     OW45595   2.399   8.388   0.301  0.1698 -0.1581  0.1796
11206SOL    HW145596   2.458   8.425   0.367 -0.9037  0.8611  0.6079
11206SOL    HW245597   2.312   8.420   0.325 -0.2030  0.7146 -2.0192
11207SOL     OW45598   4.954   9.734   7.503 -0.0315 -0.1232 -0.1437
11207SOL    HW145599   4.858   9.726   7.502  0.0171 -0.7745 -0.7318
11207SOL    HW245600   4.977   9.738   7.595 -0.4261 -2.8325  0.1468
11208SOL     OW45601   5.409   8.088   4.394  0.3991 -0.2710  0.2530
11208SOL    HW145602   5.338   8.037   4.433  0.3247 -0.4108 -0.0642
11208SOL    HW245603   5.368   8.135   4.322  0.1997  1.1852  1.2790
11209SOL     OW45604   2.024   5.435   5.449 -0.5555 -0.2312  0.2677
11209SOL    HW145605   2.109   5.413   5.486  0.2412  1.9013 -0.1515
11209SOL    HW245606   1.994   5.510   5.500 -0.4902  1.3200 -1.8228
11210SOL     OW45607   8.442   2.193   8.977  0.4363  0.0281 -0.3922
11210SOL    HW145608   8.393   2.115   9.004 -2.0453  1.1949 -1.1548
11210SOL    HW245609   8.430   2.197   8.882 -0.1819  1.7165 -0.2813
11211SOL     OW45610   5.993   5.638   2.835 -0.0989 -0.3333 -0.1540
11211SOL    HW145611   6.032   5.605   2.916 -0.3895  0.6745  0.4239
11211SOL    HW245612   6.064   5.684   2.791 -0.2338  0.1754  0.1448
11212SOL     OW45613   6.714   2.074   5.650 -0.8907 -0.1852 -0.4499
11212SOL    HW145614   6.685   2.024   5.726  0.8434 -0.3040  0.1722
11212SOL    HW245615   6.665   2.156   5.655 -3.4677 -1.5724 -1.2499
11213SOL     OW45616   2.424   7.075  10.104 -0.5224  0.0995 -0.4396
11213SOL    HW145617   2.438   7.067  10.198 -1.0400 -1.7252 -0.4849
11213SOL    HW245618   2.487   7.142  10.076 -0.3146  0.6234  1.1754
11214SOL     OW45619   2.021   9.331   9.925 -0.0405 -0.1361  0.0134
11214SOL    HW145620   2.104   9.289   9.948  0.8565  1.6313  0.2212
11214SOL    HW245621   1.956   9.261   9.929  1.0388 -1.0932  2.2205
11215SOL     OW45622   2.141   0.185   9.996 -0.0281 -0.0358 -0.3291
11215SOL    HW145623   2.211   0.124  10.020  0.0173  0.3998  0.7091
11215SOL    HW245624   2.186   0.269   9.985 -0.3475  0.1990  0.1279
11216SOL     OW45625   4.162   5.378   5.717  0.4520  0.1852  0.0510
11216SOL    HW145626   4.087   5.412   5.766 -1.7636 -1.5451 -1.8756
11216SOL    HW245627   4.167   5.286   5.743  1.9180  0.2555  0.0842
11217SOL     OW45628   4.933   1.609   6.189 -0.4404  0.5773  0.5929
11217SOL    HW145629   4.855   1.647   6.147 -1.3137 -0.2248  1.4320
11217SOL    HW245630   4.995   1.682   6.194  0.1950  0.4452 -3.0987
11218SOL     OW45631   3.673   6.382   5.780  0.0361  0.1082 -0.5916
11218SOL    HW145632   3.691   6.391   5.874 -0.7810 -0.7533 -0.3253
11218SOL    HW245633   3.580   6.400   5.772 -0.1561 -1.0160 -1.0432
11219SOL     OW45634   3.687   9.769   6.303 -0.1601 -0.4578  0.1363
11219SOL    HW145635   3.781   9.749   6.295 -0.1864  0.0410 -1.8186
11219SOL    HW245636   3.681   9.862   6.283 -0.9796 -0.2389  1.2890
11220SOL     OW45637   5.615   9.452   7.042  0.4756  0.3219  0.4846
11220SOL    HW145638   5.707   9.451   7.015 -0.2448  1.5637 -2.5220
11220SOL    HW245639   5.596   9.544   7.059 -1.1705  0.9344 -3.4792
11221SOL     OW45640   9.086   9.632   8.645 -0.0461 -0.1075  0.3629
11221SOL    HW145641   9.117   9.600   8.561  1.8422  1.7547  0.2565
11221SOL    HW245642   9.047   9.556   8.687  0.5165 -1.4936 -1.4891
11222SOL     OW45643   0.970   4.587   2.118  0.2768 -0.0227 -0.1360
11222SOL    HW145644   1.061   4.565   2.101  0.2132  0.4948 -1.2658
11222SOL    HW245645   0.974   4.670   2.166  0.4141 -0.1536  0.0746
11223SOL     OW45646   8.153   6.260   8.618  0.5710  0.6069  0.3264
11223SOL    HW145647   8.133   6.245   8.710  0.8280  0.0178  0.2935
11223SOL    HW245648   8.192   6.178   8.589  2.6042  1.5504  0.2634
11224SOL     OW45649   9.403   2.426   6.973 -0.0117 -0.0987 -0.2377
11224SOL    HW145650   9.351   2.346   6.970  0.5229 -0.4876  0.4143
11224SOL    HW245651   9.347   2.493   6.935 -0.8136 -0.6015  0.0342
11225SOL     OW45652   9.960   9.972   6.874  0.0631 -0.4247 -0.0529
11225SOL    HW145653   9.894  10.005   6.813  0.3119 -0.8791 -0.5833
11225SOL    HW245654   9.931  10.002   6.960  1.1811  2.6703 -0.6320
11226SOL     OW45655   0.290   8.019   5.941 -0.2767 -0.4820  0.0825
11226SOL    HW145656   0.364   8.036   5.882 -1.4742  3.4800 -0.5665
11226SOL    HW245657   0.291   8.093   6.002 -3.6127 -0.2797  0.0523
11227SOL     OW45658   1.884  10.105   7.104  0.1476 -0.4197 -0.2590
11227SOL    HW145659   1.926  10.122   7.188 -0.7246 -0.1754  0.1373
11227SOL    HW245660   1.844  10.018   7.114 -2.7409  0.9060  0.7791
11228SOL     OW45661   2.298   0.798   8.069  0.1080 -0.0158  0.5149
11228SOL    HW145662   2.204   0.783   8.059  0.2111  0.1690 -1.1391
11228SOL    HW245663   2.338   0.712   8.054  0.1667 -0.3702  2.5176
11229SOL     OW45664  10.124   1.499   4.775 -0.2018  0.4541 -0.0887
11229SOL    HW145665  10.191   1.492   4.707 -0.1679 -0.3298  0.0160
11229SOL    HW245666  10.094   1.409   4.789 -0.6834  0.6912  0.4607
11230SOL     OW45667   9.934   4.813   2.342 -0.7296  0.4281  0.1385
11230SOL    HW145668   9.970   4.833   2.429  0.1786  0.7105 -0.2909
11230SOL    HW245669   9.929   4.717   2.340 -0.0778  0.3859  0.2464
11231SOL     OW45670   9.615   4.356   6.237 -0.2024 -0.4480 -0.2625
11231SOL    HW145671   9.624   4.393   6.149 -0.2968 -1.1114 -0.5584
11231SOL    HW245672   9.605   4.262   6.222  1.1412 -0.7523  0.5216
11232SOL     OW45673   6.282   2.211   5.581 -0.0232  0.3970  0.2330
11232SOL    HW145674   6.313   2.280   5.522  0.5169 -0.8247 -0.9535
11232SOL    HW245675   6.349   2.207   5.649  0.8832 -0.1280 -0.6517
11233SOL     OW45676   6.138   0.581   2.150 -0.5397  0.3612 -0.0177
11233SOL    HW145677   6.213   0.537   2.189 -0.5015  1.4355  1.1832
11233SOL    HW245678   6.141   0.670   2.185 -1.3811  0.9330 -1.3222
11234SOL     OW45679   9.607   2.688   8.465  0.4472  0.2595  0.9550
11234SOL    HW145680   9.606   2.623   8.394  0.5764 -0.1248  1.3036
11234SOL    HW245681   9.672   2.655   8.527 -0.1533  0.2454  1.5866
11235SOL     OW45682   1.740   8.578   8.629 -0.5798  0.0573  0.1853
11235SOL    HW145683   1.695   8.525   8.695  0.8432 -0.6794  0.5999
11235SOL    HW245684   1.672   8.638   8.597 -2.0581 -1.4860  0.2371
11236SOL     OW45685   5.713   7.144   7.158 -0.4203 -0.4921  0.4586
11236SOL    HW145686   5.808   7.155   7.170  0.0155 -2.3810 -0.8636
11236SOL    HW245687   5.682   7.109   7.241  0.0567 -0.0615  0.8277
11237SOL     OW45688   5.530   6.495   7.780 -0.4225 -0.2880  0.0600
11237SOL    HW145689   5.522   6.426   7.846  1.3498 -0.6565 -0.0602
11237SOL    HW245690   5.548   6.449   7.698  0.0432  0.2661 -0.1595
11238SOL     OW45691   3.583   9.326   6.671  0.3695 -0.0321 -0.0460
11238SOL    HW145692   3.644   9.264   6.712  0.0758 -1.5629 -1.7759
11238SOL    HW245693   3.630   9.410   6.672  2.1707 -0.9866 -0.5378
11239SOL     OW45694   2.910   9.997   4.448 -0.1372 -0.2471  0.0892
11239SOL    HW145695   3.005  10.010   4.437 -0.1709 -0.4380 -0.4959
11239SOL    HW245696   2.876  10.084   4.467  0.2083 -0.2449  0.7105
11240SOL     OW45697   0.105   1.079   7.780  0.2830  0.5978 -0.1616
11240SOL    HW145698   0.169   1.007   7.780  0.1561  0.4869 -0.4129
11240SOL    HW245699   0.099   1.104   7.872 -0.5458 -0.4911  0.1041
11241SOL     OW45700   8.061   9.740   9.395  0.1743  0.3349  0.2266
11241SOL    HW145701   8.065   9.743   9.491 -0.8853  1.9394  0.2612
11241SOL    HW245702   7.992   9.803   9.372  0.5909  0.1727 -1.6076
11242SOL     OW45703   1.209   9.910   2.699 -0.3337 -0.0173  0.4350
11242SOL    HW145704   1.197   9.920   2.793  0.1079 -0.9911  0.6119
11242SOL    HW245705   1.120   9.915   2.663 -0.4090  1.3624  0.7832
11243SOL     OW45706   2.809   1.291  10.283  0.4405  0.8058  0.0549
11243SOL    HW145707   2.840   1.304  10.373  0.4322 -0.7093  0.3081
11243SOL    HW245708   2.786   1.198  10.279 -2.1765  1.3874 -0.7110
11244SOL     OW45709   7.739   9.134   7.188  0.1032  0.5991 -0.0593
11244SOL    HW145710   7.708   9.049   7.158  1.0533  0.5392 -0.9070
11244SOL    HW245711   7.689   9.151   7.268 -0.1660 -0.7021  0.0575
11245SOL     OW45712   7.440   7.308   6.006  0.0024 -0.4833 -0.0558
11245SOL    HW145713   7.378   7.378   6.028  0.8005  0.6465 -1.2800
11245SOL    HW245714   7.526   7.346   6.023  0.5471 -0.4267 -2.5872
11246SOL     OW45715   1.732   8.775   7.598 -0.3882 -0.0845  0.2042
11246SOL    HW145716   1.752   8.865   7.622  1.1993  0.1717 -1.8488
11246SOL    HW245717   1.697   8.736   7.679 -0.3153  2.0929  1.3655
11247SOL     OW45718   2.015   0.025   2.507 -0.7693 -0.0534 -0.2980
11247SOL    HW145719   1.975  -0.047   2.458  1.1878 -2.7465  1.7275
11247SOL    HW245720   2.098   0.042   2.463  1.2413 -2.8378  2.0256
11248SOL     OW45721   0.169   0.272   7.847  0.5568  0.4559 -0.1643
11248SOL    HW145722   0.102   0.216   7.886  0.8814  0.1692 -0.0075
11248SOL    HW245723   0.160   0.356   7.892 -0.4859  0.8012 -0.9912
11249SOL     OW45724   3.587   6.855   1.009  0.0243  0.3249 -0.4241
11249SOL    HW145725   3.603   6.868   0.915  0.0420 -0.0497 -0.4750
11249SOL    HW245726   3.548   6.768   1.015  1.9976 -0.5858  0.1176
11250SOL     OW45727   2.693   7.257   4.250  0.2151 -0.6615 -0.4913
11250SOL    HW145728   2.599   7.249   4.263  0.0407  2.4189  0.9933
11250SOL    HW245729   2.702   7.315   4.174  0.6959  2.4143  1.7357
11251SOL     OW45730   8.458   7.808   0.426 -0.6110 -0.5121  0.5424
11251SOL    HW145731   8.404   7.868   0.376 -0.1128 -0.7544 -0.3103
11251SOL    HW245732   8.396   7.757   0.479 -1.1704 -0.4316 -0.0304
11252SOL     OW45733   1.554   8.645   1.617  0.0024 -0.4204 -0.0611
11252SOL    HW145734   1.528   8.692   1.538  1.1381 -3.1768 -2.2477
11252SOL    HW245735   1.639   8.682   1.641  0.4273 -0.6677 -1.1470
11253SOL     OW45736   3.957   2.206   8.334  0.1095 -0.5470  0.2183
11253SOL    HW145737   4.018   2.168   8.271 -0.7726 -1.0268 -0.3838
11253SOL    HW245738   3.896   2.134   8.354 -0.6828  0.1073  0.2234
11254SOL     OW45739   8.306   8.059   9.214 -0.2123 -0.3437  0.0091
11254SOL    HW145740   8.238   8.010   9.169 -1.6538 -0.4039  2.1346
11254SOL    HW245741   8.332   8.127   9.152 -1.6096 -0.8228 -1.1414
11255SOL     OW45742   5.523   8.204   3.135  0.0764 -0.3035  0.3144
11255SOL    HW145743   5.436   8.168   3.151 -1.6606  2.1071 -2.6977
11255SOL    HW245744   5.557   8.154   3.061 -0.2404  0.9295 -0.6912
11256SOL     OW45745   2.733   3.451   6.854  0.2039 -0.0440 -0.0175
11256SOL    HW145746   2.644   3.460   6.821  1.0732  0.5284 -2.4046
11256SOL    HW245747   2.760   3.541   6.874  0.7643 -0.0082 -0.8709
11257SOL     OW45748   4.693   8.987   7.659 -0.2594 -0.3936  0.4400
11257SOL    HW145749   4.614   9.030   7.691 -0.0437 -0.2082  0.7285
11257SOL    HW245750   4.752   9.060   7.636 -0.0621 -0.5316  0.5041
11258SOL     OW45751   7.679   5.427   5.183  0.0444 -0.4398 -0.0629
11258SOL    HW145752   7.763   5.461   5.152 -0.6101 -0.2471 -1.7591
11258SOL    HW245753   7.643   5.497   5.238  0.7405 -0.3022  0.2194
11259SOL     OW45754   7.854   3.425   6.494 -0.1531 -0.1094 -0.0393
11259SOL    HW145755   7.826   3.471   6.573  1.3436 -0.6197  0.8222
11259SOL    HW245756   7.791   3.452   6.427 -1.2072  0.6547  1.2172
11260SOL     OW45757   5.133   6.889   4.241  0.0017 -0.1473  0.0188
11260SOL    HW145758   5.149   6.831   4.316  0.0298  0.4845  0.5125
11260SOL    HW245759   5.178   6.970   4.264  1.3874 -0.4822 -1.4275
11261SOL     OW45760   0.960   3.937   7.091  0.4061  0.2599  0.2250
11261SOL    HW145761   0.936   3.951   6.999 -0.2135 -0.2827  0.2931
11261SOL    HW245762   0.994   4.021   7.120 -0.7467  0.8576 -0.0919
11262SOL     OW45763   0.825   5.489   8.845  0.0740 -0.3699  0.8531
11262SOL    HW145764   0.731   5.509   8.846  0.1103  0.5911 -2.5534
11262SOL    HW245765   0.861   5.548   8.779  2.8304 -1.7642  0.9860
11263SOL     OW45766   3.705   9.366   7.560  0.1798  1.0387 -0.4885
11263SOL    HW145767   3.669   9.278   7.565  1.7255  0.3383 -1.3277
11263SOL    HW245768   3.638   9.421   7.601 -2.1552 -0.0933 -2.5036
11264SOL     OW45769   0.454   6.802   7.721 -0.9252 -0.5251 -0.5660
11264SOL    HW145770   0.475   6.785   7.812 -3.4398  0.4793  0.3005
11264SOL    HW245771   0.516   6.870   7.694 -0.6913 -0.2140  0.6973
11265SOL     OW45772   1.133   1.588   5.658  0.0536 -0.1647  0.8379
11265SOL    HW145773   1.146   1.521   5.725 -1.6786 -0.4519  0.9340
11265SOL    HW245774   1.163   1.547   5.576  1.7402  0.0278  1.3066
11266SOL     OW45775   4.357   1.469   9.672  0.6390  0.0390  0.3500
11266SOL    HW145776   4.336   1.456   9.764  0.5513  2.4242  0.7305
11266SOL    HW245777   4.279   1.439   9.625  0.4360 -0.6173  1.0931
11267SOL     OW45778   3.764   1.881   0.076  0.3959  0.2968 -0.6055
11267SOL    HW145779   3.851   1.881   0.118 -0.0925 -1.3154  0.5349
11267SOL    HW245780   3.782   1.863  -0.016  1.3547  1.6152 -0.7063
11268SOL     OW45781   2.590   0.475   2.078  0.6826  0.0552 -0.3466
11268SOL    HW145782   2.547   0.511   2.001 -0.9268  3.9292  2.0649
11268SOL    HW245783   2.681   0.505   2.072  0.5916  0.2533 -0.7399
11269SOL     OW45784   8.139   0.743   5.542  0.1107 -0.0390  0.3101
11269SOL    HW145785   8.068   0.803   5.518 -0.5500 -1.1748 -0.6744
11269SOL    HW245786   8.212   0.767   5.485 -0.3985 -0.6159 -0.6220
11270SOL     OW45787   5.757   0.276   9.459 -0.0980 -0.1497 -0.4489
11270SOL    HW145788   5.817   0.341   9.496 -1.1334  2.6344 -3.2050
11270SOL    HW245789   5.798   0.249   9.377 -0.2300 -2.2240  0.1109
11271SOL     OW45790   5.624   8.000   4.889 -0.4319 -0.2742 -0.8770
11271SOL    HW145791   5.689   7.935   4.866  0.6770  0.3281  0.4048
11271SOL    HW245792   5.613   8.052   4.810  1.0274 -0.0915 -0.9904
11272SOL     OW45793   5.860   7.840   6.085  0.3967  0.2848  0.1662
11272SOL    HW145794   5.907   7.884   6.156 -1.7280  1.9511  0.6242
11272SOL    HW245795   5.768   7.854   6.104 -0.3176 -1.9194 -1.2932
11273SOL     OW45796   3.314   5.836  10.312 -0.1207 -0.4943  0.0150
11273SOL    HW145797   3.275   5.806  10.230  1.9440 -1.7204 -0.6015
11273SOL    HW245798   3.374   5.766  10.338 -0.8697 -0.2471  2.7389
11274SOL     OW45799   4.857   5.201   5.939  0.1266 -0.3943  0.0182
11274SOL    HW145800   4.912   5.213   6.017 -0.9757 -0.5602  0.8388
11274SOL    HW245801   4.822   5.289   5.921 -0.2508 -0.5061  0.1964
11275SOL     OW45802   5.552   0.148   2.981 -0.2547  0.4907  0.4955
11275SOL    HW145803   5.622   0.083   2.988 -0.0457  0.6944  0.2957
11275SOL    HW245804   5.507   0.127   2.899  1.4620  2.2048 -0.9889
11276SOL     OW45805   7.043   8.795   3.912  0.2537 -0.6796  0.0216
11276SOL    HW145806   7.060   8.866   3.849  1.3608  1.3000  2.3864
11276SOL    HW245807   7.126   8.748   3.918  0.0168 -1.1485 -0.2886
11277SOL     OW45808   2.198   2.729   3.528  0.3055 -0.0806  0.6041
11277SOL    HW145809   2.107   2.699   3.520  0.7399 -1.7597  1.3339
11277SOL    HW245810   2.192   2.823   3.541 -1.1791  0.2820 -2.0544
11278SOL     OW45811   4.449   4.742   4.376 -0.4433  0.2275  0.3966
11278SOL    HW145812   4.484   4.832   4.377  1.3358 -0.4206  0.5238
11278SOL    HW245813   4.455   4.713   4.467 -2.2948  0.4106  0.6086
11279SOL     OW45814   5.146   8.714   5.696  0.3957  0.1411 -0.1833
11279SOL    HW145815   5.070   8.741   5.645 -0.0353  0.1069  0.4372
11279SOL    HW245816   5.220   8.727   5.636 -0.0655  0.3852 -0.7146
11280SOL     OW45817   1.245   3.217   8.381 -0.0752 -0.0514  0.4665
11280SOL    HW145818   1.298   3.289   8.346  0.6054 -0.5688  0.4270
11280SOL    HW245819   1.217   3.168   8.304  1.1422 -0.9936  0.6069
11281SOL     OW45820   0.514   5.618   3.015 -0.0935 -0.2117  0.0054
11281SOL    HW145821   0.458   5.570   2.954  0.4999  1.0620 -1.6372
11281SOL    HW245822   0.504   5.573   3.099 -1.3215 -1.7381 -0.9194
11282SOL     OW45823   5.655   6.039   5.682  0.2511  0.4512 -0.7217
11282SOL    HW145824   5.696   6.120   5.650  0.7366 -0.1433 -1.6309
11282SOL    HW245825   5.728   5.979   5.696 -0.2828 -0.6014 -2.2921
11283SOL     OW45826   9.228   9.272   2.064  0.4601 -0.7571  0.1361
11283SOL    HW145827   9.242   9.345   2.124  0.5634  0.1137 -0.9150
11283SOL    HW245828   9.183   9.206   2.116 -0.2530  0.3236  0.9266
11284SOL     OW45829   0.214   1.383   5.904  0.3661 -0.7515 -0.0730
11284SOL    HW145830   0.183   1.373   5.814  0.5692 -0.9609 -0.1210
11284SOL    HW245831   0.217   1.294   5.938 -1.1479 -0.5662  0.6394
11285SOL     OW45832   8.466   5.779   9.859 -0.2179  0.6652  0.3582
11285SOL    HW145833   8.418   5.696   9.869 -0.4447  0.9359  1.6702
11285SOL    HW245834   8.501   5.775   9.770 -1.3424 -0.2470 -0.0809
11286SOL     OW45835   9.875   1.400   5.780 -0.0125  0.4549 -0.3758
11286SOL    HW145836   9.924   1.482   5.773 -0.4998  0.6407 -1.9119
11286SOL    HW245837   9.834   1.389   5.694 -1.3680 -0.5077  0.3658
11287SOL     OW45838   1.877   2.653   2.203 -0.3452  0.3760 -0.9653
11287SOL    HW145839   1.910   2.708   2.132 -0.4079  1.0492 -0.4772
11287SOL    HW245840   1.796   2.615   2.169 -1.7133  2.6153 -0.4139
11288SOL     OW45841   8.254   8.079   6.664  0.3856  0.0014  0.0891
11288SOL    HW145842   8.320   8.010   6.659  0.0687 -0.2691 -0.5009
11288SOL    HW245843   8.236   8.088   6.758 -0.2675 -1.4190  0.1300
11289SOL     OW45844   0.355   0.573   0.192 -0.5078  0.1655 -0.2179
11289SOL    HW145845   0.325   0.650   0.143  0.6085  1.4097  0.9786
11289SOL    HW245846   0.448   0.565   0.168  0.0502  0.7807  1.6291
11290SOL     OW45847   0.290   4.738   4.418 -0.1097  0.4433 -0.1792
11290SOL    HW145848   0.299   4.643   4.409 -2.8015  0.0132  0.7222
11290SOL    HW245849   0.213   4.759   4.365  0.0805  2.0460  0.1392
11291SOL     OW45850   0.649   4.075   4.123  0.4483  0.1099  0.2278
11291SOL    HW145851   0.577   4.130   4.154  0.4830 -0.6732  1.8287
11291SOL    HW245852   0.718   4.136   4.100  0.3325  0.7773  1.5682
11292SOL     OW45853   0.581   6.015   7.787 -0.1002  0.1047 -0.7198
11292SOL    HW145854   0.659   6.052   7.747  0.8072  0.3222  1.1380
11292SOL    HW245855   0.606   5.925   7.810  1.3625  1.4411  4.0006
11293SOL     OW45856   5.353   9.275   2.004  0.6101  0.1793  0.3712
11293SOL    HW145857   5.416   9.345   1.988  2.1843 -0.3728  3.4468
11293SOL    HW245858   5.405   9.201   2.034 -1.3194 -1.1621  0.6467
11294SOL     OW45859   2.080   2.278   4.928  0.2774  0.8495 -0.7795
11294SOL    HW145860   2.123   2.197   4.901 -0.4040  0.3685 -0.4448
11294SOL    HW245861   1.987   2.263   4.913  0.0911  1.3771 -0.2200
11295SOL     OW45862   8.965   9.153   2.453  0.7117 -0.0604 -0.2407
11295SOL    HW145863   8.887   9.191   2.412  1.2869  2.2755  0.7086
11295SOL    HW245864   8.947   9.157   2.547  2.2055  1.1498  0.0333
11296SOL     OW45865   0.959   3.501   9.921 -0.1927  0.2334  0.0882
11296SOL    HW145866   1.052   3.498   9.945 -0.0105 -1.0902 -0.6450
11296SOL    HW245867   0.916   3.449   9.988 -0.1465 -0.6094 -0.5152
11297SOL     OW45868   9.587   3.408   5.558 -0.0297 -0.3223 -0.1447
11297SOL    HW145869   9.537   3.409   5.477  0.7210  2.1918 -0.6716
11297SOL    HW245870   9.630   3.322   5.559  0.1247 -0.3337 -2.5251
11298SOL     OW45871   1.834   0.984   7.432  0.1197 -0.3954 -0.3818
11298SOL    HW145872   1.743   1.005   7.411 -0.2341  0.0408  1.4093
11298SOL    HW245873   1.884   1.018   7.358 -1.1535 -0.5420 -1.3493
11299SOL     OW45874   1.173   3.098   7.249 -0.2710 -0.6010  0.3678
11299SOL    HW145875   1.267   3.089   7.266 -0.6240 -0.4418  2.6503
11299SOL    HW245876   1.132   3.096   7.335 -2.5563 -2.4441 -0.6425
11300SOL     OW45877   8.465   6.464   6.308  0.3123  0.1644  0.0948
11300SOL    HW145878   8.475   6.498   6.219 -1.3151  0.3287 -0.0532
11300SOL    HW245879   8.433   6.539   6.358  0.5932 -0.1001  0.6730
11301SOL     OW45880   2.788   8.011   4.275 -0.3409  0.2774 -0.0010
11301SOL    HW145881   2.879   8.004   4.246 -0.0808  0.8661  0.6464
11301SOL    HW245882   2.778   8.103   4.297 -1.4012  0.4303 -1.0225
11302SOL     OW45883   5.097   1.847   6.175 -0.3559 -0.6795 -0.1533
11302SOL    HW145884   5.168   1.838   6.112  0.8633 -0.1219  1.0873
11302SOL    HW245885   5.041   1.916   6.138 -0.5538 -1.4869 -1.3937
11303SOL     OW45886   9.883   1.479   2.535  0.1096 -0.0838 -0.3805
11303SOL    HW145887   9.787   1.473   2.531  0.1885 -1.1112 -1.1973
11303SOL    HW245888   9.908   1.515   2.450  0.3335  2.5973  0.7305
11304SOL     OW45889   3.177   5.489   8.455  0.3666 -0.7120  0.0445
11304SOL    HW145890   3.191   5.532   8.371 -1.8016  0.2022  0.0988
11304SOL    HW245891   3.102   5.533   8.493  2.7219  0.6685  3.6986
11305SOL     OW45892   1.695   2.443   8.232 -0.5305 -0.2746  0.2070
11305SOL    HW145893   1.778   2.464   8.189 -1.1447  1.6156 -0.1247
11305SOL    HW245894   1.698   2.490   8.315 -1.2004 -0.3239  0.2682
11306SOL     OW45895   4.279   2.095   8.933 -0.0978 -0.3277  0.1483
11306SOL    HW145896   4.311   2.074   9.021 -0.6309 -1.1118  0.1648
11306SOL    HW245897   4.218   2.167   8.946  2.3320  1.9099  0.0082
11307SOL     OW45898  10.125   1.551   1.276  0.2563 -0.4549 -1.0477
11307SOL    HW145899  10.033   1.527   1.288  0.5068 -0.8681  0.2820
11307SOL    HW245900  10.163   1.546   1.364  1.4219  0.2866 -1.4734
11308SOL     OW45901  10.057   8.947   9.663 -0.2383  0.5352  0.1500
11308SOL    HW145902  10.022   8.994   9.588  1.3033  1.5597  0.0503
11308SOL    HW245903  10.029   8.856   9.649 -1.3124  0.9863 -0.8212
11309SOL     OW45904   5.410   8.324   5.624 -0.1589  0.1117  0.2850
11309SOL    HW145905   5.332   8.334   5.571  0.5084 -0.7669 -0.9206
11309SOL    HW245906   5.404   8.236   5.661  0.0583  0.1924  0.5236
11310SOL     OW45907   8.221   8.609   7.549  0.1033  0.1276  0.0350
11310SOL    HW145908   8.237   8.699   7.575 -0.2381  0.2275 -0.0970
11310SOL    HW245909   8.137   8.611   7.503  0.2826 -0.1913 -0.3175
11311SOL     OW45910   9.221   6.354   5.106  0.4734 -0.1487 -0.0971
11311SOL    HW145911   9.275   6.335   5.184 -0.3539 -0.8196  0.3309
11311SOL    HW245912   9.248   6.441   5.079  0.3426  0.3604  1.3247
11312SOL     OW45913   1.746   7.250   6.821 -0.3389  0.1384  0.1805
11312SOL    HW145914   1.710   7.335   6.796  1.1681  1.1365  1.2164
11312SOL    HW245915   1.801   7.269   6.897  1.0835 -1.5345 -0.3531
11313SOL     OW45916   2.233   6.618   8.762 -0.0907 -0.6056  0.0281
11313SOL    HW145917   2.146   6.625   8.723 -1.9781 -1.3377  3.6648
11313SOL    HW245918   2.255   6.525   8.755  1.0441 -0.2503 -1.9121
11314SOL     OW45919   7.176   0.203   4.770 -0.3018  0.4774  0.0927
11314SOL    HW145920   7.191   0.251   4.851  0.2649 -1.2422  1.0706
11314SOL    HW245921   7.252   0.222   4.716  0.3743 -0.0207  0.8459
11315SOL     OW45922   8.903   7.514   4.325  0.3131 -0.5634 -0.7686
11315SOL    HW145923   8.920   7.564   4.245  0.2126 -0.5576 -0.7864
11315SOL    HW245924   8.807   7.510   4.331  0.3126 -1.2674 -1.0911
11316SOL     OW45925   0.851   3.550   5.403 -0.7256  0.8734  0.0357
11316SOL    HW145926   0.769   3.502   5.394 -0.9625  1.0362  1.2009
11316SOL    HW245927   0.888   3.521   5.487  2.0131 -1.5641 -1.8172
11317SOL     OW45928   0.894   0.494   4.604  0.0295  0.4287  0.7308
11317SOL    HW145929   0.988   0.508   4.592  0.0407  1.6326  1.9358
11317SOL    HW245930   0.886   0.400   4.623  0.8068  0.0388 -0.7115
11318SOL     OW45931   4.847   5.957   2.622  0.7371  0.2074  0.1478
11318SOL    HW145932   4.811   5.928   2.537  0.7225 -1.1979  0.6097
11318SOL    HW245933   4.940   5.967   2.606  0.8119 -0.5422  0.0826
11319SOL     OW45934   1.005   6.110   1.260 -0.2289  0.0933 -0.3532
11319SOL    HW145935   1.090   6.141   1.229 -1.0903  1.8585 -1.1029
11319SOL    HW245936   0.973   6.053   1.190 -0.2439  0.5255 -0.7061
11320SOL     OW45937   8.121   4.503   5.049 -0.3367  0.0978  0.0902
11320SOL    HW145938   8.143   4.482   4.959  0.0502  0.5514  0.0724
11320SOL    HW245939   8.045   4.561   5.043  0.2239  0.8404  0.0038
11321SOL     OW45940   4.611   0.232   4.098 -0.1586  0.4272 -0.0011
11321SOL    HW145941   4.692   0.242   4.147 -0.5638  0.0219  0.7746
11321SOL    HW245942   4.573   0.151   4.132 -0.0696 -0.3036 -1.5488
11322SOL     OW45943   2.518   4.112   6.239  0.6474  0.3900  0.4302
11322SOL    HW145944   2.482   4.142   6.322  1.4694  0.3596  0.8088
11322SOL    HW245945   2.510   4.017   6.241  1.7862  0.2896  1.0245
11323SOL     OW45946   6.622   4.059   5.459  0.1188 -0.1819 -0.1997
11323SOL    HW145947   6.611   3.995   5.529 -0.3686  0.3622  0.2378
11323SOL    HW245948   6.594   4.014   5.380  1.7236 -1.1822 -0.2634
11324SOL     OW45949   5.899   1.483   4.013 -0.1308  0.1732  0.5180
11324SOL    HW145950   5.861   1.494   4.100 -3.9738  1.6349 -1.0944
11324SOL    HW245951   5.869   1.397   3.984  1.9859 -0.7512  0.9302
11325SOL     OW45952   7.878   8.257   3.339  0.2324 -0.0302  0.0217
11325SOL    HW145953   7.887   8.315   3.414 -1.3879  0.2367  0.0384
11325SOL    HW245954   7.874   8.169   3.376 -2.3845  0.2088  0.4582
11326SOL     OW45955   1.174   6.304   4.078  0.5169  0.4066  0.0552
11326SOL    HW145956   1.090   6.315   4.123 -0.5830 -0.0532 -1.7914
11326SOL    HW245957   1.176   6.372   4.011  0.5490 -0.9712 -1.4100
11327SOL     OW45958   1.431   2.044   2.010  0.0996  0.1167 -0.4113
11327SOL    HW145959   1.371   1.987   2.057  0.1548  2.2831  2.5422
11327SOL    HW245960   1.406   2.034   1.918 -3.4162 -0.6453  0.4653
11328SOL     OW45961   5.542   8.120   2.084  0.5382 -0.1915 -0.1245
11328SOL    HW145962   5.637   8.109   2.088  0.7436  0.7941 -1.4485
11328SOL    HW245963   5.512   8.046   2.031  0.6488 -0.0822 -0.3376
11329SOL     OW45964  10.018  10.126   1.597  0.2977 -0.0568 -0.2858
11329SOL    HW145965  10.009  10.137   1.503  1.6048  1.0675 -0.3107
11329SOL    HW245966   9.967  10.199   1.634 -0.7654 -0.8798 -0.0816
11330SOL     OW45967   7.439   9.411   9.432  1.1638  0.1246 -0.4270
11330SOL    HW145968   7.402   9.431   9.518  1.6425 -0.8028  0.0110
11330SOL    HW245969   7.531   9.435   9.440  1.4420 -0.8904 -0.3265
11331SOL     OW45970   2.960   0.638   2.185  0.0187 -0.1976 -0.2531
11331SOL    HW145971   3.024   0.695   2.228  0.5886 -1.1377  0.1788
11331SOL    HW245972   3.014   0.576   2.135 -0.5835 -0.5353 -0.4906
11332SOL     OW45973   4.049   3.734   8.420 -0.4778  0.6674 -0.2136
11332SOL    HW145974   4.082   3.650   8.389 -1.3236  0.3527 -0.2827
11332SOL    HW245975   4.125   3.775   8.462  0.1329  0.1997 -0.8320
11333SOL     OW45976   6.923   6.248   0.425  0.0598 -0.2176 -0.1041
11333SOL    HW145977   6.913   6.194   0.347 -0.3493 -0.6250  0.2177
11333SOL    HW245978   6.843   6.301   0.428  0.4809  0.4528 -0.4446
11334SOL     OW45979   6.846   8.469   5.221 -0.1667 -0.5294 -0.5591
11334SOL    HW145980   6.819   8.382   5.193 -1.4511  0.0842 -1.3270
11334SOL    HW245981   6.938   8.459   5.245 -0.0335 -1.8899 -1.4998
11335SOL     OW45982   0.451   1.644   3.940  0.2618 -0.5319 -0.1203
11335SOL    HW145983   0.442   1.569   3.998 -0.4772  0.6333  1.3177
11335SOL    HW245984   0.542   1.671   3.949  0.0217 -0.0241  0.9657
11336SOL     OW45985   1.280   5.519   3.859  0.3950  0.0613  0.2598
11336SOL    HW145986   1.244   5.444   3.811 -3.1142  1.5586  0.2781
11336SOL    HW245987   1.294   5.485   3.948 -0.3482 -0.8158  0.0621
11337SOL     OW45988  10.124   9.177   2.151  0.4124  0.3259 -0.4970
11337SOL    HW145989  10.030   9.197   2.144  0.4313  0.8444  0.5391
11337SOL    HW245990  10.153   9.227   2.227  1.1545 -1.2667  0.3093
11338SOL     OW45991   1.018   6.804   6.246  0.3065 -0.6343  0.1314
11338SOL    HW145992   1.078   6.871   6.279 -0.8255 -0.1481  1.3146
11338SOL    HW245993   0.969   6.848   6.176 -2.3253  0.8052  2.6413
11339SOL     OW45994   1.715   3.987   7.719  0.0138  0.1532  0.4582
11339SOL    HW145995   1.661   3.954   7.792 -0.3977  0.7776  0.4419
11339SOL    HW245996   1.689   3.933   7.644  0.5806 -0.6268  0.8073
11340SOL     OW45997   7.534   8.960   6.763 -0.6093  0.0384 -0.0424
11340SOL    HW145998   7.552   9.053   6.757  1.6458 -0.1726  1.9452
11340SOL    HW245999   7.468   8.952   6.833 -0.0947  0.1062  0.4584
11341SOL     OW46000   0.724   0.618   3.456  0.4615  0.2311  0.3143
11341SOL    HW146001   0.742   0.612   3.362  1.8893 -1.4053  0.6364
11341SOL    HW246002   0.643   0.570   3.468  0.4910  0.0945 -0.0252
11342SOL     OW46003  10.214   7.003   2.359 -0.1088 -0.4293 -0.1687
11342SOL    HW146004  10.128   6.968   2.378 -0.3309  0.6124  0.8566
11342SOL    HW246005  10.212   7.092   2.394  0.5631  0.4773 -2.2852
11343SOL     OW46006   1.669   1.585   5.456 -0.1033 -0.0499  0.0303
11343SOL    HW146007   1.701   1.676   5.461  3.0421 -1.0310 -0.1481
11343SOL    HW246008   1.599   1.581   5.521  0.1631  2.3109  0.5636
11344SOL     OW46009   7.661   2.838   8.247 -0.0772  0.4584 -0.0844
11344SOL    HW146010   7.711   2.888   8.182  0.7013 -1.6057 -1.1851
11344SOL    HW246011   7.725   2.778   8.284 -1.0330  0.0700  0.9959
11345SOL     OW46012   9.260   8.277   8.322  0.1711 -0.5716  0.2369
11345SOL    HW146013   9.330   8.254   8.383  1.3640  1.0758 -0.4362
11345SOL    HW246014   9.188   8.307   8.378  1.1928  0.7792  0.9065
11346SOL     OW46015   8.777   3.029   4.536 -0.0330  0.2854 -0.2224
11346SOL    HW146016   8.809   3.101   4.480  0.7302  0.3515  0.2891
11346SOL    HW246017   8.843   2.961   4.527 -0.6637 -0.2921 -0.5584
11347SOL     OW46018   1.122   2.084   3.698  0.1392  0.0066  0.4831
11347SOL    HW146019   1.179   2.098   3.774 -0.3467  2.4327  0.4595
11347SOL    HW246020   1.034   2.105   3.730 -0.1244  0.6942 -0.6605
11348SOL     OW46021   4.553   0.237   5.854 -0.1584  0.1577 -0.5915
11348SOL    HW146022   4.611   0.308   5.882 -1.4664  0.6583  1.0006
11348SOL    HW246023   4.595   0.158   5.887  0.5156  0.3137 -1.0355
11349SOL     OW46024   7.076   0.549   4.830 -0.4010 -0.1963  0.6565
11349SOL    HW146025   7.068   0.469   4.883 -0.5891 -0.9015 -0.4041
11349SOL    HW246026   6.987   0.585   4.827 -0.4082 -0.2064  0.7434
11350SOL     OW46027   6.322   3.419   2.467 -0.5304 -0.1596 -0.1963
11350SOL    HW146028   6.331   3.366   2.546 -1.6628 -1.7254 -1.0601
11350SOL    HW246029   6.243   3.472   2.482  0.3854  1.0750  0.5063
11351SOL     OW46030   8.591   5.921   3.744 -0.1468 -0.7137  0.3589
11351SOL    HW146031   8.663   5.955   3.796 -0.2878  0.2346 -0.0479
11351SOL    HW246032   8.633   5.868   3.676  0.3488  1.3852 -1.0670
11352SOL     OW46033   0.888   8.595   0.816  0.3414 -0.6048  0.5537
11352SOL    HW146034   0.968   8.619   0.864  0.4096  0.0799  0.0982
11352SOL    HW246035   0.859   8.676   0.775 -1.4565 -0.4838  1.9460
11353SOL     OW46036   2.980   1.586   4.574  0.0711 -0.0483 -0.0029
11353SOL    HW146037   3.013   1.591   4.663 -1.0175  2.0232  0.3469
11353SOL    HW246038   2.885   1.581   4.584 -0.0596  0.1931 -1.0328
11354SOL     OW46039   2.236   5.942   7.173 -0.3650 -0.4625 -0.7036
11354SOL    HW146040   2.307   5.878   7.185 -1.2718 -1.2650  0.5241
11354SOL    HW246041   2.160   5.902   7.215 -0.8790  1.5703  0.4265
11355SOL     OW46042   3.879   6.405   8.497  0.0773  0.1503 -0.4411
11355SOL    HW146043   3.807   6.432   8.440  1.4637  1.0750 -1.8338
11355SOL    HW246044   3.940   6.359   8.439  0.1949 -1.4803  0.8979
11356SOL     OW46045   4.054   3.610   7.421 -0.1688 -0.0401  0.0149
11356SOL    HW146046   3.973   3.562   7.409  0.3075 -0.7004 -0.6783
11356SOL    HW246047   4.120   3.556   7.377  0.5398  0.7731  0.0616
11357SOL     OW46048   7.580   0.390   3.026  0.4711  0.3264 -0.0884
11357SOL    HW146049   7.507   0.332   3.046  0.3404  0.6890  0.5124
11357SOL    HW246050   7.613   0.359   2.942  0.7430 -0.9577  0.4673
11358SOL     OW46051   8.636   3.464   5.382  0.2519  0.0980 -0.2550
11358SOL    HW146052   8.662   3.488   5.293 -0.8943  3.9460  0.2770
11358SOL    HW246053   8.688   3.521   5.438 -1.7296  0.4557  1.3132
11359SOL     OW46054   9.094   0.189   1.110  0.3317  0.1493  0.2808
11359SOL    HW146055   9.118   0.123   1.174  1.2277  0.8001  0.6376
11359SOL    HW246056   9.046   0.255   1.161 -1.3436 -0.6090 -0.2254
11360SOL     OW46057   8.561   9.120   2.057  0.1376  0.5024  0.1618
11360SOL    HW146058   8.639   9.145   2.107  0.3686 -0.5330  0.3475
11360SOL    HW246059   8.537   9.034   2.091  0.9801 -0.7986 -2.2894
11361SOL     OW46060   0.357   1.366   5.612 -0.1344 -0.1026 -0.3175
11361SOL    HW146061   0.303   1.288   5.623  1.6035 -1.4078 -0.6792
11361SOL    HW246062   0.301   1.427   5.564 -2.5217 -0.0034  2.2542
11362SOL     OW46063   6.717   2.406   9.912  0.4103  0.0490 -0.5147
11362SOL    HW146064   6.696   2.431   9.822 -1.0441 -0.6304 -0.3885
11362SOL    HW246065   6.724   2.489   9.960 -0.1604  0.3630 -0.9679
11363SOL     OW46066   7.945   3.511   4.814  0.0462  0.1443  0.2522
11363SOL    HW146067   7.999   3.589   4.827  0.4965  0.0134 -0.7528
11363SOL    HW246068   7.908   3.493   4.901  1.5039  0.3196  0.9378
11364SOL     OW46069   7.689   2.781   4.300  0.4256  0.3751  0.2426
11364SOL    HW146070   7.762   2.740   4.254 -0.6300  1.0589 -2.1753
11364SOL    HW246071   7.728   2.813   4.381  2.7149  0.2926 -0.7384
11365SOL     OW46072   2.569   3.957   0.336 -0.2351  0.4956 -0.2199
11365SOL    HW146073   2.485   3.978   0.295  0.1960 -0.8814 -1.9037
11365SOL    HW246074   2.632   4.017   0.295 -0.4220  1.8848  1.4106
11366SOL     OW46075   8.408   0.188   8.007  0.3239 -0.3580  0.3871
11366SOL    HW146076   8.418   0.171   7.913  0.1503 -1.5675  0.5739
11366SOL    HW246077   8.486   0.149   8.046 -0.6080 -1.7434  0.9373
11367SOL     OW46078   1.360   7.330   1.645  0.1933  0.2868 -0.7892
11367SOL    HW146079   1.406   7.414   1.652 -0.1090  0.4590 -0.8460
11367SOL    HW246080   1.366   7.292   1.732  0.9296  0.0478 -0.9308
11368SOL     OW46081   4.704   0.100   1.065 -0.2275 -0.0326 -0.3442
11368SOL    HW146082   4.629   0.070   1.116 -0.9019 -0.1408 -1.3804
11368SOL    HW246083   4.780   0.079   1.120 -0.7991 -1.8541 -0.1696
11369SOL     OW46084   0.086   1.073   0.461 -0.2739  0.1739 -0.1107
11369SOL    HW146085   0.017   1.014   0.432 -0.2800  0.2908 -0.3409
11369SOL    HW246086   0.094   1.058   0.555 -0.1901 -0.2805 -0.1881
11370SOL     OW46087   1.652   5.459   2.485 -0.2527  0.2259  0.2816
11370SOL    HW146088   1.598   5.382   2.505 -0.0305 -0.0345 -0.1134
11370SOL    HW246089   1.606   5.532   2.526 -0.2352 -0.1825  1.0502
11371SOL     OW46090   9.278   2.397   4.883 -0.0800 -0.3563  0.3338
11371SOL    HW146091   9.233   2.459   4.940 -0.9515 -1.2539  0.6436
11371SOL    HW246092   9.261   2.311   4.922  0.5843 -0.8492 -0.4314
11372SOL     OW46093   6.772   1.527   6.927  0.2244 -0.0131  0.1245
11372SOL    HW146094   6.710   1.567   6.865 -1.0916 -0.5627  1.0485
11372SOL    HW246095   6.723   1.518   7.008  0.8918 -2.2759  0.3479
11373SOL     OW46096   7.961   6.923   7.996 -0.2840  0.3496  0.0047
11373SOL    HW146097   7.954   6.929   8.091  0.0532 -1.1136  0.1501
11373SOL    HW246098   8.017   6.847   7.981  1.1371  1.5907 -1.3421
11374SOL     OW46099   0.922   7.977  10.010 -0.1146  0.0663 -0.0505
11374SOL    HW146100   0.841   7.957   9.963  0.6938 -0.6858 -1.1656
11374SOL    HW246101   0.932   7.904  10.072 -0.3547  0.2403  0.1996
11375SOL     OW46102   0.770   8.336   3.051 -0.2295 -0.0996 -0.5212
11375SOL    HW146103   0.735   8.251   3.025  0.5486 -0.3653 -0.7388
11375SOL    HW246104   0.808   8.372   2.970 -1.7316  1.0639 -0.7548
11376SOL     OW46105   9.379   4.723   1.544  0.1146  0.2242  0.4106
11376SOL    HW146106   9.469   4.756   1.555 -0.0744  1.0991 -0.5563
11376SOL    HW246107   9.323   4.795   1.572 -0.2954  0.2093 -0.3366
11377SOL     OW46108   9.999   1.875   2.871  0.5158 -0.3849  0.0069
11377SOL    HW146109  10.032   1.953   2.915  1.3998 -0.0995 -1.1091
11377SOL    HW246110  10.047   1.873   2.788  0.6475 -2.2221  0.1004
11378SOL     OW46111   8.361   4.034   4.655  0.1545  0.3094  0.0353
11378SOL    HW146112   8.320   4.092   4.591  0.4772  1.0803  0.5162
11378SOL    HW246113   8.368   4.086   4.735  1.1076 -0.1484  0.2733
11379SOL     OW46114   2.446   4.185   1.779  0.4479  0.3288  0.5479
11379SOL    HW146115   2.379   4.151   1.839  1.1464 -0.4282  0.9234
11379SOL    HW246116   2.432   4.136   1.698 -0.3983  1.2442  0.1158
11380SOL     OW46117   1.670   5.634   7.056 -0.0692  0.4201 -0.0991
11380SOL    HW146118   1.730   5.696   7.015  1.3988 -1.8479 -1.5608
11380SOL    HW246119   1.727   5.576   7.107 -1.3748  0.0420  0.9872
11381SOL     OW46120   1.510   5.111   6.326  0.2877  0.3675 -0.1449
11381SOL    HW146121   1.482   5.033   6.373 -1.0632  0.3712 -0.8821
11381SOL    HW246122   1.527   5.176   6.394  2.5771 -0.8709  0.5563
11382SOL     OW46123   5.223   8.077   1.171  0.2228 -0.4346  0.1048
11382SOL    HW146124   5.243   7.992   1.209  0.8808 -0.1065  0.5227
11382SOL    HW246125   5.303   8.104   1.127  0.4211  0.4796  0.9785
11383SOL     OW46126   6.405   8.776   0.238  0.1769 -0.1197 -0.2044
11383SOL    HW146127   6.359   8.768   0.154 -1.0368 -0.5523  0.4759
11383SOL    HW246128   6.496   8.757   0.217 -0.4741 -2.8909 -1.0249
11384SOL     OW46129   0.854   3.524   8.084 -0.2563  0.1903  0.1196
11384SOL    HW146130   0.891   3.437   8.092 -0.7606 -0.0935 -0.5081
11384SOL    HW246131   0.797   3.519   8.006  0.4592  1.3418 -0.5045
11385SOL     OW46132   7.780   1.454   9.435  0.2830 -0.9477  0.0536
11385SOL    HW146133   7.837   1.522   9.399 -0.1965 -1.1897 -1.1827
11385SOL    HW246134   7.747   1.406   9.359 -1.2291 -1.0909  0.7599
11386SOL     OW46135   9.982   1.396   1.684 -0.4385  0.3558  0.1435
11386SOL    HW146136   9.937   1.451   1.748  0.8135  0.6349  0.8198
11386SOL    HW246137   9.930   1.404   1.604  0.6360  4.0117 -0.3629
11387SOL     OW46138  10.213   9.842   0.971 -0.1385  0.6366 -0.0284
11387SOL    HW146139  10.205   9.797   0.887 -1.9392 -0.5400  0.7017
11387SOL    HW246140  10.165   9.787   1.033  0.5185  1.8310  1.6393
11388SOL     OW46141   4.670   2.290   7.258  0.7845  0.4889  0.1651
11388SOL    HW146142   4.589   2.271   7.211  0.8529 -2.0851  0.9550
11388SOL    HW246143   4.737   2.290   7.191  0.6566 -1.5711 -0.0298
11389SOL     OW46144   7.195   9.923   4.927 -0.2832 -0.0634 -0.4294
11389SOL    HW146145   7.286   9.894   4.935  0.0600  1.4305  2.1781
11389SOL    HW246146   7.152   9.889   5.005 -1.6951  0.2279 -1.0536
11390SOL     OW46147   1.096   1.085   4.436 -0.1329  0.0028  0.8454
11390SOL    HW146148   1.151   1.041   4.372 -0.2848 -0.0899  0.7772
11390SOL    HW246149   1.020   1.027   4.446 -0.0679 -0.0246  1.1719
11391SOL     OW46150   9.937   3.975   8.348  0.1325 -0.5203  0.2687
11391SOL    HW146151   9.867   3.979   8.413  0.4373 -0.0844  0.5763
11391SOL    HW246152   9.935   4.061   8.305 -0.1331 -0.8393 -0.3766
11392SOL     OW46153   8.347   6.618   9.776 -0.1026 -0.0580  0.3297
11392SOL    HW146154   8.330   6.535   9.731 -0.4480 -0.5929  1.4137
11392SOL    HW246155   8.404   6.666   9.716 -0.8043 -0.6082 -0.8109
11393SOL     OW46156   0.972   0.089   8.340 -0.1157 -0.2647  0.3734
11393SOL    HW146157   0.887   0.082   8.295  0.6568  0.5183 -1.3111
11393SOL    HW246158   0.989   0.183   8.344  1.7312 -0.4328 -1.5261
11394SOL     OW46159   7.633   6.623   2.930 -0.4512  0.2483 -0.0563
11394SOL    HW146160   7.705   6.684   2.948  0.1337  0.3657 -2.4299
11394SOL    HW246161   7.594   6.655   2.849 -1.9326 -0.9542  0.1411
11395SOL     OW46162   7.640   6.350   5.077 -0.7424 -0.3861 -0.2648
11395SOL    HW146163   7.556   6.305   5.090 -1.5113  1.3786  1.5217
11395SOL    HW246164   7.672   6.367   5.165  0.3543  0.9971 -0.8873
11396SOL     OW46165   1.087   9.546   8.267  0.7112 -0.0128  0.5291
11396SOL    HW146166   1.110   9.458   8.236  0.5476  0.2481 -0.3388
11396SOL    HW246167   1.100   9.541   8.362 -0.3718 -1.3135  0.6532
11397SOL     OW46168   0.200   4.470   9.447 -0.5371  0.5060 -0.0343
11397SOL    HW146169   0.125   4.436   9.497 -0.7326  0.2878 -0.4720
11397SOL    HW246170   0.163   4.495   9.362 -0.0804  0.2216 -0.3203
11398SOL     OW46171   2.514   3.669   8.290 -0.5812  0.0539 -0.4582
11398SOL    HW146172   2.489   3.650   8.200 -0.2852 -3.1301  0.0106
11398SOL    HW246173   2.607   3.690   8.286 -0.5482 -0.1763 -0.8825
11399SOL     OW46174   4.102   5.841   7.744 -0.0538 -0.2077  0.1175
11399SOL    HW146175   4.194   5.866   7.747  0.1913 -1.0102 -0.3728
11399SOL    HW246176   4.082   5.812   7.833 -0.1770  1.0720  0.5347
11400SOL     OW46177   8.981   8.833   2.044 -0.0553  0.3521 -0.1277
11400SOL    HW146178   8.923   8.829   2.120  0.4827  0.0534  0.2638
11400SOL    HW246179   9.056   8.884   2.074 -0.5344  1.5701 -0.9196
11401SOL     OW46180   2.682   4.164   8.193  0.3762  0.1235 -0.0768
11401SOL    HW146181   2.676   4.072   8.166 -0.5978  0.2188 -0.2117
11401SOL    HW246182   2.774   4.176   8.216  0.7533 -0.5778 -1.1445
11402SOL     OW46183   1.353   6.236   9.276  0.1305 -0.2330  0.2426
11402SOL    HW146184   1.283   6.186   9.235 -0.1221  0.6251 -0.4066
11402SOL    HW246185   1.345   6.216   9.370 -0.8402 -0.3174  0.1524
11403SOL     OW46186   9.893   7.391   6.227 -0.1631  0.0672 -0.2788
11403SOL    HW146187   9.881   7.360   6.138  0.7771 -1.0474 -0.0452
11403SOL    HW246188   9.851   7.324   6.282 -1.3100  1.0636  0.1157
11404SOL     OW46189   7.953   1.169   4.355  0.1195 -0.3306  0.5535
11404SOL    HW146190   7.962   1.263   4.343 -1.3644 -0.3133 -0.7417
11404SOL    HW246191   8.031   1.132   4.312 -2.1839  0.0802 -4.8178
11405SOL     OW46192  10.074   4.248  10.195  0.0304 -0.6017 -0.0473
11405SOL    HW146193  10.109   4.187  10.260 -1.3698 -1.0953  0.2727
11405SOL    HW246194  10.152   4.289  10.157  0.9077 -0.4354  1.7969
11406SOL     OW46195   3.094   2.067   2.580 -0.1758 -0.0938  0.0406
11406SOL    HW146196   3.181   2.055   2.542 -0.0243 -0.0054  0.3570
11406SOL    HW246197   3.095   2.012   2.658  0.2097  1.2534  1.0151
11407SOL     OW46198   3.063   4.076   4.656  0.7608  0.1525 -0.4507
11407SOL    HW146199   3.101   3.994   4.688  1.5924  0.2262 -1.2127
11407SOL    HW246200   3.005   4.105   4.726  0.0104 -1.3817 -0.4083
11408SOL     OW46201   4.419   6.435   6.085  0.0453 -0.0176 -0.6854
11408SOL    HW146202   4.345   6.487   6.117 -1.5312 -1.3310 -2.0036
11408SOL    HW246203   4.466   6.409   6.164 -1.6342 -0.1985  0.3045
11409SOL     OW46204   2.522   0.036   1.224  0.0667 -0.4229  0.2312
11409SOL    HW146205   2.529   0.099   1.296 -0.3652  0.1959 -0.2626
11409SOL    HW246206   2.484  -0.042   1.264 -0.7038  0.1126  0.5566
11410SOL     OW46207   6.724   2.605   5.800  0.3501 -0.0748  0.1316
11410SOL    HW146208   6.754   2.569   5.884  0.8991  1.8809  0.8315
11410SOL    HW246209   6.779   2.682   5.786  0.0448 -0.1752 -1.8931
11411SOL     OW46210   4.359   8.292   7.723 -0.6527 -0.1699  0.0277
11411SOL    HW146211   4.402   8.236   7.659 -2.7494 -3.0538  0.9183
11411SOL    HW246212   4.419   8.365   7.736  1.5839 -1.4340 -2.3305
11412SOL     OW46213   5.813   3.184   6.510 -0.1976  0.4531 -0.1472
11412SOL    HW146214   5.878   3.237   6.555  0.1232 -1.8303  2.3370
11412SOL    HW246215   5.778   3.126   6.578 -1.7506 -1.3140 -2.3015
11413SOL     OW46216   5.952   0.111   2.857  0.0627 -0.5143 -0.1240
11413SOL    HW146217   6.024   0.056   2.887  0.6573 -0.1979 -0.9199
11413SOL    HW246218   5.962   0.192   2.905 -0.9154 -1.1342  1.1760
11414SOL     OW46219   7.182  10.314   4.664  0.3025  0.1391  0.0693
11414SOL    HW146220   7.155  10.405   4.648 -0.6970 -0.2866 -0.7300
11414SOL    HW246221   7.188  10.275   4.578  2.5394 -0.0928  0.2808
11415SOL     OW46222   5.157   5.284   1.830  0.1564 -0.0632  0.4281
11415SOL    HW146223   5.146   5.221   1.759  1.4849 -1.3971  1.3495
11415SOL    HW246224   5.231   5.339   1.802  1.2913 -1.1738  1.1180
11416SOL     OW46225   2.872   0.516   2.418 -0.2833 -0.6435 -0.7299
11416SOL    HW146226   2.778   0.516   2.399 -0.4283 -0.4595 -0.0274
11416SOL    HW246227   2.913   0.504   2.333 -0.9628 -1.3568 -0.9701
11417SOL     OW46228   3.583   2.756   8.094 -0.1221  0.2091 -0.3825
11417SOL    HW146229   3.619   2.706   8.020  0.0211  0.7795 -0.6992
11417SOL    HW246230   3.565   2.842   8.058  0.6270  0.7190  0.4254
11418SOL     OW46231   9.560   8.919   6.351 -0.6093  0.3132 -0.6664
11418SOL    HW146232   9.628   8.912   6.284  0.3452  2.3714 -0.0084
11418SOL    HW246233   9.592   8.867   6.425 -1.6492 -1.9324 -1.7001
11419SOL     OW46234   7.336   8.344   1.903 -0.5274 -0.1231  0.0380
11419SOL    HW146235   7.274   8.288   1.857 -0.5987 -0.4258  0.4992
11419SOL    HW246236   7.410   8.351   1.844 -1.1546  0.5506 -0.6850
11420SOL     OW46237   5.844   8.747   9.970 -0.0222  0.5485 -0.0422
11420SOL    HW146238   5.880   8.834   9.953 -0.4001  0.3594 -1.9461
11420SOL    HW246239   5.919   8.688   9.962  0.4059  0.7130  2.0440
11421SOL     OW46240   8.209   4.178   3.797 -0.0573  0.2993  0.1213
11421SOL    HW146241   8.272   4.247   3.819  0.8738 -0.1632 -1.0217
11421SOL    HW246242   8.149   4.218   3.736  1.9654 -0.4845 -2.5871
11422SOL     OW46243   8.582   9.897   7.597  0.3601  0.3800  0.0990
11422SOL    HW146244   8.608   9.834   7.664  2.2678 -1.0975 -1.8643
11422SOL    HW246245   8.554   9.974   7.646 -0.3090 -1.3097  2.5788
11423SOL     OW46246   6.039   0.568   7.911 -0.1407  0.2295 -0.2319
11423SOL    HW146247   6.016   0.661   7.914  1.2506  0.5858  0.2299
11423SOL    HW246248   5.961   0.523   7.943 -0.1758  1.3819  1.4549
11424SOL     OW46249   9.027   6.045   1.440  0.4694 -0.2282  0.0330
11424SOL    HW146250   8.995   6.099   1.368 -1.6673 -0.7847  0.5018
11424SOL    HW246251   9.027   6.103   1.516  1.0249 -0.1153 -0.0485
11425SOL     OW46252   0.410   1.370   1.020  0.1604  0.5346  0.3853
11425SOL    HW146253   0.323   1.331   1.014 -0.8739  2.7939 -0.6401
11425SOL    HW246254   0.439   1.377   0.929  1.3356  0.0321  0.6994
11426SOL     OW46255   0.300   7.034   7.046  0.8545 -1.1591  0.5101
11426SOL    HW146256   0.243   7.101   7.006 -0.5541 -1.9595  1.1111
11426SOL    HW246257   0.387   7.074   7.046 -0.0457  0.9756  1.4563
11427SOL     OW46258   3.338   1.818   8.231 -0.2571 -0.2434 -0.0631
11427SOL    HW146259   3.396   1.854   8.298  0.3824 -2.3717  0.5797
11427SOL    HW246260   3.250   1.846   8.258  0.1124 -0.0632  0.9901
11428SOL     OW46261   0.545   3.244   4.742 -0.1638  0.2778  0.5716
11428SOL    HW146262   0.586   3.175   4.795 -0.3420 -1.6803 -1.6430
11428SOL    HW246263   0.616   3.274   4.684 -0.5243  0.6839  0.3386
11429SOL     OW46264   0.497   0.956   2.631 -0.1525 -0.1742 -0.3724
11429SOL    HW146265   0.564   0.956   2.700 -0.6373 -1.6625  0.1366
11429SOL    HW246266   0.543   0.985   2.552  0.4697  1.3521  0.4983
11430SOL     OW46267   7.096   2.304   6.638  0.3521  0.7091  0.3120
11430SOL    HW146268   7.086   2.340   6.726  0.1517 -0.3012  0.7080
11430SOL    HW246269   7.007   2.290   6.607  0.4214  1.0733 -0.0638
11431SOL     OW46270   3.345   0.917   4.572 -0.6694  0.4738 -0.3067
11431SOL    HW146271   3.407   0.918   4.500  2.4110 -0.7578  2.0807
11431SOL    HW246272   3.337   1.009   4.599 -0.0257  0.6711 -0.7787
11432SOL     OW46273   0.245   7.297   8.189 -0.1169  0.3176  0.0583
11432SOL    HW146274   0.304   7.372   8.181  1.1216 -0.6028  0.3015
11432SOL    HW246275   0.258   7.247   8.109 -0.1410 -0.1881  0.3671
11433SOL     OW46276   4.699   0.103   2.145 -0.4693 -0.3223 -0.3165
11433SOL    HW146277   4.733   0.140   2.063  2.1130  1.8144  1.5875
11433SOL    HW246278   4.717   0.169   2.211 -0.5730 -2.8090  2.4019
11434SOL     OW46279   1.518   4.089   4.482  0.4777 -0.2860 -0.3432
11434SOL    HW146280   1.479   4.112   4.567  0.1694  0.1032 -0.5868
11434SOL    HW246281   1.581   4.020   4.503  2.1144  1.3787  0.5574
11435SOL     OW46282   2.625   6.156   6.705  0.2281 -0.0955  0.4218
11435SOL    HW146283   2.536   6.124   6.693 -1.0906  3.3435 -0.1068
11435SOL    HW246284   2.625   6.195   6.792 -0.4968  4.3381 -1.3331
11436SOL     OW46285   1.979   2.220   7.158 -0.2898  0.1668  0.1975
11436SOL    HW146286   1.913   2.231   7.226  1.2823  1.9750  1.5351
11436SOL    HW246287   2.037   2.295   7.168  1.4881 -0.8756 -1.4813
11437SOL     OW46288   0.411   1.186   3.977 -0.1097  1.0022 -0.2070
11437SOL    HW146289   0.496   1.210   4.013 -0.0449  0.5057 -0.0144
11437SOL    HW246290   0.428   1.163   3.886  0.0512  0.4506 -0.0462
11438SOL     OW46291   2.318   7.439   3.907 -0.1533  0.9139 -0.0454
11438SOL    HW146292   2.261   7.363   3.910 -0.0434  0.8098 -0.5220
11438SOL    HW246293   2.281   7.500   3.971 -0.2939  0.4991  0.2700
11439SOL     OW46294   7.650   6.146   9.261 -0.7036 -0.1676 -0.0819
11439SOL    HW146295   7.682   6.075   9.317  1.3070  0.4113 -0.3980
11439SOL    HW246296   7.563   6.117   9.233 -1.0991 -1.2303  1.9762
11440SOL     OW46297   3.005   9.057   6.082 -0.2386 -0.2197 -0.0454
11440SOL    HW146298   3.083   9.103   6.052 -1.5521  1.3558 -1.2823
11440SOL    HW246299   2.967   9.115   6.148 -1.3456  0.0011 -0.8369
11441SOL     OW46300   0.954   2.310   8.843  0.2141  0.2101  0.2945
11441SOL    HW146301   0.981   2.361   8.919 -1.8207 -0.6294  1.6663
11441SOL    HW246302   0.881   2.359   8.805 -1.0336 -1.0722  0.9664
11442SOL     OW46303   1.702   4.181   7.154 -0.6995 -0.0250  0.2378
11442SOL    HW146304   1.795   4.185   7.173 -0.3399  1.7363 -1.5451
11442SOL    HW246305   1.659   4.218   7.232  0.3298  1.9364 -0.0569
11443SOL     OW46306   4.226   1.867   7.416 -0.3299  0.2154 -0.1238
11443SOL    HW146307   4.195   1.918   7.491  1.2501  1.0043  0.0448
11443SOL    HW246308   4.277   1.930   7.364 -1.3864 -0.3102 -1.8720
11444SOL     OW46309   8.272   6.821   1.649  0.1920  0.0298  0.0222
11444SOL    HW146310   8.254   6.915   1.646 -0.6301 -0.1259 -0.0977
11444SOL    HW246311   8.220   6.789   1.723  0.2683 -0.3741 -0.0980
11445SOL     OW46312   1.128   0.655   8.604 -0.2113  0.2822 -0.3135
11445SOL    HW146313   1.033   0.661   8.600 -0.1346  1.7038 -0.7476
11445SOL    HW246314   1.157   0.686   8.518  0.5903 -3.1722 -1.4360
11446SOL     OW46315   4.317   4.346   8.590 -0.2312  0.2551  0.3047
11446SOL    HW146316   4.221   4.345   8.591 -0.2558  0.6427  2.4924
11446SOL    HW246317   4.343   4.269   8.641  0.5257  1.7123  2.2537
11447SOL     OW46318   9.681   2.491   8.304  0.2575 -0.1245 -0.1223
11447SOL    HW146319   9.625   2.419   8.274 -0.5111 -0.0935  1.1815
11447SOL    HW246320   9.760   2.447   8.337 -0.2577 -0.4025  0.7790
11448SOL     OW46321   0.787   0.644   8.556 -0.3245  0.9144 -0.0668
11448SOL    HW146322   0.758   0.553   8.559  0.6531  0.5485 -1.0028
11448SOL    HW246323   0.738   0.687   8.626 -0.6753 -0.3600  0.5023
11449SOL     OW46324   5.096   0.985   6.123  0.0488 -0.1845 -0.5762
11449SOL    HW146325   5.119   0.962   6.032 -0.5140  2.8228 -1.5772
11449SOL    HW246326   5.177   1.021   6.159  0.1027 -0.8031 -0.0728
11450SOL     OW46327   3.979   2.117   2.736 -0.3709  0.0310  0.2712
11450SOL    HW146328   4.044   2.057   2.700  1.8057  1.9973  0.7397
11450SOL    HW246329   3.969   2.185   2.669  1.2882  1.9823  1.8983
11451SOL     OW46330   4.036   8.528   9.447  0.5071  1.0898  0.7234
11451SOL    HW146331   4.069   8.505   9.534  0.1783  1.1026  0.8546
11451SOL    HW246332   3.965   8.591   9.464  0.7524  1.4584  0.4214
11452SOL     OW46333   9.905   6.620   4.163  0.4686  0.5025 -0.1164
11452SOL    HW146334   9.879   6.542   4.213 -1.3739  2.2202  1.7767
11452SOL    HW246335   9.958   6.671   4.224  2.1308  0.5211 -1.5213
11453SOL     OW46336   9.265   9.429   1.513  0.2862  0.2040  0.3241
11453SOL    HW146337   9.197   9.495   1.501  1.1511  1.0248 -0.2260
11453SOL    HW246338   9.256   9.400   1.604 -0.5507  0.5653  0.3565
11454SOL     OW46339   2.831   6.712   7.765 -0.4615  0.7412 -0.1702
11454SOL    HW146340   2.914   6.739   7.727  0.4157 -0.6994  0.6391
11454SOL    HW246341   2.809   6.783   7.827  0.7890  0.5763  0.4924
11455SOL     OW46342   7.060   0.507   6.566  0.1979  0.4021  0.0844
11455SOL    HW146343   7.145   0.490   6.607 -0.2518 -0.9206  0.5460
11455SOL    HW246344   7.006   0.432   6.593 -0.8171  0.7206 -1.0049
11456SOL     OW46345   8.737   8.882   7.690  0.2114 -0.3519  0.2532
11456SOL    HW146346   8.832   8.879   7.699  0.1916  0.1401  0.7197
11456SOL    HW246347   8.715   8.975   7.700 -0.3424 -0.4983  0.4475
11457SOL     OW46348   0.680   7.884   1.916 -0.0433 -0.2891 -0.1863
11457SOL    HW146349   0.620   7.905   1.844 -1.1297 -2.1260  0.1119
11457SOL    HW246350   0.755   7.942   1.902 -1.9943  2.4129 -0.3773
11458SOL     OW46351   2.353   1.140   7.175  0.2293  1.3373  0.5868
11458SOL    HW146352   2.444   1.158   7.150  0.2078 -0.6279 -1.2390
11458SOL    HW246353   2.360   1.075   7.244  0.3275 -1.1636 -1.6014
11459SOL     OW46354  10.154   0.094   4.923  0.2557  0.3756  0.5094
11459SOL    HW146355  10.072   0.140   4.936  0.9516  1.3936  1.4915
11459SOL    HW246356  10.203   0.149   4.862  1.4623  1.4760  2.3951
11460SOL     OW46357   0.502   3.445   1.653  0.1565  0.4502  0.0174
11460SOL    HW146358   0.510   3.504   1.728 -2.5945  1.0022 -0.0293
11460SOL    HW246359   0.463   3.366   1.689  1.0106 -0.1943 -0.4484
11461SOL     OW46360   6.202   2.132   8.131  0.1258  0.7248  0.0653
11461SOL    HW146361   6.252   2.079   8.194  0.9946  2.4957  0.9502
11461SOL    HW246362   6.150   2.191   8.186 -3.5363 -1.3840 -0.7895
11462SOL     OW46363  10.357   8.888   3.790  0.5397 -0.3587 -0.2102
11462SOL    HW146364  10.278   8.914   3.744  0.0936 -0.3251  0.5598
11462SOL    HW246365  10.378   8.964   3.846  0.4406 -0.8224  0.4659
11463SOL     OW46366   5.856   2.058   8.231 -0.1611 -0.1356 -0.1072
11463SOL    HW146367   5.821   2.046   8.142  0.8798 -0.1498 -0.5353
11463SOL    HW246368   5.886   2.149   8.232 -0.5704 -0.0025  0.3857
11464SOL     OW46369   1.778   5.355   1.753  0.2465  0.0542 -0.2498
11464SOL    HW146370   1.714   5.418   1.787 -0.4992 -1.0539  0.4795
11464SOL    HW246371   1.725   5.283   1.719  1.0659 -1.7523  2.0403
11465SOL     OW46372   2.825   4.147   2.867 -0.7886 -0.1548  0.1033
11465SOL    HW146373   2.843   4.069   2.919 -0.1804 -1.0570 -1.3938
11465SOL    HW246374   2.785   4.209   2.928 -0.2474 -1.2260  1.5779
11466SOL     OW46375   7.780   9.056   2.987  0.1492 -0.1659 -0.0231
11466SOL    HW146376   7.793   9.071   3.081  0.2606  0.8467 -0.1938
11466SOL    HW246377   7.853   8.998   2.962  1.9649  2.0217 -0.0885
11467SOL     OW46378   0.966   3.584  10.349  0.4933 -0.2271  0.2682
11467SOL    HW146379   1.046   3.631  10.373 -0.1372  1.0733 -0.0936
11467SOL    HW246380   0.897   3.650  10.354 -0.6287 -1.4112  0.9068
11468SOL     OW46381   7.586   1.326   0.139  0.3198  0.0070 -0.5128
11468SOL    HW146382   7.611   1.262   0.072  0.8328  0.7957 -1.0929
11468SOL    HW246383   7.666   1.339   0.190 -0.2049 -0.9815  0.6104
11469SOL     OW46384   5.004  10.039   9.867  0.8424  0.5294  0.5996
11469SOL    HW146385   5.000  10.117   9.811 -2.4336  3.4631  4.2511
11469SOL    HW246386   5.075  10.057   9.928  0.3658  0.5277  1.1729
11470SOL     OW46387   3.461   4.415   1.134 -0.1656  0.0607 -0.0158
11470SOL    HW146388   3.514   4.459   1.068 -0.9171  0.7146 -0.2020
11470SOL    HW246389   3.371   4.430   1.106 -0.4471 -1.8886 -0.2590
11471SOL     OW46390   7.842   2.212   7.925 -0.3020 -0.0619  0.6613
11471SOL    HW146391   7.783   2.171   7.862 -2.4174  2.5943  0.6850
11471SOL    HW246392   7.878   2.288   7.878 -0.6863  1.0648  2.0979
11472SOL     OW46393   6.056   3.357   2.214  0.2796  0.2234  0.3134
11472SOL    HW146394   6.127   3.420   2.204 -0.6437  1.1144 -0.8367
11472SOL    HW246395   6.039   3.326   2.126 -1.4899  0.8499  0.4068
11473SOL     OW46396   2.233   9.737   4.141  0.1455  0.1147 -0.1073
11473SOL    HW146397   2.269   9.784   4.216  2.0804 -0.0691 -0.8465
11473SOL    HW246398   2.262   9.647   4.153  0.5333  0.0939 -1.0688
11474SOL     OW46399   8.000   0.117  10.187  0.5733 -0.0185 -0.8730
11474SOL    HW146400   8.094   0.113  10.205  0.2582 -0.2851  0.8823
11474SOL    HW246401   7.968   0.030  10.210 -0.1423  0.1543 -1.1983
11475SOL     OW46402   7.496  10.164   0.757  0.0422  0.0186  0.0006
11475SOL    HW146403   7.551  10.196   0.828  0.2404 -1.4631  0.5536
11475SOL    HW246404   7.521  10.072   0.746 -1.5744 -0.4096 -0.4444
11476SOL     OW46405   3.713   7.533   6.906  0.1486  0.8220  0.5770
11476SOL    HW146406   3.768   7.611   6.916  0.9972  0.2221  0.7453
11476SOL    HW246407   3.723   7.486   6.989 -0.5556  0.6551  0.5719
11477SOL     OW46408   0.773   6.930   0.402 -0.6541 -0.2072 -0.3853
11477SOL    HW146409   0.868   6.939   0.392 -0.7712  2.5196 -0.0124
11477SOL    HW246410   0.760   6.915   0.495 -0.5738 -2.0456 -0.6375
11478SOL     OW46411   3.819   4.659   3.991 -0.2035 -0.4777  0.2824
11478SOL    HW146412   3.798   4.578   3.945  0.8180  0.2794 -1.6710
11478SOL    HW246413   3.873   4.709   3.929 -0.1125  1.3555  1.7134
11479SOL     OW46414  10.265   5.023   2.723  0.2012 -0.3266  0.5262
11479SOL    HW146415  10.269   5.094   2.658 -0.3970  0.4752  1.3375
11479SOL    HW246416  10.215   5.060   2.796  0.8440 -1.2145  1.4499
11480SOL     OW46417   4.331   1.539   7.149 -0.2783  0.0986  0.3522
11480SOL    HW146418   4.344   1.454   7.192  1.6822 -1.4858 -2.9783
11480SOL    HW246419   4.403   1.593   7.182  0.0485 -0.4296  0.5279
11481SOL     OW46420   3.462   7.556   3.930  0.2161  0.4117  0.7014
11481SOL    HW146421   3.433   7.636   3.975 -0.0987  0.9840 -0.4743
11481SOL    HW246422   3.381   7.505   3.917  0.3291  0.1746  0.9217
11482SOL     OW46423   3.378   0.487   5.506 -0.5840  0.0952 -0.0009
11482SOL    HW146424   3.350   0.425   5.439 -0.4265 -0.1292  0.1410
11482SOL    HW246425   3.454   0.530   5.469  0.0608 -0.6799  0.4017
11483SOL     OW46426   3.981   0.772   2.967  0.0019 -0.3730 -0.2336
11483SOL    HW146427   3.927   0.706   2.924 -1.3623 -0.7408  1.8928
11483SOL    HW246428   4.053   0.788   2.906 -1.2670 -1.5701 -2.1420
11484SOL     OW46429   6.470   8.781   1.301  0.5925 -0.0451 -0.0898
11484SOL    HW146430   6.517   8.762   1.220  0.1234 -0.4979 -0.2613
11484SOL    HW246431   6.498   8.713   1.362  0.7888  0.1749  0.0675
11485SOL     OW46432   6.011   8.201   6.281 -0.3814  0.0545  0.3986
11485SOL    HW146433   6.078   8.263   6.311 -0.1297 -0.7194  1.4881
11485SOL    HW246434   5.929   8.248   6.291 -0.4599 -0.5163  3.5274
11486SOL     OW46435   0.042   5.366   0.133  0.0410 -0.3960 -0.0408
11486SOL    HW146436  -0.004   5.325   0.060 -2.5193  0.8794  0.7484
11486SOL    HW246437   0.053   5.457   0.105 -1.8763  0.3660  1.4558
11487SOL     OW46438   9.923   3.560   8.774 -0.6850  0.2620  0.3412
11487SOL    HW146439  10.008   3.519   8.756  0.9209  2.7321  1.7104
11487SOL    HW246440   9.859   3.501   8.734  1.7783 -0.2443 -3.3807
11488SOL     OW46441   0.647   8.852   8.348 -0.5522  0.1028  0.4915
11488SOL    HW146442   0.739   8.876   8.338 -0.9746  1.1649 -1.3546
11488SOL    HW246443   0.647   8.756   8.348  0.6827  0.0617  2.3467
11489SOL     OW46444   9.304   5.614   3.671  0.1732 -0.4139  0.1473
11489SOL    HW146445   9.280   5.524   3.647  0.1334 -0.3740  0.0389
11489SOL    HW246446   9.361   5.604   3.747  0.1964 -0.5329  0.1140
11490SOL     OW46447   8.395   4.862   7.633  0.7000  0.5699 -0.1911
11490SOL    HW146448   8.414   4.814   7.552 -0.3820  1.3777 -0.9623
11490SOL    HW246449   8.391   4.954   7.606 -0.9812  0.7370  0.4956
11491SOL     OW46450   3.028   8.842   2.885  0.0527  0.6324  0.0701
11491SOL    HW146451   3.013   8.748   2.892 -2.2512  0.9218 -0.3000
11491SOL    HW246452   3.064   8.853   2.797  0.1879  0.1279  0.0559
11492SOL     OW46453   6.263   9.314  10.385 -0.1820  0.2967  0.2803
11492SOL    HW146454   6.285   9.330  10.294  1.2525  1.5466  0.8011
11492SOL    HW246455   6.197   9.381  10.405 -0.8414 -0.2787  0.0387
11493SOL     OW46456   9.347   8.782   5.926  0.6975  0.2864  0.1805
11493SOL    HW146457   9.395   8.858   5.893  0.4537 -0.4947 -2.1885
11493SOL    HW246458   9.405   8.708   5.908 -0.7157 -0.5100 -1.3926
11494SOL     OW46459   7.371   0.252   3.821  0.5530  0.0495  0.1888
11494SOL    HW146460   7.339   0.176   3.870  0.8880  0.0195  0.3656
11494SOL    HW246461   7.457   0.225   3.788  1.0694  0.6479  0.9836
11495SOL     OW46462   4.775   7.550   2.482  0.2219  0.5014  0.4193
11495SOL    HW146463   4.847   7.524   2.539 -0.0069  2.0730  1.4870
11495SOL    HW246464   4.747   7.469   2.441  1.7571 -0.3493  0.9541
11496SOL     OW46465   4.741   0.726   6.710 -0.0395 -0.0296 -0.5056
11496SOL    HW146466   4.652   0.713   6.678 -0.1743  1.8037 -0.9866
11496SOL    HW246467   4.731   0.785   6.785  0.8676  1.2934 -1.3949
11497SOL     OW46468   9.354   4.583   6.616 -0.3469  0.0834  0.3679
11497SOL    HW146469   9.330   4.515   6.679 -1.3432 -0.0021 -0.0772
11497SOL    HW246470   9.289   4.652   6.630 -1.7407 -0.6845 -1.7359
11498SOL     OW46471   7.662   3.790   1.517 -0.0668  0.1228  0.4240
11498SOL    HW146472   7.605   3.755   1.586  0.0416 -0.4459  0.2299
11498SOL    HW246473   7.625   3.876   1.497  0.1846  0.5119  1.5334
11499SOL     OW46474   1.208   0.760   0.320 -0.7145 -0.4783 -0.3447
11499SOL    HW146475   1.220   0.831   0.256 -2.4379  1.3144  1.1530
11499SOL    HW246476   1.270   0.780   0.390 -2.7594  1.0785  1.1853
11500SOL     OW46477   7.724   9.397   5.112 -1.0273 -1.0244  0.5951
11500SOL    HW146478   7.785   9.438   5.174  0.4619 -0.0151 -1.4087
11500SOL    HW246479   7.737   9.303   5.125 -0.8423 -0.8420  1.8765
11501SOL     OW46480   9.746  10.300   7.849 -0.8754 -0.3491 -0.0171
11501SOL    HW146481   9.827  10.308   7.898 -0.7074 -0.8796 -0.2045
11501SOL    HW246482   9.769  10.248   7.772 -2.0014 -3.3019  1.4504
11502SOL     OW46483   2.534   3.347   8.809 -0.9426 -0.2436  0.0568
11502SOL    HW146484   2.552   3.441   8.799 -1.2817 -0.1703  0.1266
11502SOL    HW246485   2.605   3.304   8.761 -0.5174  0.0391  0.4328
11503SOL     OW46486   1.370   6.223   0.687  0.0371  0.1721 -1.0447
11503SOL    HW146487   1.309   6.297   0.690 -0.6660 -0.3928 -0.9989
11503SOL    HW246488   1.355   6.183   0.601  0.4286  0.0979 -1.0790
11504SOL     OW46489   9.378   4.670   4.329  0.1541  0.1359  0.2166
11504SOL    HW146490   9.363   4.576   4.326 -1.1409  0.3212  0.2075
11504SOL    HW246491   9.454   4.681   4.386  0.7049 -0.9437 -0.2779
11505SOL     OW46492   8.343   2.708   7.061 -0.3883 -0.0170 -0.3693
11505SOL    HW146493   8.301   2.790   7.089 -0.9250 -0.9098  1.6066
11505SOL    HW246494   8.273   2.657   7.022 -0.1968  0.1542 -0.9594
11506SOL     OW46495   3.883   0.484   7.477 -0.4037  0.0766  0.4414
11506SOL    HW146496   3.818   0.487   7.406  1.0803  1.1828 -0.9538
11506SOL    HW246497   3.901   0.391   7.489 -0.3659 -0.1163 -0.9526
11507SOL     OW46498   1.784   6.777   7.058 -0.1623 -0.1628  0.1912
11507SOL    HW146499   1.869   6.819   7.063 -0.7476  0.9632  1.0513
11507SOL    HW246500   1.748   6.807   6.974  0.2665 -0.6236 -0.1632
11508SOL     OW46501   9.278   7.515   9.318  0.4414  0.1352 -0.1265
11508SOL    HW146502   9.312   7.528   9.230  1.1521  1.9635  0.3694
11508SOL    HW246503   9.187   7.543   9.313  0.7558  1.2249 -0.0877
11509SOL     OW46504   8.552   7.353  10.102 -0.3091  0.1927 -0.2175
11509SOL    HW146505   8.645   7.375  10.114  0.2794 -2.5375  1.1123
11509SOL    HW246506   8.506   7.409  10.164  0.6674  0.4488  0.3002
11510SOL     OW46507   0.568   5.356   2.385  0.0420 -0.0111 -0.0121
11510SOL    HW146508   0.515   5.301   2.327  0.8161 -1.2986  0.4587
11510SOL    HW246509   0.588   5.433   2.333  0.0371 -0.7641 -1.1755
11511SOL     OW46510   7.314   2.815   5.643 -0.4467 -0.1692 -0.2665
11511SOL    HW146511   7.312   2.793   5.736  0.2996 -1.8644 -0.6070
11511SOL    HW246512   7.247   2.759   5.604 -1.1204  0.9093 -0.7018
11512SOL     OW46513   0.504   1.708   6.421 -0.0959 -0.2416  0.1870
11512SOL    HW146514   0.543   1.775   6.364  0.6329 -1.0237 -0.2567
11512SOL    HW246515   0.418   1.743   6.443 -0.7611 -0.2570 -2.0942
11513SOL     OW46516   0.783   2.044   8.026  0.1818  0.1155 -0.2698
11513SOL    HW146517   0.773   1.975   7.960  1.0655 -2.2377  1.8589
11513SOL    HW246518   0.730   2.116   7.995 -0.1468 -1.2159 -3.0666
11514SOL     OW46519   0.563   3.798   6.341 -0.0039  0.3807 -0.3502
11514SOL    HW146520   0.550   3.776   6.249  1.7855  0.2111 -0.5932
11514SOL    HW246521   0.654   3.774   6.359 -0.0943  1.1123  1.2619
11515SOL     OW46522   9.266   7.793   2.547  0.2764 -0.2753 -0.2572
11515SOL    HW146523   9.197   7.851   2.513  0.5423 -0.0489 -0.4178
11515SOL    HW246524   9.304   7.752   2.469  0.6693 -0.0035 -0.2132
11516SOL     OW46525   4.661   0.411   6.435  0.1165 -0.3189  0.0312
11516SOL    HW146526   4.694   0.474   6.372 -0.0154  0.0068  0.2851
11516SOL    HW246527   4.737   0.391   6.490 -0.2419  0.9168  1.0176
11517SOL     OW46528   6.661   1.448   7.217 -0.6212 -0.3385 -0.1040
11517SOL    HW146529   6.696   1.537   7.207  0.8147 -0.8597  0.0716
11517SOL    HW246530   6.619   1.449   7.303  1.7320 -0.5233  1.1370
11518SOL     OW46531   1.662   3.008   5.115  0.0701 -0.1333  0.6629
11518SOL    HW146532   1.586   2.956   5.141 -0.5256 -0.0496 -0.8230
11518SOL    HW246533   1.719   2.946   5.069 -1.1921  0.6467 -2.2036
11519SOL     OW46534   9.663   5.332   8.856  0.2679  0.1942 -0.8154
11519SOL    HW146535   9.639   5.336   8.949 -2.5921 -0.3685 -1.4380
11519SOL    HW246536   9.729   5.263   8.851 -1.9215 -2.2106  0.4773
11520SOL     OW46537  10.236   1.700   5.037  0.3979  0.0037  0.0237
11520SOL    HW146538  10.142   1.715   5.028  0.4319  0.1223 -0.1402
11520SOL    HW246539  10.245   1.653   5.120  0.0473 -1.3052 -0.6502
11521SOL     OW46540  10.028   2.160   0.721 -1.1591  0.1253 -0.1376
11521SOL    HW146541  10.115   2.123   0.703 -1.1724  0.1249 -0.2004
11521SOL    HW246542   9.974   2.085   0.742 -1.0878  0.1481  0.1319
11522SOL     OW46543   4.584   6.019   5.278 -0.0546 -0.3818  0.5260
11522SOL    HW146544   4.644   5.984   5.344  0.0848 -1.6776 -0.2581
11522SOL    HW246545   4.503   5.970   5.291 -0.2931 -0.0655  0.2592
11523SOL     OW46546   7.683   1.124   7.986  0.4119  0.2507 -0.1821
11523SOL    HW146547   7.765   1.081   8.010  0.0587  0.0390  0.7021
11523SOL    HW246548   7.704   1.177   7.910  0.6043 -2.4496 -2.1376
11524SOL     OW46549   4.242   0.461   4.062 -0.6531 -0.2521 -0.4036
11524SOL    HW146550   4.335   0.482   4.052 -0.9465  0.1059 -2.9113
11524SOL    HW246551   4.239   0.366   4.060 -0.4630 -0.2597 -2.3927
11525SOL     OW46552   3.527  10.032   9.272 -0.3149  0.4149  0.0867
11525SOL    HW146553   3.572  10.088   9.336 -0.7012 -0.0851  0.8130
11525SOL    HW246554   3.595  10.009   9.209  0.5486 -0.5566  1.3158
11526SOL     OW46555   8.393   6.222   5.882 -0.0556  0.4138 -0.1232
11526SOL    HW146556   8.308   6.257   5.910  0.3881  2.2852 -0.9411
11526SOL    HW246557   8.456   6.290   5.907  0.9678 -0.1394 -1.0964
11527SOL     OW46558   2.308   2.269   0.964 -0.1571 -1.1038  0.2181
11527SOL    HW146559   2.354   2.331   1.021  3.2071 -2.6247 -0.5697
11527SOL    HW246560   2.283   2.322   0.888  0.1687 -0.1505  0.7561
11528SOL     OW46561   9.921   4.563   9.699  0.0866  0.1580  0.2226
11528SOL    HW146562   9.972   4.483   9.685 -0.0753  0.5810 -4.4594
11528SOL    HW246563   9.835   4.532   9.728  0.8504 -1.0869  1.2677
11529SOL     OW46564   1.447   0.404   2.517  0.2718  0.2625  0.3330
11529SOL    HW146565   1.433   0.351   2.595 -1.5443 -0.1078 -0.1935
11529SOL    HW246566   1.514   0.357   2.467  0.1777 -0.4276  0.8480
11530SOL     OW46567   1.470   1.205   4.546 -0.1936 -0.0049  0.2819
11530SOL    HW146568   1.460   1.142   4.474 -2.4833 -2.8528  2.7610
11530SOL    HW246569   1.410   1.276   4.524  1.1680  0.5663 -1.8199
11531SOL     OW46570   7.856   1.931   7.986 -0.1674 -0.1999 -1.1558
11531SOL    HW146571   7.851   1.910   7.893  1.5709  1.3152 -1.6643
11531SOL    HW246572   7.878   2.025   7.988  1.2392 -0.4986  0.7289
11532SOL     OW46573   3.793   2.764   9.518  0.8046  0.2643  0.6526
11532SOL    HW146574   3.889   2.773   9.518  1.1090 -2.3127 -0.3027
11532SOL    HW246575   3.774   2.709   9.594  0.5112 -2.1749 -1.0695
11533SOL     OW46576   1.196   1.078  10.222 -0.1439  0.2046  0.1180
11533SOL    HW146577   1.233   0.990  10.218 -0.9169 -0.2627  2.1695
11533SOL    HW246578   1.271   1.136  10.214  0.9337 -0.7009  2.6428
11534SOL     OW46579   9.040   4.069   2.701  0.7619  0.1181 -0.1530
11534SOL    HW146580   8.951   4.104   2.698  0.7440  0.0396 -0.6229
11534SOL    HW246581   9.063   4.052   2.609  1.4040  0.5086 -0.0747
11535SOL     OW46582   3.348   0.322   1.563 -0.3178 -0.5487  0.0429
11535SOL    HW146583   3.357   0.417   1.558 -0.4972 -0.4081  1.7296
11535SOL    HW246584   3.437   0.290   1.576 -0.4067 -0.4982  0.7856
11536SOL     OW46585   5.019   0.444   2.669  0.3495  0.4733  0.1386
11536SOL    HW146586   5.040   0.467   2.760 -0.7494 -1.6265  1.0032
11536SOL    HW246587   5.099   0.463   2.620  1.5924  0.0084  1.8739
11537SOL     OW46588   3.700   7.939   0.816 -0.1644 -0.4887 -0.4258
11537SOL    HW146589   3.616   7.916   0.776 -1.1158 -1.4817  1.9668
11537SOL    HW246590   3.684   7.936   0.910  3.1425 -3.1283  0.2317
11538SOL     OW46591   6.016   0.148  10.190 -0.4050  0.1831 -0.1415
11538SOL    HW146592   5.953   0.094  10.238  1.0618 -1.2215  0.2670
11538SOL    HW246593   6.098   0.100  10.196  0.2813  0.9944 -2.3572
11539SOL     OW46594   7.105   8.476   4.110  0.1590 -0.1560  0.3873
11539SOL    HW146595   7.035   8.444   4.166 -0.5842  0.2229 -0.3076
11539SOL    HW246596   7.125   8.563   4.143 -0.6569  0.2876 -0.2583
11540SOL     OW46597   2.844   0.625   4.877 -0.2969  0.1457 -0.2793
11540SOL    HW146598   2.869   0.581   4.959 -0.2622  1.2089  0.2977
11540SOL    HW246599   2.792   0.700   4.905  0.5552  1.1024 -1.1709
11541SOL     OW46600   7.774   1.261   0.682  0.0521  0.3966 -0.0251
11541SOL    HW146601   7.778   1.184   0.626 -2.6861 -1.0701  1.5630
11541SOL    HW246602   7.829   1.239   0.757 -3.0001 -1.5239  1.8784
11542SOL     OW46603   6.900   7.612   6.908 -0.1627 -0.0267 -0.6646
11542SOL    HW146604   6.924   7.689   6.857 -0.9595 -1.3353 -3.1774
11542SOL    HW246605   6.983   7.574   6.937  0.2302  2.0120  1.1468
11543SOL     OW46606   4.235   0.701   4.261  0.4630 -0.5209  0.2868
11543SOL    HW146607   4.146   0.714   4.296  0.1794  0.7372 -0.8406
11543SOL    HW246608   4.227   0.623   4.207 -0.0121 -0.2937  0.0218
11544SOL     OW46609   3.322   3.780   7.838 -0.2382  0.3610 -0.3676
11544SOL    HW146610   3.235   3.809   7.811 -0.5299  0.1836  0.3546
11544SOL    HW246611   3.305   3.703   7.892  0.1035  2.2004  2.5742
11545SOL     OW46612   2.463   0.974   8.726  0.0411  0.1367  0.2076
11545SOL    HW146613   2.428   0.889   8.755 -0.5891  1.0347  2.2517
11545SOL    HW246614   2.398   1.006   8.664  1.2833 -1.7162 -2.1995
11546SOL     OW46615   7.763   9.780   3.247  0.2218  0.1533 -0.8528
11546SOL    HW146616   7.794   9.858   3.291 -0.8712  0.4879 -0.6473
11546SOL    HW246617   7.756   9.805   3.155  0.8239 -0.0177 -0.9528
11547SOL     OW46618   1.411   8.457   9.030  0.5132  0.1331 -0.5516
11547SOL    HW146619   1.365   8.400   9.093 -0.2044 -0.1776 -1.3411
11547SOL    HW246620   1.453   8.524   9.085  1.4826 -1.2058  0.4064
11548SOL     OW46621   7.139   0.271   4.316  0.5476 -0.0390  0.3900
11548SOL    HW146622   7.101   0.184   4.326 -1.2184  0.1781 -3.0239
11548SOL    HW246623   7.095   0.325   4.382 -1.4336 -0.9071 -0.1573
11549SOL     OW46624   7.131   1.857   7.779  0.0852 -0.0598 -0.3396
11549SOL    HW146625   7.138   1.789   7.846  0.5531  0.4413  0.1447
11549SOL    HW246626   7.163   1.816   7.699  0.5219 -0.3573 -0.0164
11550SOL     OW46627   6.280   6.521   8.591  0.1737  0.0347  0.1122
11550SOL    HW146628   6.269   6.428   8.571 -2.9698 -0.6690  4.0578
11550SOL    HW246629   6.201   6.562   8.557 -0.1909  0.5759  1.5657
11551SOL     OW46630   0.127   3.385   8.917 -0.1751  0.4335 -0.6239
11551SOL    HW146631   0.032   3.382   8.932 -0.4126  0.4443 -1.9976
11551SOL    HW246632   0.148   3.301   8.876  0.7429 -0.3152  1.2318
11552SOL     OW46633   1.969   5.328   1.545 -0.1847 -0.0117  0.1948
11552SOL    HW146634   1.999   5.246   1.584 -0.4615 -0.3125 -0.2282
11552SOL    HW246635   1.884   5.344   1.586  0.2345  0.5081  0.9071
11553SOL     OW46636   8.863   7.071   0.819 -0.0544 -0.2372  0.1461
11553SOL    HW146637   8.878   7.166   0.821 -0.6715 -0.1349  0.1149
11553SOL    HW246638   8.904   7.042   0.738 -0.5974  0.1354 -0.2715
11554SOL     OW46639   3.134   0.338   9.171  0.3234  0.1976 -0.2687
11554SOL    HW146640   3.161   0.405   9.234 -4.1432  3.0332 -0.8213
11554SOL    HW246641   3.068   0.287   9.217 -0.8410  0.3774 -1.6445
11555SOL     OW46642   6.769   8.371   8.331 -0.3397 -0.0380 -0.0739
11555SOL    HW146643   6.844   8.367   8.389  0.6266  2.0903 -1.0627
11555SOL    HW246644   6.701   8.416   8.381 -0.7467 -1.2754  0.5440
11556SOL     OW46645   6.148   9.746   8.009  0.5245  0.2145 -0.1522
11556SOL    HW146646   6.189   9.712   8.089 -0.5609 -0.3199  0.1957
11556SOL    HW246647   6.055   9.750   8.030 -0.0515 -1.7429 -1.9859
11557SOL     OW46648   6.637   0.173   0.090 -0.4200 -0.5764  0.4867
11557SOL    HW146649   6.573   0.245   0.092  0.5069  0.2485  1.0424
11557SOL    HW246650   6.687   0.189   0.010 -1.7271 -1.9916 -0.6885
11558SOL     OW46651   3.361   2.071   9.959 -0.1226 -0.1757  0.4088
11558SOL    HW146652   3.435   2.128   9.938 -1.4209  1.5637  0.3029
11558SOL    HW246653   3.360   2.007   9.888  0.7331  0.3242 -0.0833
11559SOL     OW46654   0.044   4.995   7.969  0.6697 -0.2054 -0.0468
11559SOL    HW146655   0.095   4.969   8.046  0.8452 -1.3238 -0.5333
11559SOL    HW246656  -0.047   4.983   7.996  0.6643  0.8347  0.4771
11560SOL     OW46657   5.209   3.221   9.104 -0.3401 -1.1064 -0.3401
11560SOL    HW146658   5.256   3.161   9.162  1.2434  2.7997  2.9998
11560SOL    HW246659   5.248   3.207   9.018  3.0448 -2.0135  1.1490
11561SOL     OW46660   3.911   5.391   5.526 -0.3870  0.3366 -1.0821
11561SOL    HW146661   3.975   5.446   5.481 -0.1564 -0.0308 -1.2154
11561SOL    HW246662   3.845   5.452   5.558  0.2817  0.7863 -0.5216
11562SOL     OW46663   0.386   6.978   1.855  0.0940  0.4852 -0.4350
11562SOL    HW146664   0.324   6.996   1.926  0.8634  2.5965 -0.2266
11562SOL    HW246665   0.472   7.001   1.891  0.7287 -0.2139 -1.4503
11563SOL     OW46666   6.519   4.723   7.306  0.2064 -0.0986 -0.3846
11563SOL    HW146667   6.582   4.675   7.251 -0.1998 -0.7250 -0.3171
11563SOL    HW246668   6.499   4.802   7.256 -0.2333 -0.7113 -1.1985
11564SOL     OW46669   5.295   5.542   8.000  0.3062  0.2618  0.3914
11564SOL    HW146670   5.375   5.592   8.020  0.7855  0.1730 -1.2060
11564SOL    HW246671   5.325   5.452   7.990  0.1793  0.3791 -1.1797
11565SOL     OW46672   8.595   7.430   3.168  0.0399  0.2563  0.5081
11565SOL    HW146673   8.560   7.357   3.219 -1.0958  0.5635  0.2110
11565SOL    HW246674   8.626   7.493   3.234 -1.4032  0.6462  0.8646
11566SOL     OW46675   3.630   8.106   3.233 -0.3559  0.3068 -0.2615
11566SOL    HW146676   3.708   8.064   3.196  0.2323  0.5154  0.6747
11566SOL    HW246677   3.666   8.176   3.288 -1.2800  1.3978 -1.0241
11567SOL     OW46678   7.294   6.617   8.886 -0.3056 -0.0392 -0.3903
11567SOL    HW146679   7.324   6.620   8.796  2.0516  0.3502  0.3414
11567SOL    HW246680   7.235   6.542   8.890 -1.4925  0.7162 -2.5096
11568SOL     OW46681   8.050   8.607   8.469  0.2567  0.2030  0.4626
11568SOL    HW146682   7.981   8.560   8.517  0.6552 -0.5587  0.3148
11568SOL    HW246683   8.047   8.570   8.381 -0.1152  1.2206  0.0341
11569SOL     OW46684   4.743   2.368   8.072  0.7306  0.7799  0.0138
11569SOL    HW146685   4.798   2.291   8.058  0.3555  0.7543 -1.5344
11569SOL    HW246686   4.789   2.439   8.027 -0.2027  0.8700 -0.8389
11570SOL     OW46687   7.540  10.368   4.646 -0.6121  0.2547 -0.5579
11570SOL    HW146688   7.584  10.426   4.584 -0.7231  0.8388 -0.1029
11570SOL    HW246689   7.486  10.426   4.699  0.7577  0.0213  1.1981
11571SOL     OW46690   6.150   7.831   6.530 -0.3827  0.4302 -0.2305
11571SOL    HW146691   6.091   7.901   6.557 -0.0485  1.0162 -0.9644
11571SOL    HW246692   6.232   7.850   6.576  0.0440  1.1641 -1.2556
11572SOL     OW46693   7.935   7.740   1.471  0.2892  0.1233 -0.0100
11572SOL    HW146694   8.013   7.764   1.521  0.2947 -0.1012  0.0920
11572SOL    HW246695   7.923   7.647   1.490  0.8123 -0.1853 -1.1574
11573SOL     OW46696   3.072   5.256   8.363 -0.3302  0.2103  0.8058
11573SOL    HW146697   2.977   5.261   8.356 -0.2509  0.5821 -0.1107
11573SOL    HW246698   3.099   5.345   8.388 -0.0042  1.0193 -2.0413
11574SOL     OW46699   1.854   7.128   2.172  0.6357 -0.0626  0.6930
11574SOL    HW146700   1.827   7.096   2.258  0.7965  1.3726  1.3026
11574SOL    HW246701   1.774   7.129   2.120  0.5336 -0.9134  0.8103
11575SOL     OW46702  10.274   0.845   0.346 -0.2278 -0.2867 -0.2502
11575SOL    HW146703  10.250   0.768   0.398  0.9102  0.0014  0.7497
11575SOL    HW246704  10.224   0.916   0.387 -1.9406 -0.5796 -1.7005
11576SOL     OW46705   6.120   2.466  10.065  0.4986  0.8007  0.2403
11576SOL    HW146706   6.080   2.535  10.013  1.4388  0.6422 -0.7229
11576SOL    HW246707   6.099   2.385  10.018  1.4307  0.6594  0.0584
11577SOL     OW46708   1.410   4.947   7.337  0.0897  0.1453  0.0412
11577SOL    HW146709   1.473   4.909   7.275 -0.0286 -0.9830  0.5873
11577SOL    HW246710   1.351   4.875   7.359 -1.1823  1.0806 -0.1643
11578SOL     OW46711   1.939   2.486   7.107 -0.3047 -0.2699  0.2123
11578SOL    HW146712   1.965   2.446   7.023  0.4698  2.9989 -1.2446
11578SOL    HW246713   2.021   2.498   7.154  0.0333  2.5711 -0.8880
11579SOL     OW46714   4.727   9.267   9.131 -0.1850  0.1258 -0.4829
11579SOL    HW146715   4.754   9.238   9.218 -1.5422  0.3451  0.0325
11579SOL    HW246716   4.809   9.276   9.082  0.6712  0.8579  1.0209
11580SOL     OW46717   6.254   8.198  10.326 -0.0101  0.4238 -0.1844
11580SOL    HW146718   6.209   8.181  10.243 -1.6610  1.6450  0.3893
11580SOL    HW246719   6.339   8.234  10.301  0.5043 -1.4814 -1.3175
11581SOL     OW46720   4.564   9.307   3.536 -0.5614 -0.1942 -0.7948
11581SOL    HW146721   4.529   9.387   3.576  0.3985  0.5837 -1.4552
11581SOL    HW246722   4.539   9.313   3.443 -0.2855 -0.5523 -0.8950
11582SOL     OW46723   1.148   2.080   2.246 -0.1057 -0.4107  0.5183
11582SOL    HW146724   1.173   2.022   2.174 -0.4197 -2.0888  1.6979
11582SOL    HW246725   1.230   2.097   2.293 -0.0905 -0.2796  0.4454
11583SOL     OW46726   9.307   6.971   0.800  0.2036 -0.0363 -0.2293
11583SOL    HW146727   9.377   6.953   0.862 -0.2779 -0.3423  0.2362
11583SOL    HW246728   9.287   6.886   0.762 -0.2130 -0.0288 -0.0336
11584SOL     OW46729   3.206   2.662   1.826  0.0832  0.0762 -0.2324
11584SOL    HW146730   3.184   2.741   1.776  2.3832  0.2959 -1.0156
11584SOL    HW246731   3.220   2.595   1.759  1.6784 -0.0257  0.1591
11585SOL     OW46732   4.327   0.329   4.330 -0.2237 -0.0366  0.0858
11585SOL    HW146733   4.351   0.376   4.250  0.1796 -0.2741  0.0622
11585SOL    HW246734   4.396   0.263   4.340 -1.3620 -1.3613 -0.4943
11586SOL     OW46735   1.823   1.294   6.223  0.5034 -0.4948  0.0842
11586SOL    HW146736   1.813   1.287   6.128 -0.0208  2.5091 -0.2082
11586SOL    HW246737   1.756   1.236   6.258 -0.9262  0.1124 -1.4674
11587SOL     OW46738   3.183   1.482   6.832  0.2943  0.3020 -0.3074
11587SOL    HW146739   3.204   1.394   6.861 -1.0613 -0.0208 -0.2428
11587SOL    HW246740   3.267   1.527   6.829  0.7707 -0.3261  1.8985
11588SOL     OW46741   9.906   0.006   5.771 -0.3341 -0.1625 -0.0860
11588SOL    HW146742   9.943   0.090   5.747  0.0824 -0.7442 -1.6202
11588SOL    HW246743   9.813   0.014   5.750 -0.0908 -0.4416 -1.3563
11589SOL     OW46744   6.489   9.617   9.276 -0.4825  0.3098 -0.1241
11589SOL    HW146745   6.557   9.553   9.296 -0.4362 -0.1765 -1.7080
11589SOL    HW246746   6.532   9.702   9.280  0.1349  0.0288 -0.7755
11590SOL     OW46747   6.711   0.870   7.575 -0.8977  0.0049  0.2881
11590SOL    HW146748   6.693   0.793   7.629 -0.4394 -0.4491 -0.1992
11590SOL    HW246749   6.680   0.846   7.488 -0.0951  0.0980 -0.0284
11591SOL     OW46750   5.195   2.302   7.058 -0.0750 -0.5058 -0.0731
11591SOL    HW146751   5.287   2.286   7.037  0.4454  0.3386  1.4178
11591SOL    HW246752   5.163   2.217   7.087  0.0472 -0.9472 -1.1804
11592SOL     OW46753   5.886   0.162   9.254  0.0340  0.1002  0.2804
11592SOL    HW146754   5.880   0.112   9.172 -1.6381  0.7434 -0.0361
11592SOL    HW246755   5.979   0.162   9.276  0.3790 -0.9677 -1.0686
11593SOL     OW46756   1.208   7.511   9.026 -0.4234  0.1913  0.3294
11593SOL    HW146757   1.220   7.586   8.968  1.3665  0.4054  0.9256
11593SOL    HW246758   1.113   7.501   9.032 -0.6991  2.0272 -0.2492
11594SOL     OW46759   0.736   0.416   9.257 -0.4696  0.3440  0.3103
11594SOL    HW146760   0.650   0.413   9.215 -1.0717  0.8826  1.4475
11594SOL    HW246761   0.795   0.374   9.195 -1.8565 -1.5981  0.2392
11595SOL     OW46762   9.601   8.511   8.946 -0.4168  0.8512 -0.1912
11595SOL    HW146763   9.665   8.582   8.953  0.4063  0.1571 -0.5758
11595SOL    HW246764   9.601   8.469   9.032 -0.2997  0.7988 -0.2178
11596SOL     OW46765   8.776  10.093   2.627  0.1210  0.0161  0.5467
11596SOL    HW146766   8.762  10.022   2.690  0.1976  1.3556  2.1371
11596SOL    HW246767   8.865  10.079   2.594  0.1374 -0.6024  0.8514
11597SOL     OW46768   7.548   7.203   0.033  0.0647  0.1066  0.2326
11597SOL    HW146769   7.498   7.138   0.083  0.3396 -1.0210 -0.9124
11597SOL    HW246770   7.615   7.234   0.095  0.6567 -1.5581  0.4686
11598SOL     OW46771   0.183   4.232   7.872  0.4094 -0.0660  0.1331
11598SOL    HW146772   0.142   4.267   7.793 -0.0257 -0.9693 -0.0587
11598SOL    HW246773   0.266   4.280   7.879  0.5879 -0.1557 -1.0354
11599SOL     OW46774   1.574   4.022   5.530  0.5123  0.2471  0.2218
11599SOL    HW146775   1.626   4.014   5.451  0.1051 -0.8310  0.0418
11599SOL    HW246776   1.557   3.931   5.557 -0.3647  0.5843  0.8659
11600SOL     OW46777   5.520  10.056   6.857 -0.4258 -0.3716 -0.6436
11600SOL    HW146778   5.520   9.977   6.803 -3.8570  0.2270 -1.7799
11600SOL    HW246779   5.481  10.029   6.940  1.8651 -0.5750  0.4501
11601SOL     OW46780   0.201   6.597   4.331 -0.0275 -0.4206  0.0246
11601SOL    HW146781   0.258   6.569   4.403 -0.0092 -0.7139 -0.1052
11601SOL    HW246782   0.253   6.583   4.252 -0.1934 -0.4691 -0.0762
11602SOL     OW46783   4.070   5.319   6.921  0.2820  0.1582 -0.4629
11602SOL    HW146784   4.074   5.415   6.925  0.0638  0.2586 -2.0460
11602SOL    HW246785   4.100   5.298   6.833 -1.1506 -1.1307 -0.6792
11603SOL     OW46786   0.522   1.185   5.889 -0.2792  0.7871 -0.2064
11603SOL    HW146787   0.552   1.205   5.800  2.5147 -2.6556 -0.2549
11603SOL    HW246788   0.599   1.200   5.944 -0.7123 -0.9144  0.9517
11604SOL     OW46789   6.985   7.084   5.184  0.3665 -0.3096 -0.2916
11604SOL    HW146790   7.007   7.159   5.239 -1.6903  1.0512 -1.1557
11604SOL    HW246791   6.990   7.008   5.242 -1.7874  1.0532  1.8791
11605SOL     OW46792   4.836   8.991   6.052 -0.1016 -0.0147  0.1459
11605SOL    HW146793   4.818   8.908   6.008 -0.7445 -0.2762  0.8620
11605SOL    HW246794   4.885   8.967   6.131  1.4783  0.4947 -0.6502
11606SOL     OW46795   7.485   1.307   4.975 -0.0664  0.2925  0.0635
11606SOL    HW146796   7.489   1.387   5.028  0.6337  1.0714 -1.1329
11606SOL    HW246797   7.391   1.291   4.964 -0.2470 -0.1075  1.8244
11607SOL     OW46798   8.360   2.478   3.243 -0.1146 -0.0378 -0.4169
11607SOL    HW146799   8.349   2.393   3.286  0.5601 -1.0112 -2.0515
11607SOL    HW246800   8.343   2.460   3.150  0.0515  1.6156 -0.7957
11608SOL     OW46801   9.836  10.099   6.683 -0.5604 -0.0585  0.0192
11608SOL    HW146802   9.749  10.138   6.675 -0.4322  0.2939  0.3357
11608SOL    HW246803   9.897  10.172   6.675 -0.2383 -0.4520 -1.3952
11609SOL     OW46804   8.345   0.923   8.066 -0.0887  0.9656  0.2550
11609SOL    HW146805   8.251   0.919   8.051 -0.1096  1.6076  0.1812
11609SOL    HW246806   8.374   0.832   8.065 -0.8682  0.6891  1.3024
11610SOL     OW46807   0.799   4.463   9.872 -0.1498  0.5556 -0.5359
11610SOL    HW146808   0.715   4.419   9.855  0.1476 -0.3716  0.2903
11610SOL    HW246809   0.827   4.429   9.957  2.8249 -1.9207 -2.3369
11611SOL     OW46810   3.017   8.822   6.184  0.7759 -0.1089 -0.3767
11611SOL    HW146811   3.016   8.910   6.148 -1.2703 -1.0050 -2.9269
11611SOL    HW246812   2.942   8.819   6.243  0.0432 -0.4264 -1.2882
11612SOL     OW46813   1.595   7.989   8.764 -0.5365 -0.1703 -0.2313
11612SOL    HW146814   1.663   7.923   8.775 -2.0447 -1.3896  2.8451
11612SOL    HW246815   1.525   7.943   8.717 -0.9935 -0.3412  0.5988
11613SOL     OW46816   7.033   6.093   1.499  0.5977 -0.5187 -0.0357
11613SOL    HW146817   7.018   6.184   1.525  0.4951 -0.1965 -1.1419
11613SOL    HW246818   7.063   6.099   1.408 -1.4324 -1.6917 -0.8375
11614SOL     OW46819   8.507   1.632   6.894  0.3776 -0.6493  0.1625
11614SOL    HW146820   8.457   1.569   6.946 -2.0208 -0.1066 -1.3317
11614SOL    HW246821   8.558   1.578   6.833 -0.8332 -1.1872 -0.3964
11615SOL     OW46822   4.011   3.556   1.183 -0.3993 -0.3589 -0.1515
11615SOL    HW146823   4.056   3.609   1.118 -0.7929  0.2654  0.0764
11615SOL    HW246824   3.920   3.586   1.179 -0.7186 -1.3218 -0.3272
11616SOL     OW46825   2.309   5.319   8.999  0.2323 -0.2203 -0.2490
11616SOL    HW146826   2.386   5.262   8.998  0.0958 -0.4082 -1.3669
11616SOL    HW246827   2.325   5.383   8.929 -2.5866 -3.0292 -3.8869
11617SOL     OW46828   5.326   7.429   6.354  0.1083 -0.2669  0.4300
11617SOL    HW146829   5.407   7.411   6.307  0.1546 -1.4584  0.9253
11617SOL    HW246830   5.326   7.366   6.427 -0.4498  0.8321  1.4175
11618SOL     OW46831   9.071   3.853   0.361 -0.1240 -0.6617  0.3875
11618SOL    HW146832   9.062   3.880   0.269  0.9232  0.3232  0.5423
11618SOL    HW246833   9.142   3.908   0.394 -1.4924  0.1039  2.2159
11619SOL     OW46834   1.048   4.819   5.130  0.1509 -0.2026  0.3567
11619SOL    HW146835   0.956   4.846   5.131 -0.3952 -1.7099 -1.8245
11619SOL    HW246836   1.090   4.876   5.195 -1.8717  2.0593 -0.1587
11620SOL     OW46837  10.113   4.320   2.215 -0.6309  0.0316 -0.2449
11620SOL    HW146838  10.045   4.329   2.282  0.0513 -0.2302  0.5110
11620SOL    HW246839  10.076   4.260   2.151 -1.1184 -0.0815  0.1363
11621SOL     OW46840   9.127   4.759   6.634 -0.0916  0.0959 -0.2690
11621SOL    HW146841   9.118   4.799   6.720 -1.3905 -2.1495  0.7347
11621SOL    HW246842   9.043   4.774   6.591  0.3883  0.8035 -0.9777
11622SOL     OW46843   5.857   4.406   6.018 -0.2877  0.3373  0.4633
11622SOL    HW146844   5.850   4.312   6.033 -1.1198 -0.0627 -1.9670
11622SOL    HW246845   5.898   4.440   6.097  0.7490 -2.1628  1.0958
11623SOL     OW46846   3.368   1.966   7.114  0.0690 -0.1379 -0.0750
11623SOL    HW146847   3.344   2.059   7.120 -1.4291 -0.4324 -0.9408
11623SOL    HW246848   3.287   1.922   7.086  0.2407 -1.9819  2.0607
11624SOL     OW46849   7.975   2.411   3.383 -0.2722  0.4201  0.1317
11624SOL    HW146850   7.980   2.500   3.418 -3.0869  0.1459  1.5142
11624SOL    HW246851   7.970   2.355   3.461 -1.2552 -0.6854 -0.6929
11625SOL     OW46852   3.871   6.636   2.850  0.3853 -0.3431  0.4083
11625SOL    HW146853   3.901   6.669   2.766  0.1221 -3.4248 -1.0356
11625SOL    HW246854   3.950   6.634   2.905  0.9254  0.1159 -0.3343
11626SOL     OW46855   5.144   8.381   9.288 -1.0052  0.6519 -0.6809
11626SOL    HW146856   5.086   8.333   9.348  1.8198  1.5386  3.1479
11626SOL    HW246857   5.220   8.323   9.277  0.9589  2.6485  1.2881
11627SOL     OW46858   9.835   9.787   4.216  0.2522 -0.3312 -0.6234
11627SOL    HW146859   9.925   9.755   4.202  0.3443 -0.2798 -0.1607
11627SOL    HW246860   9.845   9.882   4.226 -0.1304  0.0142 -3.0043
11628SOL     OW46861   6.831   7.490   7.250  0.0978 -0.4197  0.0011
11628SOL    HW146862   6.780   7.435   7.191 -1.0560  0.7568 -0.1456
11628SOL    HW246863   6.775   7.566   7.268  2.1625  1.4661 -0.9873
11629SOL     OW46864   9.662   6.582   0.650  0.0417  0.4535  0.1752
11629SOL    HW146865   9.686   6.526   0.724  0.7143  3.1389  2.1519
11629SOL    HW246866   9.741   6.583   0.595 -0.2881 -1.1739 -0.3764
11630SOL     OW46867   1.960   9.924   6.533 -0.5775 -0.0440  0.0318
11630SOL    HW146868   2.026   9.892   6.594 -0.4592  1.4541  0.7451
11630SOL    HW246869   1.986   9.888   6.448  0.8289  0.0369  0.4070
11631SOL     OW46870   7.623   5.604   2.272 -0.3911  0.2975 -0.3335
11631SOL    HW146871   7.610   5.510   2.270 -0.2750  0.2604  0.5250
11631SOL    HW246872   7.651   5.626   2.183 -0.0452 -0.5295 -0.4340
11632SOL     OW46873   1.487   7.350   8.092 -0.1637 -0.2607  0.0742
11632SOL    HW146874   1.560   7.408   8.071  0.0436 -1.0090 -1.4007
11632SOL    HW246875   1.500   7.274   8.035 -2.0732 -0.4147 -0.2115
11633SOL     OW46876   3.814   2.318   6.009 -0.1990 -0.0780  0.3420
11633SOL    HW146877   3.872   2.386   6.042  0.7052 -0.2754 -0.7841
11633SOL    HW246878   3.737   2.322   6.067  1.9634 -1.5738  3.6564
11634SOL     OW46879   0.181   3.498   9.408  0.1939 -0.1880 -0.1974
11634SOL    HW146880   0.240   3.427   9.431 -1.1676 -0.8928  1.2814
11634SOL    HW246881   0.226   3.545   9.338  3.0324 -0.0098  1.5861
11635SOL     OW46882   8.686   5.847  10.199 -0.3938  0.5653  0.1575
11635SOL    HW146883   8.776   5.837  10.230 -0.6245  0.5929  0.8536
11635SOL    HW246884   8.639   5.887  10.273 -1.0888  0.0846 -0.0095
11636SOL     OW46885   6.135  10.161   2.435 -0.1546  0.2562 -0.0653
11636SOL    HW146886   6.113  10.143   2.527 -0.6363 -0.6268 -0.3436
11636SOL    HW246887   6.230  10.151   2.430 -0.1856 -0.2064  0.2272
11637SOL     OW46888   7.215   5.074   6.742 -0.0386 -0.0883  0.0950
11637SOL    HW146889   7.300   5.049   6.705  0.3620 -2.2004  2.1760
11637SOL    HW246890   7.155   5.006   6.713  0.2574 -1.7373  2.9279
11638SOL     OW46891   0.355   0.785   5.199  0.3152 -0.2308 -0.0605
11638SOL    HW146892   0.338   0.788   5.293 -0.1225 -0.3143 -0.1376
11638SOL    HW246893   0.270   0.799   5.158  0.7019  1.2382 -0.4485
11639SOL     OW46894   4.638   5.146   7.883  0.0516  0.1047  0.6371
11639SOL    HW146895   4.550   5.112   7.867  0.1054 -0.2772  1.1225
11639SOL    HW246896   4.625   5.227   7.932 -0.0458  0.3209  0.2563
11640SOL     OW46897   7.595   3.074   8.482  0.2202 -0.4168  0.4308
11640SOL    HW146898   7.552   3.035   8.406  1.2318  0.6562 -0.7207
11640SOL    HW246899   7.574   3.014   8.554  0.0885 -2.0068 -0.8744
11641SOL     OW46900   4.328   6.705   4.985 -0.2886 -0.3040  0.2067
11641SOL    HW146901   4.341   6.781   5.042  0.6152  0.8800 -1.4954
11641SOL    HW246902   4.237   6.710   4.958 -0.3013  0.0336  0.3097
11642SOL     OW46903   6.684   7.668   2.378  0.4526 -0.4068  0.0258
11642SOL    HW146904   6.603   7.660   2.428  0.4429  0.7661  0.2242
11642SOL    HW246905   6.705   7.762   2.380  2.6227 -0.8494  1.2234
11643SOL     OW46906   9.326   4.728   2.209  0.4816 -0.4104  0.5202
11643SOL    HW146907   9.353   4.759   2.296  0.2960 -1.8181  1.1092
11643SOL    HW246908   9.265   4.656   2.227 -2.3120  1.4601 -0.7844
11644SOL     OW46909   7.447   4.089   0.579  0.2013  0.3513 -0.3753
11644SOL    HW146910   7.430   4.180   0.557  2.0007  1.0016  0.7184
11644SOL    HW246911   7.531   4.090   0.625 -0.6754 -1.5753  1.4778
11645SOL     OW46912   8.802   6.120   1.693 -0.2197  0.1660  0.3410
11645SOL    HW146913   8.732   6.059   1.673 -1.8145  1.8460  0.4869
11645SOL    HW246914   8.808   6.121   1.788 -0.7587  0.8158  0.3728
11646SOL     OW46915   1.259   0.054   5.773  0.2510  0.2411  0.2476
11646SOL    HW146916   1.239  -0.020   5.716  0.4331  0.8843 -0.6590
11646SOL    HW246917   1.249   0.019   5.862  1.4711 -1.1994 -0.1476
11647SOL     OW46918   2.659   1.539   5.650  0.7239 -0.0858 -0.4068
11647SOL    HW146919   2.710   1.616   5.625  1.3507 -0.1275  0.6561
11647SOL    HW246920   2.618   1.563   5.733 -1.1591  0.0018 -1.3260
11648SOL     OW46921   5.520   1.624   0.297  0.0804 -0.2632 -0.4081
11648SOL    HW146922   5.485   1.557   0.355  0.3183 -0.4138 -0.4364
11648SOL    HW246923   5.467   1.617   0.217 -0.4146  0.1156 -0.1197
11649SOL     OW46924   8.969   0.716   0.123  0.5683 -0.3001 -0.3103
11649SOL    HW146925   8.940   0.647   0.183  2.2020 -1.2130 -0.5286
11649SOL    HW246926   9.063   0.701   0.112  1.1096  2.2802  0.0457
11650SOL     OW46927   2.825   8.989   4.265 -0.0882 -0.5961 -0.0804
11650SOL    HW146928   2.862   9.076   4.276  0.2424 -0.7396 -0.0334
11650SOL    HW246929   2.745   9.003   4.214  2.5416 -0.7266 -4.8274
11651SOL     OW46930   4.195   9.875   9.653 -0.0049  0.3689  0.0911
11651SOL    HW146931   4.231   9.864   9.741 -1.4839 -2.0815  0.4928
11651SOL    HW246932   4.104   9.903   9.668 -0.8119 -1.7294 -0.5093
11652SOL     OW46933   8.157   7.319   3.291 -0.0942 -0.1240 -0.4241
11652SOL    HW146934   8.197   7.400   3.258  0.4169 -0.3129 -0.2772
11652SOL    HW246935   8.151   7.263   3.214 -0.1067 -0.0813 -0.4545
11653SOL     OW46936   8.248   7.709   7.532 -0.4604  0.4021 -0.3727
11653SOL    HW146937   8.222   7.649   7.463 -2.3747  0.0839  0.5567
11653SOL    HW246938   8.334   7.678   7.560 -2.1738 -3.3126  1.4510
11654SOL     OW46939   5.296   6.513   5.228 -0.1820 -0.3629 -0.1160
11654SOL    HW146940   5.381   6.495   5.268  0.0617 -2.3439 -1.3902
11654SOL    HW246941   5.234   6.503   5.299  0.4861 -0.8283  0.4160
11655SOL     OW46942  10.122   8.225   8.246  0.5087  0.0380  0.5666
11655SOL    HW146943  10.102   8.195   8.335  1.2240  0.3355  0.8385
11655SOL    HW246944  10.118   8.321   8.252 -0.1779  0.0418  0.0954
11656SOL     OW46945   0.983   3.023   9.387 -0.3329  0.5421 -0.1819
11656SOL    HW146946   0.996   2.955   9.321  0.8266  0.7324 -0.1814
11656SOL    HW246947   1.005   3.105   9.343 -2.2497  1.0203 -0.3420
11657SOL     OW46948   3.319   0.828   5.278 -0.2680 -0.3097 -0.0659
11657SOL    HW146949   3.350   0.763   5.340  0.6033  0.8229  0.7176
11657SOL    HW246950   3.279   0.777   5.207  0.7579 -1.6958  0.3265
11658SOL     OW46951   3.251   2.834   5.949 -0.5956 -0.5724 -0.4482
11658SOL    HW146952   3.158   2.853   5.935 -0.5080 -0.0637 -0.3772
11658SOL    HW246953   3.296   2.909   5.911 -0.2683 -0.1674  0.6908
11659SOL     OW46954   5.204   1.718   0.687  0.0872  0.5283 -0.1775
11659SOL    HW146955   5.164   1.642   0.644  0.4190  0.2884 -0.0659
11659SOL    HW246956   5.223   1.687   0.776 -2.6425  1.6653  0.9248
11660SOL     OW46957   2.587   3.043   6.867 -0.4792 -0.4003  0.2416
11660SOL    HW146958   2.680   3.054   6.846 -0.1908 -3.2929 -0.3450
11660SOL    HW246959   2.544   3.039   6.782 -0.9281 -0.6525  0.4810
11661SOL     OW46960   6.515  10.047   3.037 -0.4092  0.3531 -0.0458
11661SOL    HW146961   6.452   9.975   3.040 -1.8489  1.4792 -1.5277
11661SOL    HW246962   6.530  10.061   2.943 -0.3265  2.1133  0.2082
11662SOL     OW46963   0.652   7.231   1.628 -0.4324 -0.1966  0.3407
11662SOL    HW146964   0.700   7.254   1.548 -0.4996  1.5036  0.7515
11662SOL    HW246965   0.711   7.253   1.699 -1.2585  0.5585  0.8168
11663SOL     OW46966   3.257   5.278  10.032  0.1662 -0.2703  0.0410
11663SOL    HW146967   3.312   5.335   9.979  2.3447 -1.1666  1.2121
11663SOL    HW246968   3.181   5.259   9.977  1.4489  0.3258 -2.0137
11664SOL     OW46969   3.979   9.687   7.944  0.1905 -0.4414  0.0958
11664SOL    HW146970   4.035   9.660   8.017 -0.7428 -0.5817  0.7785
11664SOL    HW246971   3.890   9.664   7.972 -0.1176 -1.3057 -1.4511
11665SOL     OW46972   6.906   1.508   4.150 -0.4451  0.0083  0.4691
11665SOL    HW146973   6.884   1.453   4.074 -0.1767  0.0478  0.3637
11665SOL    HW246974   6.962   1.577   4.115 -1.1131  0.5884  0.5262
11666SOL     OW46975   0.536   6.095   6.051  0.3701 -0.3476  0.5724
11666SOL    HW146976   0.479   6.033   6.097 -1.5639  0.3170 -0.7932
11666SOL    HW246977   0.606   6.041   6.015 -1.4845 -1.8701 -0.9522
11667SOL     OW46978   7.480   4.505   7.103 -0.0622 -0.0775 -0.0035
11667SOL    HW146979   7.422   4.545   7.038 -1.5639  0.0267  1.3391
11667SOL    HW246980   7.504   4.577   7.162 -0.6437 -0.6052  0.9008
11668SOL     OW46981   2.021   2.284   2.132 -0.1390  0.1731  0.3603
11668SOL    HW146982   1.929   2.283   2.158 -0.2219  0.1309  0.0691
11668SOL    HW246983   2.043   2.192   2.116  0.3581  0.0116  1.8140
11669SOL     OW46984   2.380   2.240   9.083 -0.3277  0.3621  0.0020
11669SOL    HW146985   2.452   2.303   9.081  0.2934 -0.3293 -0.8055
11669SOL    HW246986   2.320   2.270   9.015  0.2937 -0.2599 -0.8415
11670SOL     OW46987   2.698   2.018   2.672 -0.4100  0.3165  0.1793
11670SOL    HW146988   2.663   2.103   2.699  1.0812  1.1297 -0.3367
11670SOL    HW246989   2.655   1.955   2.730 -0.6050  1.5460  1.4284
11671SOL     OW46990   7.896   0.936   7.244  0.9072 -0.5908 -0.1240
11671SOL    HW146991   7.907   0.943   7.149  1.2754 -0.4658 -0.0756
11671SOL    HW246992   7.805   0.910   7.256  1.0333 -1.2445 -0.5391
11672SOL     OW46993   3.405   2.361   6.928  0.6000 -0.1611  0.2603
11672SOL    HW146994   3.338   2.360   6.996 -0.5308 -2.3894 -0.7487
11672SOL    HW246995   3.426   2.268   6.914  1.5034  0.2872 -1.7120
11673SOL     OW46996   8.559   4.495   2.278  0.0886  0.0762  0.3917
11673SOL    HW146997   8.602   4.518   2.361  0.3349  0.7027  0.0959
11673SOL    HW246998   8.531   4.404   2.291 -0.7595  0.4715  1.5285
11674SOL     OW46999   1.692   4.560   9.714 -0.1670  0.0499  0.2204
11674SOL    HW147000   1.786   4.578   9.709  0.1991 -1.6968  0.2087
11674SOL    HW247001   1.678   4.533   9.805 -0.7423  0.6383  0.3156
11675SOL     OW47002   4.326   9.373   7.410  0.5502  0.6367 -0.0084
11675SOL    HW147003   4.301   9.384   7.501  0.4433 -0.0911  0.0600
11675SOL    HW247004   4.248   9.338   7.367  0.5482  1.1354 -0.4133
11676SOL     OW47005   2.014   6.750   6.789 -0.0334  0.3872  0.3570
11676SOL    HW147006   1.937   6.742   6.845 -1.8924 -1.0931 -2.1743
11676SOL    HW247007   2.001   6.832   6.742 -1.0891 -0.6548 -1.3034
11677SOL     OW47008   5.256   4.757   0.440 -0.1781 -0.3211 -0.5943
11677SOL    HW147009   5.177   4.704   0.446  1.6109 -3.3421 -1.6043
11677SOL    HW247010   5.272   4.767   0.346  0.5725  0.3478 -0.4157
11678SOL     OW47011   0.181   4.999   3.647 -0.3127  0.3282  0.5114
11678SOL    HW147012   0.204   5.027   3.558 -0.4777  0.6911  0.5830
11678SOL    HW247013   0.122   4.925   3.634  1.0010 -0.7332  0.3187
11679SOL     OW47014   0.565   8.490  10.239  0.8597  0.1792 -0.1610
11679SOL    HW147015   0.644   8.522  10.282 -0.5341  1.2888  1.7066
11679SOL    HW247016   0.532   8.421  10.296 -0.3293  0.7775 -0.0990
11680SOL     OW47017   1.127   8.223   4.316 -0.0370  0.0151 -0.6996
11680SOL    HW147018   1.165   8.213   4.404 -0.5265 -0.5378 -0.5468
11680SOL    HW247019   1.051   8.165   4.316  0.6308 -0.9043 -1.8796
11681SOL     OW47020   7.583   8.044   6.754 -0.4207 -0.0803 -0.6476
11681SOL    HW147021   7.520   8.116   6.759 -0.5229 -0.1315 -1.1699
11681SOL    HW247022   7.587   8.022   6.661 -1.1444 -1.4216 -0.3864
11682SOL     OW47023  10.281   3.676   6.976  0.4358  0.1797  0.2126
11682SOL    HW147024  10.297   3.582   6.969  0.8665  0.2760 -0.1463
11682SOL    HW247025  10.363   3.716   6.947 -0.0617  0.6852 -0.5185
11683SOL     OW47026   8.430   5.739   5.256 -0.4460  0.2225 -0.4427
11683SOL    HW147027   8.479   5.733   5.339 -2.6233  0.9087  0.9936
11683SOL    HW247028   8.423   5.833   5.240 -0.9603  0.1166 -0.8292
11684SOL     OW47029   9.810   3.583   5.257  0.3210 -0.1553  0.1015
11684SOL    HW147030   9.798   3.662   5.309  0.5446  0.4315 -0.7270
11684SOL    HW247031   9.819   3.513   5.322  1.0969  0.6244  0.8650
11685SOL     OW47032   3.405   4.783   1.438 -0.0929  0.0029 -0.0213
11685SOL    HW147033   3.358   4.858   1.474  0.2183  0.3858 -0.4157
11685SOL    HW247034   3.338   4.715   1.429 -0.7588  0.7978 -1.3413
11686SOL     OW47035   2.740   1.919   8.949  0.3713  0.2733 -0.2532
11686SOL    HW147036   2.652   1.951   8.969  0.7578  1.3723 -0.2361
11686SOL    HW247037   2.765   1.967   8.870  0.9916  0.0355 -0.2065
11687SOL     OW47038   9.573   0.348   4.338  0.3951  0.0734 -0.2817
11687SOL    HW147039   9.569   0.253   4.350  1.9595  0.2794  3.7142
11687SOL    HW247040   9.644   0.361   4.275  0.0314 -1.3929 -1.0409
11688SOL     OW47041   3.354   8.187   5.549 -0.4488 -0.0214  0.0412
11688SOL    HW147042   3.282   8.244   5.578 -0.9248 -1.1033  1.0648
11688SOL    HW247043   3.433   8.235   5.573 -0.8407 -0.0081  1.3896
11689SOL     OW47044   4.881   2.874   1.663  0.2813  0.2511  0.0323
11689SOL    HW147045   4.928   2.790   1.666  1.1930  0.7640  0.3054
11689SOL    HW247046   4.948   2.938   1.639 -0.2045  1.0462  0.7652
11690SOL     OW47047   1.663   7.908   3.229 -0.2624 -0.3017 -0.1213
11690SOL    HW147048   1.576   7.945   3.242 -2.0121 -4.0790  0.4228
11690SOL    HW247049   1.678   7.853   3.306  2.3003 -0.3331 -0.5424
11691SOL     OW47050   4.121   0.417   8.785  0.0618  0.3335 -0.2291
11691SOL    HW147051   4.135   0.482   8.716  0.2011  1.5004  0.8462
11691SOL    HW247052   4.095   0.469   8.862 -0.2644 -0.9312  0.5517
11692SOL     OW47053   9.952   5.061   0.627 -0.4626 -0.2628 -0.6593
11692SOL    HW147054   9.980   4.972   0.648  3.0288  0.1648 -2.6807
11692SOL    HW247055   9.926   5.099   0.712 -0.5346 -2.6685  0.4729
11693SOL     OW47056   7.620   1.757   1.536  0.3257  0.4236 -0.1943
11693SOL    HW147057   7.581   1.696   1.473 -0.9071  1.5438 -0.5533
11693SOL    HW247058   7.711   1.728   1.544  0.3301 -0.1730 -1.9743
11694SOL     OW47059   4.658   0.985   3.765  0.3255 -0.0250 -0.3061
11694SOL    HW147060   4.660   0.971   3.860  0.9506 -0.4143 -0.3702
11694SOL    HW247061   4.742   1.025   3.745  0.4567 -0.5246 -0.7810
11695SOL     OW47062   6.635   9.813   8.969 -0.1219 -0.3320 -0.0658
11695SOL    HW147063   6.682   9.808   8.886  1.4947 -0.8206  0.8279
11695SOL    HW247064   6.594   9.727   8.978  2.2542 -1.4681  1.0018
11696SOL     OW47065   7.611   9.516   1.429  0.4485  0.3377  0.2067
11696SOL    HW147066   7.679   9.453   1.450 -0.4901 -0.7193  0.1765
11696SOL    HW247067   7.548   9.510   1.501 -0.1311  0.5287 -0.2655
11697SOL     OW47068   3.142   5.588   5.407 -0.2221  0.0599 -0.3702
11697SOL    HW147069   3.166   5.642   5.332  0.2184  1.8702  1.0009
11697SOL    HW247070   3.049   5.570   5.395 -0.3064  0.8799 -1.0193
11698SOL     OW47071   1.402   2.516   3.366  0.0403  0.0235  0.0649
11698SOL    HW147072   1.429   2.607   3.381  0.5760 -0.3988  1.9748
11698SOL    HW247073   1.485   2.468   3.356 -0.2441  0.0060 -3.2356
11699SOL     OW47074   2.397   5.546   8.523  0.7451  0.2363  0.2285
11699SOL    HW147075   2.356   5.601   8.456  0.9550  0.0409 -0.0602
11699SOL    HW247076   2.491   5.562   8.513  0.9971 -1.7988 -1.3160
11700SOL     OW47077   1.595   7.632   5.782  0.1564  0.6846  0.1266
11700SOL    HW147078   1.521   7.682   5.816  0.6959  1.8534 -0.3857
11700SOL    HW247079   1.554   7.557   5.737 -0.7105  1.2329 -0.0118
11701SOL     OW47080   6.523   0.237   4.196  0.1299 -0.3136  0.1827
11701SOL    HW147081   6.576   0.227   4.117  0.9244 -1.2622  0.8089
11701SOL    HW247082   6.577   0.291   4.255 -0.8769  1.2518 -0.2605
11702SOL     OW47083   3.472  10.271   4.333 -0.6920 -0.3033 -0.1248
11702SOL    HW147084   3.547  10.326   4.313 -0.3735 -0.6900  0.0123
11702SOL    HW247085   3.425  10.317   4.403 -0.7583  0.0927 -0.4288
11703SOL     OW47086   3.263   3.865   6.176 -0.1125 -0.2960 -0.2994
11703SOL    HW147087   3.266   3.878   6.081  0.3914 -0.2259 -0.2763
11703SOL    HW247088   3.235   3.774   6.186 -0.7385 -0.1324 -0.5041
11704SOL     OW47089   8.443   6.734   0.067  0.2714  0.4693  0.3207
11704SOL    HW147090   8.503   6.808   0.076  0.6976  0.3461 -1.2939
11704SOL    HW247091   8.480   6.681  -0.004 -2.0576  0.7231 -1.1991
11705SOL     OW47092   4.981   7.004   7.859  0.1488  0.2466 -0.0157
11705SOL    HW147093   4.903   7.022   7.807 -0.9554 -0.6312  1.2831
11705SOL    HW247094   4.992   7.082   7.914 -1.4743 -0.6629  1.7420
11706SOL     OW47095   9.448   6.546   8.589  0.2290 -0.0654  0.5912
11706SOL    HW147096   9.423   6.463   8.629  0.7877 -0.4583  0.1466
11706SOL    HW247097   9.453   6.607   8.662 -1.4887 -0.0798  0.7756
11707SOL     OW47098  10.353   8.501   0.347  0.2020 -0.3967 -0.3682
11707SOL    HW147099  10.386   8.428   0.295  2.0944 -0.6304  1.0154
11707SOL    HW247100  10.399   8.578   0.312  3.2052 -0.8373  2.1143
11708SOL     OW47101   7.773   3.423   1.109 -0.3688  0.0645 -0.4077
11708SOL    HW147102   7.769   3.339   1.063 -1.2442  0.3684 -0.9273
11708SOL    HW247103   7.681   3.450   1.115 -0.1243  0.7947  0.1135
11709SOL     OW47104   1.180   5.661   8.765 -0.5423 -0.1847  0.1141
11709SOL    HW147105   1.176   5.592   8.832 -0.8226  0.2781  0.5743
11709SOL    HW247106   1.272   5.686   8.762 -0.8231  1.1438  1.7117
11710SOL     OW47107   6.153   3.105   2.967 -0.0293 -0.0893  0.5015
11710SOL    HW147108   6.160   3.168   2.895 -0.3595  0.6023  1.0627
11710SOL    HW247109   6.234   3.119   3.017  0.5037 -1.0148 -0.0728
11711SOL     OW47110   3.815   5.222   1.593 -0.5555 -0.3212  0.6096
11711SOL    HW147111   3.742   5.225   1.531  0.0753 -0.8808 -0.1888
11711SOL    HW247112   3.870   5.297   1.570  0.1390 -1.0250 -0.1292
11712SOL     OW47113   1.306   3.786   6.876  0.0736  0.2529 -1.1156
11712SOL    HW147114   1.306   3.858   6.812  0.1088 -0.7295 -2.2721
11712SOL    HW247115   1.261   3.822   6.952  0.9975  1.8314 -1.2600
11713SOL     OW47116   7.722   9.732   1.831 -0.5409  0.0481 -0.4325
11713SOL    HW147117   7.644   9.788   1.829  0.9069  2.1436 -1.7390
11713SOL    HW247118   7.746   9.728   1.923 -1.2619  0.7487 -0.2014
11714SOL     OW47119   5.089   0.104   0.947  0.0319  0.1761 -0.2534
11714SOL    HW147120   5.056   0.059   1.025 -0.9218  0.7752 -0.2990
11714SOL    HW247121   5.168   0.149   0.977  0.2966 -0.5065  0.0923
11715SOL     OW47122   3.145   4.601   5.303 -0.1763  0.1228  0.1980
11715SOL    HW147123   3.101   4.683   5.325 -0.5073 -0.3845  1.5405
11715SOL    HW247124   3.088   4.533   5.338  0.0175 -0.7002 -1.0425
11716SOL     OW47125   2.488   4.571   9.827 -0.2643 -0.3061  0.0304
11716SOL    HW147126   2.464   4.663   9.835 -0.2422 -0.2220 -0.8073
11716SOL    HW247127   2.425   4.525   9.882 -0.5159  0.1706  0.1444
11717SOL     OW47128   4.414   1.673   9.305 -0.1419 -0.4145  0.3782
11717SOL    HW147129   4.427   1.593   9.255 -0.2759 -0.4209  0.3512
11717SOL    HW247130   4.322   1.695   9.290 -0.3156 -0.6887  1.0246
11718SOL     OW47131   6.636   9.505   0.028 -0.1224  0.5295  0.5345
11718SOL    HW147132   6.568   9.528   0.090  0.8719  0.3087  1.7494
11718SOL    HW247133   6.694   9.581   0.027 -0.0392  0.4633  0.0017
11719SOL     OW47134   5.895   0.076   2.091  0.1974  0.4150  0.3153
11719SOL    HW147135   5.927  -0.008   2.057  0.1870  0.6575 -0.3009
11719SOL    HW247136   5.962   0.104   2.153  0.3496  0.1008  0.2939
11720SOL     OW47137   0.860   6.980   9.544 -0.1723  0.0680 -0.2024
11720SOL    HW147138   0.788   7.042   9.534  0.9965  1.5199  0.0197
11720SOL    HW247139   0.888   6.961   9.454  0.1790  0.7555 -0.2459
11721SOL     OW47140   4.923   9.537   3.600 -0.0544 -0.2139  0.1006
11721SOL    HW147141   4.911   9.513   3.692  0.6700 -1.8655 -0.2010
11721SOL    HW247142   4.961   9.624   3.602 -1.0197  0.2097  1.3246
11722SOL     OW47143   1.872   7.442   4.327 -0.4081  0.1034  0.2625
11722SOL    HW147144   1.813   7.383   4.374  0.0523 -1.0889 -0.6051
11722SOL    HW247145   1.814   7.494   4.270 -0.5726 -2.7144 -2.4113
11723SOL     OW47146   8.507   6.204   6.751 -0.2924  0.5196  0.0754
11723SOL    HW147147   8.505   6.249   6.666 -0.6897 -1.7035 -1.1672
11723SOL    HW247148   8.429   6.236   6.796 -0.9820  0.5182 -1.0813
11724SOL     OW47149   0.382   3.615   8.544 -0.0800  0.0058  0.1265
11724SOL    HW147150   0.459   3.661   8.512 -0.5635  1.0561  0.4092
11724SOL    HW247151   0.410   3.574   8.626  0.5972 -0.9731 -0.5710
11725SOL     OW47152   2.390   7.147   7.077  0.0549 -0.7184  0.0125
11725SOL    HW147153   2.453   7.089   7.119  1.6057  0.0734 -1.1506
11725SOL    HW247154   2.407   7.233   7.115 -1.2384 -0.7177  0.6426
11726SOL     OW47155   6.174   4.846   1.027  0.3387  0.5425  0.1516
11726SOL    HW147156   6.144   4.937   1.033 -0.4138  0.3101  0.0411
11726SOL    HW247157   6.120   4.808   0.958  1.4262  0.3006 -0.6029
11727SOL     OW47158   4.590   9.687   5.604 -0.0054  0.3249  0.2007
11727SOL    HW147159   4.596   9.727   5.691 -0.2843 -1.2355  0.9780
11727SOL    HW247160   4.627   9.752   5.545 -0.4695  1.7164  1.3911
11728SOL     OW47161   6.297   7.733   7.162  0.1305 -0.0116 -0.6863
11728SOL    HW147162   6.358   7.659   7.157 -1.3886 -1.5928  1.8543
11728SOL    HW247163   6.210   7.694   7.152 -0.6131  2.0029 -2.8756
11729SOL     OW47164   6.741   6.047   7.272 -0.0424  0.3149 -0.1929
11729SOL    HW147165   6.657   6.021   7.309 -0.2627  1.1347 -0.0889
11729SOL    HW247166   6.804   6.029   7.340 -0.2090  0.1840 -0.0731
11730SOL     OW47167   5.471   7.051   8.266 -0.3849 -0.4215  0.1056
11730SOL    HW147168   5.426   7.093   8.193 -0.6569  0.8420  0.9643
11730SOL    HW247169   5.404   7.045   8.335  0.8393  2.1574  1.6735
11731SOL     OW47170   8.154   8.930   3.438  0.1236  0.5725  0.0933
11731SOL    HW147171   8.214   8.955   3.509  0.2394 -0.1473  0.2545
11731SOL    HW247172   8.188   8.975   3.361 -0.2086  1.6521  0.5558
11732SOL     OW47173   4.019   9.687   9.970 -0.0856  0.3649 -0.3393
11732SOL    HW147174   4.078   9.622   9.934  0.4509  0.8661 -0.3831
11732SOL    HW247175   3.934   9.669   9.929  0.1284 -0.1187 -0.5661
11733SOL     OW47176   9.265   2.827   5.012 -0.0584  0.2547 -0.7982
11733SOL    HW147177   9.220   2.882   5.076  0.1436  0.0597 -0.4882
11733SOL    HW247178   9.198   2.808   4.945 -0.0912  1.0025 -0.9920
11734SOL     OW47179   7.214   2.035   0.887  0.2291  0.3078 -0.0970
11734SOL    HW147180   7.277   1.968   0.860 -0.7656 -1.1881  1.0448
11734SOL    HW247181   7.144   2.031   0.821 -0.8805 -1.4132  1.0707
11735SOL     OW47182   2.554   9.076   5.371 -0.1551 -0.4240  0.0724
11735SOL    HW147183   2.550   9.026   5.290 -0.2396 -2.1386  1.0843
11735SOL    HW247184   2.606   9.022   5.430  1.9442  1.8350  0.5013
11736SOL     OW47185   9.612   2.480   9.957 -0.6517  0.2004  0.4892
11736SOL    HW147186   9.705   2.466   9.974 -0.2864 -0.9894 -2.0866
11736SOL    HW247187   9.604   2.575   9.944  0.7347  0.0783 -1.7363
11737SOL     OW47188   3.636   6.099   5.137 -0.3876 -0.0626 -0.0486
11737SOL    HW147189   3.672   6.187   5.145  0.2186 -0.2050 -1.1048
11737SOL    HW247190   3.653   6.059   5.223  0.1399  0.5535  0.1450
11738SOL     OW47191   1.234   5.359   9.200  0.2728 -0.5281 -0.0592
11738SOL    HW147192   1.308   5.329   9.253 -0.3970  1.3196  2.0914
11738SOL    HW247193   1.244   5.454   9.198 -1.1651 -0.3825 -1.1079
11739SOL     OW47194   5.582   9.390   9.706  0.4210 -0.1241  0.4534
11739SOL    HW147195   5.622   9.397   9.619 -1.8795 -1.5425 -0.8157
11739SOL    HW247196   5.656   9.380   9.766  2.1716  2.6198 -1.0720
11740SOL     OW47197   2.111   1.000   7.707 -0.0429 -0.0909 -0.4587
11740SOL    HW147198   2.090   1.071   7.647 -1.1823  1.6155  1.8180
11740SOL    HW247199   2.207   0.997   7.707  0.0363  1.7252 -0.3085
11741SOL     OW47200   3.638   0.896   3.109 -0.4674  0.0680 -0.0111
11741SOL    HW147201   3.552   0.922   3.078 -1.1715  0.2970  1.9691
11741SOL    HW247202   3.638   0.800   3.103 -0.8439  0.0694 -0.0542
11742SOL     OW47203   6.162   9.019   2.071 -0.0731  0.0377 -0.0635
11742SOL    HW147204   6.097   8.969   2.119  0.5286 -1.0988 -0.4035
11742SOL    HW247205   6.242   9.013   2.123 -0.0784  0.9384  0.0633
11743SOL     OW47206   1.603   5.828   3.896  0.8792 -0.2361  0.0710
11743SOL    HW147207   1.685   5.826   3.847  0.9942  0.4041  0.2366
11743SOL    HW247208   1.601   5.914   3.936 -1.0961  0.7763 -1.9880
11744SOL     OW47209   5.826   8.754   0.409 -0.7118 -0.0968  0.5565
11744SOL    HW147210   5.856   8.723   0.324 -1.1912 -3.2546  1.4150
11744SOL    HW247211   5.902   8.746   0.467 -0.5550  1.4649  0.6255
11745SOL     OW47212   5.606   7.528   5.414  0.2455  0.1469  0.2928
11745SOL    HW147213   5.644   7.462   5.355  2.5005  0.7498  0.9783
11745SOL    HW247214   5.559   7.588   5.356  1.2168 -0.0657 -0.7453
11746SOL     OW47215   5.906   2.150   8.600  0.5125  0.1919 -0.7826
11746SOL    HW147216   5.885   2.061   8.571 -1.9842  0.1185  0.9266
11746SOL    HW247217   5.865   2.206   8.535  0.3545  0.0772 -0.7837
11747SOL     OW47218   3.099   1.032   6.281 -0.1429 -0.4695  0.3007
11747SOL    HW147219   3.076   1.003   6.370 -0.9604 -1.8233 -0.3126
11747SOL    HW247220   3.033   0.991   6.225  0.2921  0.4590 -0.9318
11748SOL     OW47221   6.399   7.777   0.372  0.2774  0.2121 -0.0228
11748SOL    HW147222   6.436   7.832   0.303  1.9426 -0.5445  0.2099
11748SOL    HW247223   6.435   7.690   0.356  2.6476  0.4269  3.0256
11749SOL     OW47224   0.508   0.897   6.302  0.0456 -0.6083  0.2672
11749SOL    HW147225   0.506   0.920   6.394 -1.7350 -0.4823  0.2401
11749SOL    HW247226   0.570   0.959   6.262  0.8421 -0.6840  1.3561
11750SOL     OW47227   7.906   6.833   1.045  0.2063  0.4151  0.1170
11750SOL    HW147228   7.989   6.792   1.071 -0.1989  0.1577  1.0448
11750SOL    HW247229   7.906   6.918   1.089  1.2274  1.6553 -2.1226
11751SOL     OW47230   7.914   6.104   6.196  0.4090  0.1517 -0.1883
11751SOL    HW147231   7.957   6.051   6.264  0.8551  0.6343 -0.0938
11751SOL    HW247232   7.883   6.182   6.242  1.3641  0.8310 -0.6730
11752SOL     OW47233   1.763   3.715   2.959  0.3901 -0.1002  0.4389
11752SOL    HW147234   1.765   3.697   2.865  0.1936  1.2274  0.1573
11752SOL    HW247235   1.814   3.795   2.969 -1.0270  0.7473  1.2098
11753SOL     OW47236   4.691   0.124   7.938  0.7482 -0.0951 -0.2096
11753SOL    HW147237   4.740   0.198   7.973 -1.1400  1.6683 -1.0347
11753SOL    HW247238   4.689   0.139   7.843  1.0490 -1.7074 -0.5102
11754SOL     OW47239   5.440   1.829  10.318  0.0386 -0.3326  0.1915
11754SOL    HW147240   5.498   1.860  10.388 -1.2565 -0.7760  1.5369
11754SOL    HW247241   5.391   1.907  10.292 -0.3768 -0.4023  0.7244
11755SOL     OW47242   7.955   8.522   7.658  0.0118  0.1966 -0.4242
11755SOL    HW147243   7.925   8.557   7.741 -1.7755  0.3538 -1.0929
11755SOL    HW247244   7.972   8.599   7.604  1.7145  0.1091 -0.0543
11756SOL     OW47245  10.364   9.588   8.329 -0.2830 -0.2798 -0.0067
11756SOL    HW147246  10.433   9.557   8.388  1.0044  0.3026 -1.1628
11756SOL    HW247247  10.379   9.682   8.321 -0.8446 -0.2435 -0.7485
11757SOL     OW47248   9.916   0.655   1.167  0.1536 -0.1055 -0.1139
11757SOL    HW147249   9.821   0.641   1.166  0.1907 -1.1804  2.4845
11757SOL    HW247250   9.927   0.747   1.142 -1.5004 -0.0929 -0.9841
11758SOL     OW47251   2.216   4.528   8.376  0.1534  0.8680 -0.4113
11758SOL    HW147252   2.230   4.434   8.371  0.4899  0.8846  0.1358
11758SOL    HW247253   2.151   4.539   8.446 -0.1697  1.0178 -0.7310
11759SOL     OW47254   0.188   9.542   6.068  0.0218 -0.1532  0.6016
11759SOL    HW147255   0.157   9.627   6.036  0.9093 -0.1884 -0.4306
11759SOL    HW247256   0.109   9.489   6.076 -0.5502  0.7861  1.3415
11760SOL     OW47257  10.124   0.428   1.622 -0.4239  0.3926  0.2635
11760SOL    HW147258  10.123   0.515   1.582 -0.3601  0.6464  0.8047
11760SOL    HW247259  10.031   0.402   1.624 -0.4656  0.5414  0.2961
11761SOL     OW47260   1.101   3.036   5.840 -0.2259 -0.1254  0.0235
11761SOL    HW147261   1.099   2.943   5.819 -1.1544 -0.2906  0.8205
11761SOL    HW247262   1.138   3.040   5.928  1.7785  0.4269 -0.7794
11762SOL     OW47263   8.810   2.849   7.605 -0.3411 -0.6936 -0.1937
11762SOL    HW147264   8.861   2.898   7.539  0.4321 -0.3742  0.6192
11762SOL    HW247265   8.786   2.768   7.560 -1.9933  0.5609 -1.7124
11763SOL     OW47266   1.308   4.837   4.935  0.6212 -0.6906  0.4408
11763SOL    HW147267   1.225   4.839   4.982 -0.7911  0.2358 -1.9118
11763SOL    HW247268   1.308   4.752   4.890 -0.4167  0.3802 -1.7160
11764SOL     OW47269   2.952   9.766   5.155 -0.6256 -0.6094 -0.2871
11764SOL    HW147270   3.001   9.710   5.217  0.6838  0.3526 -0.4092
11764SOL    HW247271   2.986   9.741   5.069 -1.1723 -0.7071 -0.4775
11765SOL     OW47272   2.387   9.764   4.394  0.0756 -0.5450 -0.2998
11765SOL    HW147273   2.364   9.817   4.471 -0.2110  1.0069 -1.3961
11765SOL    HW247274   2.370   9.674   4.421  0.2056 -0.0676  1.5299
11766SOL     OW47275   9.830   4.540   3.304  0.4281 -0.9178  0.2695
11766SOL    HW147276   9.875   4.464   3.268  0.3178 -1.4949  1.3131
11766SOL    HW247277   9.898   4.607   3.309  0.5345 -0.9526 -0.6158
11767SOL     OW47278   0.934   6.029   1.643 -0.0527 -0.1481  0.8458
11767SOL    HW147279   0.892   6.047   1.728 -0.2223  1.6592  0.4148
11767SOL    HW247280   0.929   6.112   1.596 -0.1285 -1.1587 -1.0262
11768SOL     OW47281  10.157   0.189   1.401 -0.0987  0.6633  0.3291
11768SOL    HW147282  10.140   0.239   1.481 -0.3586  1.4424 -0.2036
11768SOL    HW247283  10.249   0.164   1.407 -0.3624 -0.1190  1.3254
11769SOL     OW47284   0.935   2.439   4.152 -0.7564  0.0636  0.5848
11769SOL    HW147285   0.888   2.398   4.225  0.4124 -0.2545  1.1866
11769SOL    HW247286   1.027   2.424   4.172 -0.4140 -0.7110 -1.3548
11770SOL     OW47287   2.851   6.692   0.511  0.2588 -0.2972  0.4068
11770SOL    HW147288   2.794   6.766   0.490 -0.5303 -0.8605  0.5284
11770SOL    HW247289   2.791   6.623   0.539  0.9415 -1.1424 -0.1631
11771SOL     OW47290   2.639  10.248   1.027  0.2608 -0.0671 -0.1206
11771SOL    HW147291   2.552  10.213   1.045 -0.5132  0.4169 -2.4653
11771SOL    HW247292   2.654  10.313   1.096 -0.1260 -1.8801  1.7526
11772SOL     OW47293   6.786   6.908   2.059  0.7999  0.0202  0.2436
11772SOL    HW147294   6.867   6.944   2.023  0.9906 -0.9313 -0.3111
11772SOL    HW247295   6.717   6.958   2.017  1.0794  0.6419  0.5018
11773SOL     OW47296   1.750   8.832  10.079 -0.6683 -0.0328 -0.4139
11773SOL    HW147297   1.772   8.918  10.114 -0.4601 -0.3392  0.2407
11773SOL    HW247298   1.805   8.772  10.130  1.6796 -0.3240 -3.0674
11774SOL     OW47299   2.529   6.775   1.277 -0.3544  0.2245 -0.2728
11774SOL    HW147300   2.490   6.757   1.363  3.4192 -2.8378  1.1042
11774SOL    HW247301   2.479   6.719   1.217 -1.2352  0.2355  0.4187
11775SOL     OW47302   4.366   2.204   0.648  0.3392  0.6454 -0.5290
11775SOL    HW147303   4.295   2.266   0.662 -0.8976 -1.2083  2.6232
11775SOL    HW247304   4.322   2.124   0.619  1.1753 -0.2481  0.5451
11776SOL     OW47305   1.689   8.804   5.789 -0.2648 -0.7563 -0.0083
11776SOL    HW147306   1.666   8.727   5.737  0.1898  0.8935 -2.9404
11776SOL    HW247307   1.762   8.844   5.741 -0.2543  1.3093  1.5588
11777SOL     OW47308   0.124   7.972   0.021  0.1342  0.2454 -0.0977
11777SOL    HW147309   0.070   8.048   0.001 -0.0528  0.5741  1.4659
11777SOL    HW247310   0.212   7.997  -0.005 -0.1357  0.5070 -0.7594
11778SOL     OW47311   6.108   8.603   7.553  0.1866  0.1768  0.3568
11778SOL    HW147312   6.022   8.619   7.592 -1.3578 -1.4500 -2.0805
11778SOL    HW247313   6.125   8.680   7.499 -0.8214 -0.3708 -0.8081
11779SOL     OW47314   6.187   7.125   5.086 -0.0591 -0.7943  0.5971
11779SOL    HW147315   6.195   7.091   4.997  0.3024  1.6660 -0.3813
11779SOL    HW247316   6.253   7.077   5.136  2.8842  0.7347 -1.4940
11780SOL     OW47317   1.695   5.349   2.119  0.1763  0.2967 -0.0534
11780SOL    HW147318   1.724   5.376   2.206  0.7017  0.5564 -0.3052
11780SOL    HW247319   1.766   5.293   2.086 -0.9998 -1.6827  0.5666
11781SOL     OW47320   5.402   3.156   3.001  0.0717  0.2168  0.0075
11781SOL    HW147321   5.342   3.097   2.955 -0.5919 -1.5021  2.8586
11781SOL    HW247322   5.489   3.131   2.969 -0.2807 -1.7157  0.3999
11782SOL     OW47323   7.528   5.836   7.917  0.0394  0.2486 -0.1287
11782SOL    HW147324   7.623   5.834   7.914  0.0563 -1.2115  0.5823
11782SOL    HW247325   7.505   5.782   7.992 -1.3766 -0.3997 -0.9858
11783SOL     OW47326   2.284   1.106   6.439 -0.1231 -0.3693 -0.5153
11783SOL    HW147327   2.358   1.110   6.379  0.8209  0.5746  0.6648
11783SOL    HW247328   2.218   1.164   6.400  0.1397 -0.4418 -1.0714
11784SOL     OW47329   2.878   2.321   4.335 -0.2535  0.5361 -0.8310
11784SOL    HW147330   2.930   2.398   4.361 -0.8403  0.4246  0.7877
11784SOL    HW247331   2.924   2.247   4.376 -0.9089  0.2770 -0.5627
11785SOL     OW47332   3.153   0.835   8.809  0.1922 -0.0032  0.5168
11785SOL    HW147333   3.130   0.794   8.893  0.9412  0.2497  0.8453
11785SOL    HW247334   3.081   0.895   8.792 -0.1155 -0.2772  0.8230
11786SOL     OW47335   0.202   7.358   6.752 -0.7417 -0.0544  0.5351
11786SOL    HW147336   0.259   7.432   6.732  1.5608 -2.2059 -1.6219
11786SOL    HW247337   0.138   7.356   6.681  0.8882 -1.5655 -1.0033
11787SOL     OW47338  10.131   3.650   4.381  0.2659 -0.5415  0.1809
11787SOL    HW147339  10.133   3.586   4.452  2.3445  0.9534  1.5793
11787SOL    HW247340  10.156   3.732   4.422 -1.0889  0.9713 -1.8061
11788SOL     OW47341   8.213   9.933   0.976 -0.3152 -0.0859  0.2305
11788SOL    HW147342   8.194   9.859   1.033  0.1744 -0.6918 -0.3786
11788SOL    HW247343   8.275   9.986   1.025 -1.5784  0.5859  1.1798
11789SOL     OW47344   8.357   0.597   6.107 -0.3923  0.1017 -0.1805
11789SOL    HW147345   8.290   0.532   6.128 -0.7801  0.5330 -0.0670
11789SOL    HW247346   8.370   0.645   6.189 -0.1435  0.2046 -0.2776
11790SOL     OW47347   3.551   8.923   9.933  0.2488  0.0424 -0.5873
11790SOL    HW147348   3.597   8.875   9.864  0.3624  0.9256 -1.1527
11790SOL    HW247349   3.460   8.926   9.904  0.5873  1.9638 -1.6717
11791SOL     OW47350   5.068   0.038   1.778  0.5342  0.0622 -0.1459
11791SOL    HW147351   5.071   0.129   1.748  0.7082  0.0225 -0.2485
11791SOL    HW247352   5.117   0.038   1.860  3.0857 -0.4945 -1.5841
11792SOL     OW47353   0.870   0.367   0.912  0.0081  0.5193 -0.3851
11792SOL    HW147354   0.822   0.297   0.955  0.5960 -0.2744 -0.9954
11792SOL    HW247355   0.863   0.441   0.972 -1.8431  0.3931 -0.3985
11793SOL     OW47356   5.313   5.042   0.766  0.0221 -0.4270  0.3426
11793SOL    HW147357   5.325   5.023   0.859  0.7923  0.5739  0.4631
11793SOL    HW247358   5.235   5.097   0.763  0.3353  0.0310  0.4704
11794SOL     OW47359   1.670   7.863   6.762  0.5353  0.0723 -0.3810
11794SOL    HW147360   1.606   7.912   6.813  0.9709  0.0839  0.1654
11794SOL    HW247361   1.716   7.810   6.827  0.2358 -0.8821 -0.9353
11795SOL     OW47362   5.723   3.268   0.787 -0.3182  0.8284  0.3491
11795SOL    HW147363   5.662   3.280   0.860 -1.2456 -0.1580 -0.2471
11795SOL    HW247364   5.717   3.350   0.737 -2.4331  0.1461 -0.6183
11796SOL     OW47365   7.822   4.959   6.900  0.3154  0.3686  0.0987
11796SOL    HW147366   7.748   4.939   6.842  0.4811 -1.7499  0.5431
11796SOL    HW247367   7.897   4.965   6.841  0.2356 -0.2067 -0.0608
11797SOL     OW47368   0.190   5.400   3.038 -0.2502 -0.3186  0.1486
11797SOL    HW147369   0.208   5.442   3.122  1.5533  3.1388 -1.7228
11797SOL    HW247370   0.276   5.372   3.007 -0.7721 -0.7667 -0.9288
11798SOL     OW47371   2.225   3.266   8.219 -0.3519  0.5751 -0.5975
11798SOL    HW147372   2.232   3.255   8.124  0.3762  0.3727 -0.5245
11798SOL    HW247373   2.299   3.322   8.243 -1.6686  2.3172 -0.4030
11799SOL     OW47374   6.545   1.613   1.488 -0.3483 -0.0055 -0.3972
11799SOL    HW147375   6.529   1.519   1.478 -0.9309 -0.2970  2.3806
11799SOL    HW247376   6.459   1.651   1.505  0.2061  0.4234  1.8625
11800SOL     OW47377   1.993   7.027   9.077  0.4790  0.5163  0.1426
11800SOL    HW147378   2.051   7.016   9.002 -0.4523  1.2866 -0.7114
11800SOL    HW247379   1.979   7.121   9.082 -0.3976  0.3673  0.5732
11801SOL     OW47380   2.333   1.782  10.186 -0.3057  0.2037  0.2377
11801SOL    HW147381   2.350   1.799  10.093  0.4794  0.3638  0.3980
11801SOL    HW247382   2.312   1.868  10.223  1.0470  0.4351  0.5268
11802SOL     OW47383   1.403   2.459   0.075 -0.2883  0.4002  0.2951
11802SOL    HW147384   1.323   2.466   0.127  0.8283 -2.5398  2.7550
11802SOL    HW247385   1.374   2.419  -0.007 -1.3358 -2.0997  1.7305
11803SOL     OW47386   5.142   7.030   1.304 -0.4980 -0.1073  0.3901
11803SOL    HW147387   5.133   6.948   1.352 -0.6954  0.7060  1.8069
11803SOL    HW247388   5.112   7.097   1.365 -0.0410  1.0588 -0.6167
11804SOL     OW47389   7.748   0.057   7.105 -0.4806 -0.2773 -0.2212
11804SOL    HW147390   7.656   0.039   7.082 -1.1220  1.1016  1.0579
11804SOL    HW247391   7.753   0.040   7.199 -0.2604  2.4803  0.3724
11805SOL     OW47392   9.127   7.103   2.401 -0.8079  0.2361  0.8825
11805SOL    HW147393   9.112   7.022   2.353 -2.5158  0.7838  0.4105
11805SOL    HW247394   9.066   7.165   2.361 -0.5038  1.3826  2.1460
11806SOL     OW47395   8.664   9.370   9.079 -0.1210 -0.1058  1.0821
11806SOL    HW147396   8.725   9.316   9.129 -0.5759 -0.7363  0.9715
11806SOL    HW247397   8.590   9.312   9.062  0.2480 -0.0809 -0.7779
11807SOL     OW47398   4.776   7.773   3.573  0.5341 -0.1934  0.0047
11807SOL    HW147399   4.700   7.716   3.587 -0.5315  1.1620 -0.0359
11807SOL    HW247400   4.828   7.728   3.507 -0.4975 -0.9243 -0.3407
11808SOL     OW47401   2.125   4.356   9.340  0.2091 -0.0473 -0.5498
11808SOL    HW147402   2.107   4.422   9.274 -1.7330  0.3052  0.2510
11808SOL    HW247403   2.140   4.405   9.421 -0.1806 -0.5243 -0.1751
11809SOL     OW47404   4.828   1.432   4.848  0.2717 -0.5347 -0.4093
11809SOL    HW147405   4.875   1.478   4.918 -0.1048  1.9289 -1.6674
11809SOL    HW247406   4.740   1.469   4.851 -0.6330 -2.5725 -0.3304
11810SOL     OW47407   7.566  10.228   5.884 -0.6885  0.6624  0.2845
11810SOL    HW147408   7.629  10.282   5.932 -0.4504  0.7814 -0.1567
11810SOL    HW247409   7.620  10.178   5.822 -0.8980 -0.1114  0.7143
11811SOL     OW47410   8.322   9.287   3.806 -0.1543  0.8390  0.2388
11811SOL    HW147411   8.346   9.358   3.746 -0.1732  0.1936 -0.5594
11811SOL    HW247412   8.232   9.307   3.831 -0.4789  0.6105 -0.7176
11812SOL     OW47413   7.379   0.052   5.251  0.1587  0.2685  0.8482
11812SOL    HW147414   7.379  -0.024   5.193  1.9595  0.6687  0.2436
11812SOL    HW247415   7.459   0.041   5.303 -0.8547  0.4953  2.4960
11813SOL     OW47416   6.488   6.871   1.975 -0.7613  0.1869  0.1726
11813SOL    HW147417   6.500   6.954   1.928  1.2830 -0.3021 -0.2789
11813SOL    HW247418   6.532   6.807   1.920 -0.7170 -0.8839  1.4215
11814SOL     OW47419   1.962   5.716   6.082  0.0344 -0.8969 -0.5851
11814SOL    HW147420   1.894   5.709   6.149 -0.3794 -1.1223 -1.0328
11814SOL    HW247421   1.915   5.728   6.000  0.4585 -2.8360 -1.1462
11815SOL     OW47422   5.154   2.477   7.672 -0.0789 -0.1260  0.2670
11815SOL    HW147423   5.088   2.544   7.652  0.0875 -0.5062 -1.8083
11815SOL    HW247424   5.237   2.525   7.673 -0.1699  0.0319  0.9574
11816SOL     OW47425   0.477   3.019   2.820 -0.6018 -0.4781  0.2247
11816SOL    HW147426   0.404   2.990   2.766 -0.7004 -0.4192  0.3251
11816SOL    HW247427   0.443   3.094   2.869 -0.8468 -1.1944  1.1704
11817SOL     OW47428   4.122   3.887   7.485  0.4762  0.0710  0.3207
11817SOL    HW147429   4.197   3.877   7.543 -1.9651  1.2278  4.0454
11817SOL    HW247430   4.107   3.799   7.450  2.4476 -0.5485  0.8916
11818SOL     OW47431   4.793   4.602   4.913 -0.5088 -0.1341 -0.3876
11818SOL    HW147432   4.749   4.630   4.833 -0.4706 -0.1515 -0.4151
11818SOL    HW247433   4.876   4.565   4.883 -0.1647  0.5376 -0.2834
11819SOL     OW47434   2.196  10.027   5.764  0.1076 -0.1405 -0.0773
11819SOL    HW147435   2.289  10.048   5.770  0.2430 -0.9098  0.6814
11819SOL    HW247436   2.190   9.966   5.690 -0.0439  1.1629 -1.1766
11820SOL     OW47437   5.596   1.804   3.642  0.3586  0.2977 -0.6075
11820SOL    HW147438   5.654   1.819   3.568  0.4573 -0.5337 -0.7040
11820SOL    HW247439   5.571   1.712   3.635  0.9675  0.0042  0.8148
11821SOL     OW47440   3.997   8.171   1.120  0.0779  0.1514 -0.0597
11821SOL    HW147441   4.026   8.125   1.042  0.4409 -0.7230  0.5736
11821SOL    HW247442   4.077   8.183   1.171 -0.4450 -1.0897  1.1004
11822SOL     OW47443   3.825   7.687   6.056 -0.2897  0.2113  0.2446
11822SOL    HW147444   3.830   7.598   6.021  1.1421  0.4101 -0.1186
11822SOL    HW247445   3.877   7.685   6.136 -1.0749  0.4923  0.7714
11823SOL     OW47446   3.065   0.147   2.096 -0.1158 -0.1060 -0.0074
11823SOL    HW147447   3.023   0.232   2.084  0.8564  0.9719  3.1530
11823SOL    HW247448   3.153   0.158   2.059 -0.9858 -0.8816 -2.4967
11824SOL     OW47449   9.889   0.776   1.754  0.2029 -0.4744  0.2597
11824SOL    HW147450   9.820   0.768   1.819 -0.7842  0.0774 -0.6876
11824SOL    HW247451   9.843   0.774   1.670  1.4156 -0.8823 -0.4181
11825SOL     OW47452   6.951   2.251   9.515  0.1795 -0.1867 -0.0569
11825SOL    HW147453   7.011   2.326   9.515 -0.3329  0.2242 -0.0168
11825SOL    HW247454   7.006   2.177   9.543  0.0864  0.6538  2.5481
11826SOL     OW47455   8.670   5.224   5.813 -0.2599 -0.1086  0.1206
11826SOL    HW147456   8.694   5.188   5.728 -0.0290 -1.1344  0.6060
11826SOL    HW247457   8.717   5.170   5.877 -1.6603 -0.3978  0.9670
11827SOL     OW47458   6.422   5.591   7.476  0.1619  0.1124 -0.0972
11827SOL    HW147459   6.472   5.512   7.495 -0.3588 -0.2001 -0.0007
11827SOL    HW247460   6.465   5.628   7.399 -0.0790 -0.7134 -0.6506
11828SOL     OW47461   3.829   7.171   8.427 -0.3715  0.2892  0.1790
11828SOL    HW147462   3.745   7.128   8.446 -0.0955 -0.9699 -1.2398
11828SOL    HW247463   3.814   7.214   8.342  0.4754 -0.1843 -0.2236
11829SOL     OW47464   1.632   9.660   6.382 -0.0778  0.2839 -0.4951
11829SOL    HW147465   1.630   9.745   6.426 -0.2095 -0.0121  0.0823
11829SOL    HW247466   1.695   9.609   6.432  0.3901  0.2076 -1.1589
11830SOL     OW47467  10.175   3.452   8.715  0.3185  0.4050  0.0133
11830SOL    HW147468  10.198   3.403   8.794  0.6901  0.0814 -0.2907
11830SOL    HW247469  10.255   3.452   8.663 -0.8280 -2.3868 -1.9468
11831SOL     OW47470   9.506   3.186   1.747  0.5240  0.6563  0.2744
11831SOL    HW147471   9.580   3.150   1.796 -0.0381 -0.1001  0.5891
11831SOL    HW247472   9.435   3.123   1.762 -0.0388  1.1161 -0.4241
11832SOL     OW47473   8.393   1.135   2.075  0.0379 -0.4266  0.1860
11832SOL    HW147474   8.414   1.220   2.037 -0.2820 -0.1311  0.6564
11832SOL    HW247475   8.455   1.125   2.147  0.0530 -0.5757  0.1518
11833SOL     OW47476   0.402   9.624   1.590  0.0250 -0.1808  0.1137
11833SOL    HW147477   0.325   9.668   1.626 -0.3897 -1.6349  1.0774
11833SOL    HW247478   0.430   9.563   1.658  1.2736 -0.5869 -0.7180
11834SOL     OW47479   8.494   8.833   1.545  0.1127  0.3700  0.4317
11834SOL    HW147480   8.436   8.777   1.494  0.1377  0.5359  0.2206
11834SOL    HW247481   8.436   8.886   1.598  0.0648  0.6354  0.1180
11835SOL     OW47482  10.243   9.228   6.942 -0.4806 -0.2702  0.4170
11835SOL    HW147483  10.294   9.290   6.890 -0.2884 -0.3114  0.5575
11835SOL    HW247484  10.296   9.149   6.945  0.5676  0.4422  2.5541
11836SOL     OW47485   0.891   8.865   2.624 -0.1176  0.0067 -0.4331
11836SOL    HW147486   0.912   8.958   2.627 -1.6368  0.3466  0.9383
11836SOL    HW247487   0.955   8.824   2.683 -2.5319  0.9258  3.1261
11837SOL     OW47488   4.700   2.326   4.828 -0.1116 -0.2777 -0.1201
11837SOL    HW147489   4.676   2.346   4.737 -1.0214 -1.4396 -0.1545
11837SOL    HW247490   4.674   2.403   4.877  0.3783  0.3626 -0.8362
11838SOL     OW47491   2.616   0.585   7.823 -0.3100 -0.0023 -0.1050
11838SOL    HW147492   2.668   0.580   7.742 -0.8738  1.1527 -0.5621
11838SOL    HW247493   2.594   0.678   7.831  0.6535  0.1145  1.9725
11839SOL     OW47494   9.566   8.279   2.570 -0.0218 -0.7208  0.2154
11839SOL    HW147495   9.620   8.257   2.646  0.5367 -1.9072 -0.4905
11839SOL    HW247496   9.512   8.201   2.556  0.3126 -0.7614 -0.9624
11840SOL     OW47497   8.570   1.751   3.933  0.0173  0.3712 -0.1534
11840SOL    HW147498   8.478   1.764   3.913  0.2165  0.4772 -1.0149
11840SOL    HW247499   8.607   1.839   3.942  0.1860  0.3399 -0.5220
11841SOL     OW47500   6.252   0.417   2.401  0.4479 -0.2798 -0.1529
11841SOL    HW147501   6.327   0.440   2.455  1.6399 -3.6064 -0.1500
11841SOL    HW247502   6.192   0.372   2.461 -0.0006 -0.5836 -0.8066
11842SOL     OW47503   7.945   5.897   7.062 -0.8708  0.3203  0.7427
11842SOL    HW147504   7.904   5.926   7.143 -2.1871 -1.0537  0.6128
11842SOL    HW247505   7.912   5.958   6.995  0.0072  1.2881  1.1699
11843SOL     OW47506   0.912   8.502   1.211  0.6771 -0.1631 -0.3292
11843SOL    HW147507   0.883   8.411   1.208  1.3077 -0.3391 -3.2381
11843SOL    HW247508   0.831   8.553   1.203  0.3731 -0.4420  0.7918
11844SOL     OW47509   1.333   3.181   8.875  0.7313  0.2600 -0.2084
11844SOL    HW147510   1.260   3.132   8.913 -0.3515  1.0105 -1.2646
11844SOL    HW247511   1.333   3.157   8.783  0.5559  1.7532 -0.6218
11845SOL     OW47512   2.557   0.087   8.937 -0.6879  0.1005  0.1434
11845SOL    HW147513   2.639   0.121   8.974 -2.0740  3.5621  0.4218
11845SOL    HW247514   2.582   0.051   8.852  1.0421  1.9135 -0.1871
11846SOL     OW47515   9.939   3.966   5.052  0.5713 -0.3135 -0.4288
11846SOL    HW147516   9.985   4.034   5.002  1.3366 -0.1939  0.4140
11846SOL    HW247517   9.984   3.964   5.137 -0.3470 -0.9007  0.0566
11847SOL     OW47518   3.268   5.422   4.236 -0.2983  0.3794 -0.0115
11847SOL    HW147519   3.353   5.463   4.247 -1.1664  1.8590  1.9941
11847SOL    HW247520   3.218   5.484   4.183  0.2922 -1.2681 -2.6621
11848SOL     OW47521   1.288   6.593   3.816  0.5159 -0.1321 -0.2475
11848SOL    HW147522   1.374   6.555   3.795 -0.2798 -1.2064 -1.7252
11848SOL    HW247523   1.294   6.615   3.909  2.3496 -0.2838 -0.2922
11849SOL     OW47524   7.806   2.711   4.964  0.2948 -0.1833 -0.2717
11849SOL    HW147525   7.758   2.637   4.926  1.8742 -1.2054 -0.3353
11849SOL    HW247526   7.852   2.750   4.890  1.6248 -0.8267  0.1947
11850SOL     OW47527   1.656   6.711   9.452  0.1050 -0.2197 -0.2933
11850SOL    HW147528   1.696   6.689   9.536  0.8347  0.4883 -0.4452
11850SOL    HW247529   1.568   6.742   9.474  0.3833  0.2046  0.2361
11851SOL     OW47530   8.962   1.371   7.483 -0.5094 -0.3025 -0.0219
11851SOL    HW147531   9.013   1.403   7.558 -0.0763  1.3285 -0.9465
11851SOL    HW247532   9.015   1.301   7.446  0.4821  0.4958 -0.1877
11852SOL     OW47533   9.433  10.234  10.067 -0.0064  0.3127 -0.3717
11852SOL    HW147534   9.448  10.153  10.019  0.7384 -0.7519  1.5264
11852SOL    HW247535   9.338  10.240  10.075 -0.1548  0.5716 -1.9674
11853SOL     OW47536   8.670   1.933  10.211  0.3079  0.2053  0.6610
11853SOL    HW147537   8.581   1.964  10.223  0.4314 -0.2995  3.4137
11853SOL    HW247538   8.715   2.007  10.169 -0.9164  1.2072  1.0525
11854SOL     OW47539   9.629   2.020   4.030  0.0698  0.6307 -0.4097
11854SOL    HW147540   9.643   2.042   4.122 -2.0375  0.3503  0.0288
11854SOL    HW247541   9.572   1.943   4.033 -0.2378  0.7820 -1.9443
11855SOL     OW47542   8.087  10.221   6.772  0.1856 -0.0740 -0.4658
11855SOL    HW147543   8.021  10.269   6.822 -1.7603 -0.7721 -2.2135
11855SOL    HW247544   8.086  10.133   6.811  1.3008  0.3257  0.5354
11856SOL     OW47545   4.051   4.964   0.975  0.0491  0.2706 -0.4731
11856SOL    HW147546   4.062   5.020   1.051 -0.3541  1.4215 -1.2323
11856SOL    HW247547   4.137   4.924   0.962  0.7826  1.8718 -0.7865
11857SOL     OW47548   5.405   9.457   3.642  0.3756  0.0943 -0.4424
11857SOL    HW147549   5.365   9.481   3.726  0.5036 -1.1737 -0.0008
11857SOL    HW247550   5.491   9.424   3.665  1.0218  1.1733 -1.2357
11858SOL     OW47551   0.923   0.205   3.608 -0.4280 -0.7582  0.6304
11858SOL    HW147552   0.942   0.169   3.521  0.2188  0.0539  0.4246
11858SOL    HW247553   0.927   0.129   3.667  0.3589 -1.1218  0.1256
11859SOL     OW47554   9.238   5.882   3.816 -0.0030 -0.4268 -0.3725
11859SOL    HW147555   9.322   5.926   3.832  0.7418 -1.0423 -2.2644
11859SOL    HW247556   9.262   5.793   3.789 -1.2011 -0.4123 -1.6195
11860SOL     OW47557   6.882   1.383   0.246 -0.3821 -0.1944 -0.1654
11860SOL    HW147558   6.970   1.407   0.275 -0.8822  1.7835 -0.1194
11860SOL    HW247559   6.885   1.394   0.151 -0.5793 -0.1086 -0.1619
11861SOL     OW47560   0.048   9.084   9.811 -0.1642 -0.8689  0.0873
11861SOL    HW147561  -0.045   9.066   9.828 -0.1559  0.0800  1.2489
11861SOL    HW247562   0.085   9.103   9.897  0.5685  1.1534 -0.6059
11862SOL     OW47563   8.034   2.119   6.152 -0.2373  0.1038  0.2085
11862SOL    HW147564   8.023   2.067   6.073  1.7478 -1.9451  1.1861
11862SOL    HW247565   8.104   2.076   6.201  0.3797  2.7591  1.9069
11863SOL     OW47566  10.012   1.738   5.972  0.1818  0.0689 -0.1912
11863SOL    HW147567   9.989   1.803   5.905  0.0061 -0.2506 -0.4426
11863SOL    HW247568  10.052   1.666   5.923 -0.5386 -0.4471 -0.0297
11864SOL     OW47569   9.661   2.810   2.298 -0.1776 -0.1012  0.2604
11864SOL    HW147570   9.642   2.883   2.238  0.7164 -0.0289  0.0591
11864SOL    HW247571   9.722   2.754   2.249  2.6497  1.2600  1.9803
11865SOL     OW47572   4.771   8.344   6.504 -0.2704  0.2329  0.4096
11865SOL    HW147573   4.775   8.411   6.436  0.5034 -0.1385  0.0726
11865SOL    HW247574   4.730   8.388   6.578  1.5165  1.5420  0.6900
11866SOL     OW47575   0.102   7.191   9.751  0.1728 -0.7487 -0.4036
11866SOL    HW147576   0.017   7.194   9.708 -0.4720 -1.4233  0.7559
11866SOL    HW247577   0.122   7.097   9.757 -0.2139 -0.7409  1.5575
11867SOL     OW47578   2.151   6.199   2.290  0.6649 -0.1392  0.0651
11867SOL    HW147579   2.171   6.267   2.226 -2.5575 -0.2389 -1.2652
11867SOL    HW247580   2.073   6.156   2.255 -0.2134 -1.3992  3.2056
11868SOL     OW47581   9.942   4.248   6.333  0.4118 -0.0933  0.4072
11868SOL    HW147582   9.860   4.290   6.306  0.3885  1.7065  2.9747
11868SOL    HW247583  10.011   4.305   6.299  0.5073 -0.1204  0.5550
11869SOL     OW47584   7.319   0.068   3.534  0.3787  0.0461 -0.1562
11869SOL    HW147585   7.302   0.101   3.622 -0.3493 -1.2296  0.2204
11869SOL    HW247586   7.290   0.137   3.476  0.4185  0.7160  0.6036
11870SOL     OW47587   8.470   0.536   4.930 -0.4350  0.4258  0.7150
11870SOL    HW147588   8.444   0.628   4.937 -0.7277  0.3567  0.5467
11870SOL    HW247589   8.564   0.539   4.915 -0.5308  0.7180  0.1302
11871SOL     OW47590   5.753   3.540   2.865  0.8038 -0.1204 -0.1328
11871SOL    HW147591   5.733   3.617   2.918  3.2059  0.2935  0.2825
11871SOL    HW247592   5.755   3.467   2.927 -4.1593 -1.2340 -0.8614
11872SOL     OW47593   7.131   1.083   6.515  0.3611 -0.4467 -1.0431
11872SOL    HW147594   7.047   1.045   6.490 -0.1635  1.0755 -1.7510
11872SOL    HW247595   7.193   1.049   6.451  0.6191 -2.7229  0.3361
11873SOL     OW47596   6.971   6.333   5.399 -0.4761 -0.2293 -0.1206
11873SOL    HW147597   6.979   6.302   5.489  0.0498  0.1277 -0.0386
11873SOL    HW247598   6.877   6.338   5.384 -0.5692 -0.8939  0.1940
11874SOL     OW47599   2.621   2.271   4.267 -0.2871 -0.3867 -0.3506
11874SOL    HW147600   2.579   2.334   4.325  0.5933 -0.1511  0.0537
11874SOL    HW247601   2.713   2.296   4.268 -0.2624 -0.3345 -1.9168
11875SOL     OW47602   5.440   5.134   1.559  0.4121  0.3649 -0.1592
11875SOL    HW147603   5.361   5.084   1.538  0.7529 -0.7335  1.0146
11875SOL    HW247604   5.415   5.226   1.547 -0.1167 -0.0554 -2.7475
11876SOL     OW47605   9.205   4.711   7.908 -0.2474 -0.2992 -0.2129
11876SOL    HW147606   9.209   4.617   7.890  0.3027 -0.4356  0.6025
11876SOL    HW247607   9.114   4.726   7.935 -0.1974 -0.6932  0.1810
11877SOL     OW47608   4.877   8.936   5.542 -0.0264 -0.4731 -0.5325
11877SOL    HW147609   4.896   9.002   5.608  0.9611 -1.4727  0.2197
11877SOL    HW247610   4.958   8.926   5.493  1.0163 -3.4522  1.5144
11878SOL     OW47611   4.412   3.465   5.856 -0.6302 -1.2085  0.4855
11878SOL    HW147612   4.386   3.557   5.859  0.7608 -0.7764 -0.3654
11878SOL    HW247613   4.391   3.437   5.767 -0.1832 -1.4559  0.4581
11879SOL     OW47614   6.247   0.957   5.364  0.4680  0.0556  0.5391
11879SOL    HW147615   6.257   0.888   5.298 -1.1762  0.1422  0.1619
11879SOL    HW247616   6.218   1.034   5.315  0.7504  0.5737  1.1682
11880SOL     OW47617   5.569   9.488   6.456 -0.0099  0.5779  0.1788
11880SOL    HW147618   5.555   9.579   6.430 -0.6538  0.2257 -0.7937
11880SOL    HW247619   5.663   9.479   6.467  0.1786  1.0551 -0.9530
11881SOL     OW47620   2.559   3.525   3.186  0.3610 -0.0014  0.4740
11881SOL    HW147621   2.534   3.437   3.158  0.4050  0.2393 -0.3568
11881SOL    HW247622   2.479   3.563   3.223 -0.3469  0.4773 -1.4237
11882SOL     OW47623  10.084   7.004   8.247 -0.5092  0.3140 -0.6666
11882SOL    HW147624  10.130   6.969   8.170  2.1432  2.3006 -0.1137
11882SOL    HW247625  10.002   6.954   8.250  1.1632 -2.8353 -2.2537
11883SOL     OW47626   7.132   0.634   8.587 -0.2872 -0.6722  0.1345
11883SOL    HW147627   7.120   0.719   8.629 -0.4706 -0.7976  0.3333
11883SOL    HW247628   7.153   0.655   8.496 -0.2641 -0.4116  0.2000
11884SOL     OW47629   9.588   7.193   2.119 -0.4819  0.3589  0.7621
11884SOL    HW147630   9.598   7.211   2.026  0.7855  1.8126  1.1343
11884SOL    HW247631   9.508   7.142   2.126  0.6964 -1.9797 -1.3720
11885SOL     OW47632   7.003   9.888   2.041 -0.1399 -0.0385  0.1454
11885SOL    HW147633   6.971   9.820   1.981 -0.5865  0.5092 -0.2486
11885SOL    HW247634   7.074   9.846   2.089  0.0133 -0.5904 -0.5448
11886SOL     OW47635   0.552   6.780   4.950  0.6807 -0.1665  0.4567
11886SOL    HW147636   0.582   6.843   4.885 -2.0793  1.5792  0.7054
11886SOL    HW247637   0.491   6.724   4.903 -0.3397  0.2719  1.2266
11887SOL     OW47638   9.435   0.965   4.842  0.3397 -0.2872 -0.7806
11887SOL    HW147639   9.460   0.882   4.884  2.1168 -0.0719 -1.3151
11887SOL    HW247640   9.479   0.963   4.757 -1.3448  0.2958 -1.6997
11888SOL     OW47641   2.792   4.720   8.696 -0.9752  0.6867  0.1509
11888SOL    HW147642   2.840   4.712   8.778  0.9070  1.2795 -0.8287
11888SOL    HW247643   2.804   4.811   8.670 -0.1958  0.1346 -1.5397
11889SOL     OW47644  10.276   9.060   0.839  0.4404 -0.0797 -0.2789
11889SOL    HW147645  10.289   9.057   0.744  0.5575 -0.9864 -0.2491
11889SOL    HW247646  10.262   8.968   0.863 -0.4768  0.2348  0.4570
11890SOL     OW47647  10.044   9.925   3.819 -0.2140  0.6473 -0.1175
11890SOL    HW147648  10.050   9.853   3.755  0.5579  1.4517 -0.9803
11890SOL    HW247649  10.133   9.936   3.851 -0.6826 -0.0902  1.5379
11891SOL     OW47650   5.884   9.902   0.520 -0.1154 -0.4557 -0.1740
11891SOL    HW147651   5.839   9.906   0.604 -2.2883 -2.1012 -1.1656
11891SOL    HW247652   5.976   9.887   0.543 -0.3700  0.7516  1.8930
11892SOL     OW47653   7.501   2.222   0.755 -0.1421 -0.2613  0.4948
11892SOL    HW147654   7.425   2.272   0.727 -0.3104 -1.1322 -0.7155
11892SOL    HW247655   7.555   2.284   0.804 -0.5726  0.9723 -0.5383
11893SOL     OW47656   4.448   5.893   8.540 -0.0106 -0.0840 -0.3405
11893SOL    HW147657   4.514   5.862   8.602 -1.1682 -2.7578 -0.3228
11893SOL    HW247658   4.499   5.925   8.465  1.3399  1.1101  1.0107
11894SOL     OW47659  10.063   5.285   0.466 -0.0189  0.0242  0.7085
11894SOL    HW147660  10.057   5.224   0.539 -0.0222  1.4816  1.9666
11894SOL    HW247661   9.975   5.283   0.427 -0.1125 -0.5088  0.9276
11895SOL     OW47662   7.785   7.502   0.905 -0.3492 -0.0856  0.3372
11895SOL    HW147663   7.731   7.459   0.838 -0.8222  0.0314  0.6343
11895SOL    HW247664   7.858   7.540   0.856  0.0708 -1.2126  0.0637
11896SOL     OW47665   4.470   8.248   9.041 -0.5005  0.1257 -0.5409
11896SOL    HW147666   4.420   8.172   9.070  1.5465 -1.1766 -0.2187
11896SOL    HW247667   4.554   8.212   9.012  0.2867  2.1988 -1.0170
11897SOL     OW47668   6.225   4.182   8.697 -0.2355  0.1647  0.5600
11897SOL    HW147669   6.181   4.120   8.756 -0.8281  1.5013  1.5802
11897SOL    HW247670   6.317   4.160   8.704 -0.3449  0.0002  1.6639
11898SOL     OW47671   8.675   0.569   6.490 -0.2716  0.2964 -0.4921
11898SOL    HW147672   8.679   0.664   6.486  0.2950  0.2513 -1.0085
11898SOL    HW247673   8.684   0.549   6.584  0.1471  0.7225 -0.4379
11899SOL     OW47674   2.133   6.025   7.808  0.0918 -0.6252  0.1738
11899SOL    HW147675   2.107   6.102   7.758  3.7111  0.7880  0.2185
11899SOL    HW247676   2.124   6.051   7.900  0.4473 -0.6015  0.2014
11900SOL     OW47677   4.854   9.798   9.119  0.6336  0.4419  0.1504
11900SOL    HW147678   4.908   9.873   9.146  0.7916  0.8228 -1.1219
11900SOL    HW247679   4.917   9.728   9.103  0.6781  0.6133 -0.4558
11901SOL     OW47680   3.999   0.183   6.659 -0.5148  0.8782 -0.8899
11901SOL    HW147681   3.963   0.095   6.652 -2.4882  1.5165  0.3788
11901SOL    HW247682   4.081   0.172   6.706 -1.0921 -0.2114 -0.1134
11902SOL     OW47683   6.689   3.456   8.394  0.6458 -0.0026 -0.5851
11902SOL    HW147684   6.775   3.419   8.374  0.8838 -0.1481  0.6584
11902SOL    HW247685   6.646   3.390   8.448  0.5260  0.9182  0.4763
11903SOL     OW47686   6.605   1.667   8.380 -0.3884  0.2449 -0.1244
11903SOL    HW147687   6.514   1.652   8.403 -0.0923 -2.5669 -0.4504
11903SOL    HW247688   6.647   1.582   8.391  1.6726  0.8557 -2.3581
11904SOL     OW47689   0.527   0.426  10.151 -0.4050  0.2404 -0.1448
11904SOL    HW147690   0.486   0.483  10.087 -0.9590  2.0082  1.6647
11904SOL    HW247691   0.595   0.480  10.191  0.5914 -1.1351  0.0952
11905SOL     OW47692   5.775   6.773   9.333 -0.8132 -0.0958 -0.5258
11905SOL    HW147693   5.852   6.823   9.359 -1.9346  1.3817  0.1807
11905SOL    HW247694   5.743   6.819   9.255 -1.0249 -0.6369 -0.7569
11906SOL     OW47695   0.566   1.054   1.843 -0.6164 -0.1600  0.4495
11906SOL    HW147696   0.584   1.092   1.757 -1.3690 -0.2174  0.2541
11906SOL    HW247697   0.625   1.100   1.902  0.2343 -0.4381 -0.1649
11907SOL     OW47698   2.070   7.304   1.971  0.5123  0.6501  0.2193
11907SOL    HW147699   2.025   7.352   2.041 -0.2549 -0.6074  0.6273
11907SOL    HW247700   2.065   7.212   1.998  0.8214  0.2045 -1.1517
11908SOL     OW47701   0.100   4.571   2.076 -0.3982 -0.3034 -0.2422
11908SOL    HW147702   0.106   4.662   2.047  0.9557 -0.5599 -0.8775
11908SOL    HW247703   0.148   4.568   2.158  2.1374 -0.9374 -1.6270
11909SOL     OW47704   1.229   8.650   2.043  0.1627  0.1583 -0.2902
11909SOL    HW147705   1.281   8.578   2.006 -0.4669 -1.1947  1.3038
11909SOL    HW247706   1.159   8.663   1.979 -0.0337 -1.0538 -0.3593
11910SOL     OW47707   6.891   3.275   0.916 -0.5810 -0.4595 -0.2000
11910SOL    HW147708   6.969   3.316   0.955 -0.2204 -2.5080  1.4057
11910SOL    HW247709   6.876   3.324   0.835  1.3988  1.0469  0.2734
11911SOL     OW47710   4.289   2.650   6.018  0.1423  1.0034 -0.0934
11911SOL    HW147711   4.308   2.583   6.084 -0.3127  0.8746 -0.0963
11911SOL    HW247712   4.268   2.728   6.070  2.0186  1.5550 -0.0687
11912SOL     OW47713   4.176   8.016   4.408 -0.1449  0.1527 -0.2563
11912SOL    HW147714   4.230   8.082   4.451  0.4805  0.3735 -1.3389
11912SOL    HW247715   4.143   8.060   4.329 -1.8021 -0.0241  0.2944
11913SOL     OW47716   4.850   4.484   5.771  0.2106 -0.2847  0.2414
11913SOL    HW147717   4.806   4.536   5.839  0.3321 -0.6862  0.6286
11913SOL    HW247718   4.925   4.537   5.746 -0.4250  0.3572 -0.3438
11914SOL     OW47719   9.792   4.799   3.782 -0.0038  0.2813 -0.2104
11914SOL    HW147720   9.717   4.758   3.739 -0.8603  1.4347  0.1249
11914SOL    HW247721   9.766   4.891   3.792  1.7908  0.9151 -0.8648
11915SOL     OW47722   6.290   8.106   4.320  0.9602  0.5149 -0.9889
11915SOL    HW147723   6.242   8.086   4.240  1.6177  1.0370 -1.5318
11915SOL    HW247724   6.305   8.201   4.315 -0.8553  0.9375  0.8092
11916SOL     OW47725   8.567   8.168   3.601  0.3053 -0.1243  0.4798
11916SOL    HW147726   8.577   8.119   3.683  0.0792 -2.5257 -0.8296
11916SOL    HW247727   8.656   8.195   3.578  0.3671  0.5793  1.4851
11917SOL     OW47728   7.565   1.229   4.442 -0.1044 -0.6919  0.4412
11917SOL    HW147729   7.470   1.216   4.441 -0.3702  1.0354  0.6511
11917SOL    HW247730   7.584   1.258   4.531  0.3738  0.5696 -0.0536
11918SOL     OW47731   7.645   2.458   0.895 -0.6618  0.0962 -0.1080
11918SOL    HW147732   7.656   2.514   0.818 -0.9989  0.4296  0.0831
11918SOL    HW247733   7.555   2.473   0.924  0.1585  1.9071  1.8311
11919SOL     OW47734   2.977   4.300   8.251 -0.6523  0.4320  0.3444
11919SOL    HW147735   3.060   4.276   8.293 -1.3163  0.3470  1.6803
11919SOL    HW247736   2.937   4.363   8.312 -1.8235  0.0225  0.0224
11920SOL     OW47737   0.377   5.410   0.966  0.2510 -0.3296 -0.2376
11920SOL    HW147738   0.354   5.439   0.878 -2.2470 -0.3453  0.3257
11920SOL    HW247739   0.353   5.318   0.968  0.3033 -0.3318  0.4322
11921SOL     OW47740   8.295   4.162   9.637  0.2369  0.5523  0.1013
11921SOL    HW147741   8.305   4.139   9.545  1.4190  1.9034 -0.1530
11921SOL    HW247742   8.366   4.224   9.654 -0.3327  0.8096  1.7624
11922SOL     OW47743   5.739   0.951   0.586  0.3672  0.4128 -0.1933
11922SOL    HW147744   5.768   1.021   0.645  0.9021  1.4927 -1.6888
11922SOL    HW247745   5.698   0.996   0.513  0.2960 -0.8669 -0.9751
11923SOL     OW47746   4.771   2.770   2.819  0.4538  0.3841  0.0196
11923SOL    HW147747   4.713   2.700   2.787  2.1695 -0.9824 -0.2172
11923SOL    HW247748   4.795   2.743   2.907  2.1592 -0.0167 -0.5401
11924SOL     OW47749   2.601   4.717   9.006 -0.6035 -0.0347 -0.0689
11924SOL    HW147750   2.693   4.708   8.982 -0.0287 -1.4653  2.2728
11924SOL    HW247751   2.592   4.662   9.084 -2.9988  1.5514  0.8792
11925SOL     OW47752   0.196   0.729   9.915 -0.0183  0.1808  0.4210
11925SOL    HW147753   0.261   0.795   9.937  0.0105  0.3171 -0.0550
11925SOL    HW247754   0.145   0.768   9.844  0.1087 -0.3770  0.0199
11926SOL     OW47755   6.466   5.948   2.709 -0.1692  0.0588  0.6176
11926SOL    HW147756   6.502   5.987   2.789 -0.8342 -0.2042  1.0470
11926SOL    HW247757   6.388   6.001   2.690 -0.8425 -0.7912  0.9712
11927SOL     OW47758   1.023   9.619   4.540 -0.0437  0.4213 -0.7855
11927SOL    HW147759   1.110   9.592   4.568 -0.6085 -0.2362  0.4056
11927SOL    HW247760   1.027   9.714   4.538  1.0765  0.3762 -2.0454
11928SOL     OW47761   3.765   2.975   2.915 -0.2738 -0.2708 -0.3763
11928SOL    HW147762   3.707   2.899   2.925  0.3113 -0.6520  0.2066
11928SOL    HW247763   3.716   3.035   2.858 -0.4385 -1.3818 -1.4417
11929SOL     OW47764  10.112   6.419   9.404  0.7597 -0.1966  0.2614
11929SOL    HW147765  10.135   6.380   9.488 -0.6765  0.6254  1.0776
11929SOL    HW247766  10.140   6.354   9.339  0.3076 -1.6491  1.4581
11930SOL     OW47767   3.163   6.417   7.579  0.0077 -0.0352 -0.1546
11930SOL    HW147768   3.181   6.455   7.665 -0.0820 -0.5197  0.0821
11930SOL    HW247769   3.152   6.493   7.521  1.2479  0.2904  0.0114
11931SOL     OW47770   5.147   9.936   3.810 -0.1481 -0.0630  0.0986
11931SOL    HW147771   5.192   9.876   3.870  0.9336 -0.6685 -1.2727
11931SOL    HW247772   5.064   9.954   3.853  0.6731 -0.2891  1.8952
11932SOL     OW47773   3.592  10.302   7.238  0.8605  0.3662 -0.0849
11932SOL    HW147774   3.664  10.287   7.300  0.3040  3.2057  1.4286
11932SOL    HW247775   3.521  10.247   7.270  1.8265 -1.3413 -0.7277
11933SOL     OW47776   8.890   6.962   7.542 -0.0035  0.5986  0.5772
11933SOL    HW147777   8.825   6.981   7.474 -0.2105  2.5827  1.2798
11933SOL    HW247778   8.953   6.903   7.499 -1.2893  0.0607 -0.6500
11934SOL     OW47779   8.166   7.369   2.903  0.0750 -0.6111 -0.3963
11934SOL    HW147780   8.100   7.427   2.864  0.0152 -0.6983 -0.4272
11934SOL    HW247781   8.202   7.419   2.976 -1.9207 -1.5562  1.3234
11935SOL     OW47782   6.542   3.828   8.611 -0.4329 -0.1701  0.2696
11935SOL    HW147783   6.589   3.770   8.550  0.6501 -1.7355  2.4510
11935SOL    HW247784   6.609   3.890   8.640 -0.0962 -1.2647  1.9998
11936SOL     OW47785   1.573   2.575   5.083 -0.2958 -0.1257 -0.3562
11936SOL    HW147786   1.601   2.484   5.092  0.4588  0.0612 -0.7491
11936SOL    HW247787   1.494   2.581   5.137  0.7502 -0.5336  1.2992
11937SOL     OW47788   1.345   7.496   2.583 -0.5228  0.0575 -0.2009
11937SOL    HW147789   1.374   7.445   2.507  0.1174  1.8423 -1.2168
11937SOL    HW247790   1.417   7.489   2.645 -1.5530 -2.4229  0.8407
11938SOL     OW47791   4.901   5.093   1.058 -0.2685 -0.1302  0.4826
11938SOL    HW147792   4.967   5.157   1.035 -3.0193  2.3230 -1.3054
11938SOL    HW247793   4.912   5.022   0.994  1.1620 -0.2535  0.8347
11939SOL     OW47794  10.241   7.745   0.356 -1.1987 -0.0328 -0.0619
11939SOL    HW147795  10.311   7.803   0.386 -0.0624 -1.9559  1.2795
11939SOL    HW247796  10.230   7.765   0.263 -1.3025  2.6778  0.4492
11940SOL     OW47797   5.930   7.984   5.747 -0.1544  0.1731  0.1641
11940SOL    HW147798   5.839   7.988   5.718  0.5780  0.1440 -2.2919
11940SOL    HW247799   5.936   7.901   5.795 -1.4720  0.3210  0.6110
11941SOL     OW47800   6.537   2.055   6.055  0.3600  0.1077 -0.4783
11941SOL    HW147801   6.551   2.147   6.033  0.4649  0.2522  0.1896
11941SOL    HW247802   6.560   2.008   5.975  2.8036  0.4742 -0.0775
11942SOL     OW47803   2.141   0.205   6.098  0.7414 -0.1152  0.4493
11942SOL    HW147804   2.064   0.225   6.153  0.2673  0.0574 -0.2619
11942SOL    HW247805   2.145   0.110   6.097  0.2099 -0.1365  0.0496
11943SOL     OW47806   4.455   3.407   5.535 -0.8344  0.1020 -0.7679
11943SOL    HW147807   4.524   3.466   5.566 -0.2949 -0.9560  0.0740
11943SOL    HW247808   4.501   3.333   5.497 -1.4468 -1.0951  0.6929
11944SOL     OW47809  10.153   2.525   4.801 -0.3914 -0.3103  0.5007
11944SOL    HW147810  10.172   2.609   4.842 -1.4420  0.5324 -0.6298
11944SOL    HW247811  10.073   2.541   4.750 -1.7020 -2.4930  1.6966
11945SOL     OW47812  10.319   4.029   3.710 -0.4896 -0.2949 -0.3175
11945SOL    HW147813  10.324   4.013   3.805 -0.4651  2.4492  0.2228
11945SOL    HW247814  10.347   3.947   3.671  1.4386 -0.9200  2.0948
11946SOL     OW47815   7.726   3.384   7.867 -0.1513 -0.1569 -0.1385
11946SOL    HW147816   7.816   3.356   7.850 -0.3210 -1.4633  0.9097
11946SOL    HW247817   7.672   3.311   7.836 -0.8339  0.4464 -0.4101
11947SOL     OW47818   1.123   9.539   6.999  0.0511 -0.2378 -0.2664
11947SOL    HW147819   1.130   9.452   7.036  0.4433  0.0987  0.4634
11947SOL    HW247820   1.172   9.534   6.917 -1.1729 -1.0968 -0.9747
11948SOL     OW47821   0.377   8.556   6.643 -0.6032 -0.2650  0.3416
11948SOL    HW147822   0.406   8.468   6.620 -0.2835  0.1394 -0.8780
11948SOL    HW247823   0.382   8.559   6.739 -2.7905 -2.2985  0.5876
11949SOL     OW47824   5.955   5.882   9.080  0.0857 -0.3405  0.3076
11949SOL    HW147825   6.023   5.925   9.131  1.5238 -1.5710 -0.4999
11949SOL    HW247826   5.931   5.805   9.131  0.6111 -0.8776 -0.2362
11950SOL     OW47827   1.281   4.705   7.384 -0.0571 -0.1982 -0.2205
11950SOL    HW147828   1.243   4.627   7.424 -0.5607 -0.7433 -1.6910
11950SOL    HW247829   1.280   4.687   7.290 -1.2343  2.0460 -0.7016
11951SOL     OW47830   9.186   3.928   5.416  0.0654  1.4199 -0.2309
11951SOL    HW147831   9.272   3.970   5.415  0.7628  0.0864  0.8465
11951SOL    HW247832   9.190   3.863   5.346 -0.1836  1.5697 -0.3851
11952SOL     OW47833   0.502   3.125   8.517 -0.0031  0.0803 -0.3085
11952SOL    HW147834   0.421   3.173   8.532  0.2444  0.9389 -1.5270
11952SOL    HW247835   0.571   3.190   8.533  0.4260 -0.4679  0.1080
11953SOL     OW47836   3.324   4.535   7.616  0.1264  0.0030  0.2105
11953SOL    HW147837   3.253   4.513   7.677 -1.2242  1.5015 -0.7510
11953SOL    HW247838   3.372   4.453   7.605 -0.6222 -0.7241  1.9299
11954SOL     OW47839   8.883   1.624   6.909  0.1403  0.1668  0.1730
11954SOL    HW147840   8.900   1.627   6.815  0.6563 -0.7808  0.2209
11954SOL    HW247841   8.882   1.716   6.936  1.2038  0.4088 -0.5509
11955SOL     OW47842   0.208   5.184   0.978  0.3690 -0.7452  0.2042
11955SOL    HW147843   0.162   5.261   0.945 -1.2239 -0.9451  1.8296
11955SOL    HW247844   0.233   5.135   0.899  1.5296  1.4314 -0.8666
11956SOL     OW47845   0.323   2.349   1.131 -0.5716  0.1910 -0.2106
11956SOL    HW147846   0.330   2.279   1.195 -1.9154  1.9692  2.0123
11956SOL    HW247847   0.357   2.427   1.175  1.6890  0.8769 -2.8859
11957SOL     OW47848   9.507   5.024   2.592  0.4542  0.2135 -0.0710
11957SOL    HW147849   9.552   5.106   2.614 -0.8508  1.3732 -1.4983
11957SOL    HW247850   9.471   4.993   2.675  1.0596  1.0098  0.5090
11958SOL     OW47851   6.897   1.760  10.127 -0.1282 -0.0920 -0.2414
11958SOL    HW147852   6.975   1.813  10.143 -0.6602  0.9723 -1.0053
11958SOL    HW247853   6.846   1.767  10.208  0.5567 -0.7909  0.2599
11959SOL     OW47854   1.150   7.622   9.724 -0.4106 -0.0328  0.6502
11959SOL    HW147855   1.074   7.564   9.733 -2.5032  2.4694  0.1880
11959SOL    HW247856   1.126   7.701   9.772  1.6009  1.1321 -0.1467
11960SOL     OW47857   0.842  10.220   6.071 -0.2932  0.4355 -0.4119
11960SOL    HW147858   0.794  10.283   6.125 -0.1541 -0.6471  1.0427
11960SOL    HW247859   0.859  10.146   6.130  1.1694 -0.1712 -1.5392
11961SOL     OW47860   7.259   0.917   9.561 -0.3403  0.2101 -0.0305
11961SOL    HW147861   7.170   0.891   9.538 -0.1327 -0.0873 -0.5028
11961SOL    HW247862   7.280   0.989   9.501 -0.6814  1.0823  0.8541
11962SOL     OW47863   2.701   9.398   2.866 -0.0173  0.8360  0.2840
11962SOL    HW147864   2.658   9.313   2.872  0.7577  0.4910  1.1379
11962SOL    HW247865   2.729   9.405   2.775  0.2096  0.0386  0.2945
11963SOL     OW47866   0.279   0.698   2.315 -0.0519 -0.2600 -0.3944
11963SOL    HW147867   0.298   0.780   2.270 -2.0377  0.2706 -0.3617
11963SOL    HW247868   0.284   0.720   2.408  1.3354 -0.6808 -0.3521
11964SOL     OW47869   2.063   8.795   5.403  0.1825  0.4559 -0.2063
11964SOL    HW147870   2.141   8.746   5.376  0.2611 -0.3212  1.3149
11964SOL    HW247871   1.990   8.738   5.380 -0.2006  2.0704 -3.6162
11965SOL     OW47872   9.015   3.525   8.875  0.0284 -0.5258  0.5119
11965SOL    HW147873   8.929   3.490   8.851  0.3292 -0.5096 -0.6358
11965SOL    HW247874   9.065   3.524   8.793  0.6668  0.8050  0.8636
11966SOL     OW47875   5.951   9.275   2.835  0.1471  0.0698  0.3345
11966SOL    HW147876   5.900   9.234   2.766  1.2095 -0.0809 -0.3903
11966SOL    HW247877   6.004   9.205   2.871  0.1962  0.3140  0.7402
11967SOL     OW47878   1.655   3.914   9.409  0.0667 -0.3358  0.4672
11967SOL    HW147879   1.624   3.963   9.485 -1.8681 -2.0572  0.8746
11967SOL    HW247880   1.583   3.854   9.387  1.9793 -2.4811 -0.4451
11968SOL     OW47881   2.797   7.167   6.728  0.7116 -0.3700  0.2526
11968SOL    HW147882   2.809   7.089   6.782  1.8184  0.0402  0.6337
11968SOL    HW247883   2.712   7.201   6.754  0.3508 -1.2796  0.3014
11969SOL     OW47884   4.282   9.709   2.819  0.6127 -0.3723  0.6103
11969SOL    HW147885   4.190   9.724   2.798  0.7794  1.6419  1.1190
11969SOL    HW247886   4.289   9.614   2.830 -0.8937 -0.8189 -1.6202
11970SOL     OW47887   7.553   8.982   4.983 -0.6253 -0.0132  0.2131
11970SOL    HW147888   7.581   8.890   4.988 -1.5706 -0.3152  0.2550
11970SOL    HW247889   7.573   9.008   4.893  1.3554  0.3360  0.7174
11971SOL     OW47890   7.575   3.038   2.988 -0.3478 -0.0657  0.0814
11971SOL    HW147891   7.571   2.944   3.006 -1.0041  0.2077  1.4227
11971SOL    HW247892   7.488   3.060   2.957 -0.2127  0.1222 -0.1690
11972SOL     OW47893   7.128   7.057   4.920  0.9682 -0.3964 -0.1306
11972SOL    HW147894   7.076   7.077   4.998  1.7186  0.1345  0.2446
11972SOL    HW247895   7.142   7.142   4.878  0.8393 -0.6406 -0.6669
11973SOL     OW47896   0.625   6.000   4.617  0.7694  0.4633 -1.2752
11973SOL    HW147897   0.554   6.064   4.616  2.2552  2.1700 -1.4085
11973SOL    HW247898   0.699   6.045   4.577  2.7509 -0.2681  1.2886
11974SOL     OW47899  10.052   3.949   5.306 -0.1807  0.0922  0.4523
11974SOL    HW147900  10.121   3.883   5.303  0.2984  0.6071 -1.6695
11974SOL    HW247901   9.984   3.910   5.361  0.0148 -2.2793 -0.8597
11975SOL     OW47902   3.363   7.369   3.046  0.4249  0.2242  0.1443
11975SOL    HW147903   3.336   7.456   3.019  2.1134  0.8881  0.4741
11975SOL    HW247904   3.290   7.336   3.099 -2.1347 -0.2990 -3.3047
11976SOL     OW47905   3.745   4.858   7.774 -0.4895  0.4687  0.0306
11976SOL    HW147906   3.797   4.923   7.821  1.0424  0.1049 -1.0812
11976SOL    HW247907   3.766   4.775   7.817 -0.0606  0.3070 -0.4843
11977SOL     OW47908   2.060   6.468   6.111 -0.7410 -0.0789 -0.0494
11977SOL    HW147909   2.103   6.415   6.178 -1.0811 -1.8489 -1.1668
11977SOL    HW247910   2.103   6.554   6.117  1.2286 -1.0490  0.5007
11978SOL     OW47911   7.715   1.209   3.393 -0.1658  0.1244 -0.6804
11978SOL    HW147912   7.763   1.265   3.454 -0.2018  1.0900 -1.5021
11978SOL    HW247913   7.762   1.217   3.311 -0.2869 -0.9259 -0.8711
11979SOL     OW47914   8.837   9.227   5.796  0.1317  0.1450 -0.2816
11979SOL    HW147915   8.815   9.135   5.779  2.8795 -1.2873  2.8371
11979SOL    HW247916   8.763   9.261   5.845 -0.1876 -0.9348  0.0028
11980SOL     OW47917   9.020   2.928   4.728 -0.8534 -0.0727  0.8045
11980SOL    HW147918   9.024   2.901   4.636  1.3804  0.5362  0.6692
11980SOL    HW247919   9.032   2.847   4.777 -0.6539 -0.2028  0.5423
11981SOL     OW47920   9.134   0.088   9.093  0.3308  0.0854 -0.4070
11981SOL    HW147921   9.156   0.057   9.181 -1.1315  0.1896  0.0381
11981SOL    HW247922   9.202   0.052   9.037  1.0410 -0.3706  0.7008
11982SOL     OW47923   3.271   0.552   6.065 -0.2232 -0.4878  0.5718
11982SOL    HW147924   3.346   0.515   6.017 -0.5141  0.9353 -1.0896
11982SOL    HW247925   3.311   0.595   6.141  0.5634 -0.5950  0.2365
11983SOL     OW47926  10.115   7.955   4.630 -0.2809 -0.9498  0.0592
11983SOL    HW147927  10.191   7.989   4.583  0.2511 -2.3193 -0.1049
11983SOL    HW247928  10.146   7.874   4.671 -1.2406 -0.7512  1.2558
11984SOL     OW47929   1.754   9.673   4.414 -0.1400 -0.5792  0.0608
11984SOL    HW147930   1.837   9.644   4.375  0.0624 -0.6698  0.5467
11984SOL    HW247931   1.722   9.742   4.356  0.3338 -0.4696 -0.0715
11985SOL     OW47932   8.830   2.582   8.374  0.2762  0.4722  0.4397
11985SOL    HW147933   8.916   2.623   8.367 -0.0653  1.2581  0.7245
11985SOL    HW247934   8.786   2.631   8.444  0.0868 -0.7918  1.2534
11986SOL     OW47935   2.763   6.640   4.284 -0.1004  0.0337 -0.2918
11986SOL    HW147936   2.797   6.553   4.304 -1.0166 -0.2690  0.0146
11986SOL    HW247937   2.839   6.689   4.254  0.6002 -0.6154  0.3590
11987SOL     OW47938   5.399   4.042   5.684 -0.8088 -0.5331  0.0480
11987SOL    HW147939   5.472   4.103   5.694 -0.4421 -0.7850 -0.9862
11987SOL    HW247940   5.321   4.097   5.691 -0.5143 -0.1715  0.5740
11988SOL     OW47941   0.706   6.163   6.787  0.4026 -0.4189 -0.3188
11988SOL    HW147942   0.760   6.243   6.788  0.0629 -0.1951  1.2177
11988SOL    HW247943   0.766   6.094   6.814  0.7131 -0.7400 -1.7106
11989SOL     OW47944   9.123   2.565   9.383  0.0556  0.1943 -0.0282
11989SOL    HW147945   9.061   2.615   9.437 -0.3493  1.0796 -1.2741
11989SOL    HW247946   9.101   2.588   9.293  2.7728  1.2168 -0.5217
11990SOL     OW47947   6.999   3.352   2.529  0.3929 -0.0837 -0.1208
11990SOL    HW147948   6.941   3.317   2.462 -0.7232  0.1625  0.6923
11990SOL    HW247949   7.016   3.277   2.586 -1.3470  0.4425  1.1655
11991SOL     OW47950   8.184   1.109   9.171  0.0888  0.0031  0.6150
11991SOL    HW147951   8.097   1.124   9.209  1.1104  1.2554  2.6382
11991SOL    HW247952   8.224   1.045   9.230  0.2674 -1.2398 -0.8049
11992SOL     OW47953   8.125   3.146   4.437  0.1373 -0.3148 -0.2260
11992SOL    HW147954   8.060   3.202   4.478  1.3720  0.7048  0.4159
11992SOL    HW247955   8.207   3.166   4.483  1.2454 -0.3510 -2.0383
11993SOL     OW47956   9.887   2.961   6.701  0.0167 -0.6449 -0.4767
11993SOL    HW147957   9.895   2.957   6.606  2.1617  0.2189 -0.3797
11993SOL    HW247958   9.942   2.889   6.733 -0.6367 -0.8878  0.1325
11994SOL     OW47959   6.290   8.663   4.587 -0.7134 -0.2040  0.2031
11994SOL    HW147960   6.305   8.722   4.661  0.5117 -1.2666  0.8558
11994SOL    HW247961   6.340   8.584   4.609 -1.2159 -0.9705 -1.2571
11995SOL     OW47962   8.250   1.825   0.954 -0.2944 -0.5922  0.6518
11995SOL    HW147963   8.216   1.870   0.877 -1.3690  0.6638  1.8070
11995SOL    HW247964   8.172   1.797   1.002  0.3638 -1.8234  1.0474
11996SOL     OW47965   7.883   7.415   0.410 -0.2589  0.8647 -0.0230
11996SOL    HW147966   7.832   7.452   0.339 -0.2217  1.0206  0.0307
11996SOL    HW247967   7.932   7.489   0.446 -0.7691  0.9233  0.5840
11997SOL     OW47968   9.628   9.706   9.295  0.2575  0.3805 -0.0087
11997SOL    HW147969   9.719   9.678   9.307  0.2331 -0.2803 -1.1322
11997SOL    HW247970   9.607   9.757   9.373  1.5841  0.5164  0.2795
11998SOL     OW47971   6.907   2.493   6.407  0.2861  0.9262 -0.5233
11998SOL    HW147972   6.856   2.461   6.481  0.0074  2.6849  0.0864
11998SOL    HW247973   6.909   2.420   6.345 -0.5671 -0.1240  0.6595
11999SOL     OW47974   0.423   9.429   9.081  0.0602 -0.8273 -0.1522
11999SOL    HW147975   0.417   9.418   9.176  0.1849 -0.2568 -0.0742
11999SOL    HW247976   0.395   9.520   9.066 -1.1180 -1.2751 -0.7851
12000SOL     OW47977  10.147   8.298   7.220  0.1920  0.0795  0.0589
12000SOL    HW147978  10.080   8.336   7.163  0.7870  1.9816  0.5753
12000SOL    HW247979  10.103   8.286   7.304  0.6103  1.9366  0.5876
12001SOL     OW47980   0.899   1.577   5.483  0.1912 -0.5681 -0.3496
12001SOL    HW147981   0.876   1.610   5.397  1.0478 -0.7518 -0.6638
12001SOL    HW247982   0.989   1.608   5.497  0.1012 -0.6339  0.4285
12002SOL     OW47983   4.321   3.947   3.917  0.0390  0.4634  0.4087
12002SOL    HW147984   4.370   3.925   3.838 -0.7737  1.1317 -0.3077
12002SOL    HW247985   4.378   3.920   3.989  1.5396  1.3472 -0.3822
12003SOL     OW47986   5.920   1.640   0.143  0.5739 -0.0389 -0.2341
12003SOL    HW147987   5.950   1.671   0.228  3.8591 -1.3005 -0.7842
12003SOL    HW247988   5.964   1.696   0.079 -2.7165  1.6438 -1.2629
12004SOL     OW47989   6.125   8.835   6.000  0.2108  0.3283 -0.2184
12004SOL    HW147990   6.056   8.847   5.934 -0.0125 -1.1092 -0.2738
12004SOL    HW247991   6.123   8.916   6.051 -1.4341  0.3746 -0.2974
12005SOL     OW47992   7.160   4.459   8.190 -0.1533  0.3148  0.2358
12005SOL    HW147993   7.235   4.485   8.243  0.1623  1.1744 -0.6017
12005SOL    HW247994   7.142   4.534   8.134 -1.1822 -0.1528 -0.0982
12006SOL     OW47995   0.237   0.167   2.891 -0.2159  0.1327  0.2991
12006SOL    HW147996   0.155   0.130   2.859 -0.4107  0.4844  0.3836
12006SOL    HW247997   0.299   0.155   2.819 -0.6105  0.7743 -0.1521
12007SOL     OW47998   4.063   2.223   5.523  0.3073  0.3079  0.1596
12007SOL    HW147999   4.075   2.256   5.612  0.3249  0.1883  0.2013
12007SOL    HW248000   4.005   2.148   5.532 -0.2634  0.7199 -0.0087
12008SOL     OW48001   1.434   6.398  10.390 -0.0183 -0.5714 -0.3940
12008SOL    HW148002   1.525   6.366  10.391  0.8848  1.7339 -1.6080
12008SOL    HW248003   1.385   6.331  10.343  0.7340 -2.5046  1.4203
12009SOL     OW48004   8.161   0.535   5.134 -0.1575  0.0788 -0.2841
12009SOL    HW148005   8.147   0.533   5.039 -0.9479 -0.2884 -0.1669
12009SOL    HW248006   8.146   0.445   5.162 -1.5472  0.4989  0.3999
12010SOL     OW48007   5.515   3.243   6.166 -0.2519 -0.3692  0.1171
12010SOL    HW148008   5.550   3.263   6.252 -0.2379  1.5461 -0.2720
12010SOL    HW248009   5.425   3.276   6.169  0.1941  1.0818 -1.0049
12011SOL     OW48010   5.249   8.739   2.392 -0.2161  0.2254 -0.1490
12011SOL    HW148011   5.159   8.729   2.423 -0.4107  0.1238 -0.7374
12011SOL    HW248012   5.245   8.716   2.299  0.8043 -1.7696  0.2453
12012SOL     OW48013   9.029   4.230   4.907  0.3442  0.0699 -0.1170
12012SOL    HW148014   9.001   4.141   4.929 -1.3501  0.5407 -0.2245
12012SOL    HW248015   9.040   4.273   4.991 -0.0789  0.1093 -0.0787
12013SOL     OW48016   2.283   8.523   2.274  0.3658 -0.0200 -0.1007
12013SOL    HW148017   2.219   8.551   2.209 -1.6597  0.5094  1.9681
12013SOL    HW248018   2.308   8.435   2.247 -2.3645 -0.8425 -0.2787
12014SOL     OW48019   8.571   8.127   3.077  0.6479 -0.3871  0.4934
12014SOL    HW148020   8.571   8.180   3.157  1.6645 -0.9391  0.8851
12014SOL    HW248021   8.643   8.163   3.025  0.5788 -0.6216  0.2324
12015SOL     OW48022   0.486   0.597   6.282 -0.1296  0.0814 -0.0001
12015SOL    HW148023   0.536   0.678   6.286 -0.1252  0.0243  1.5836
12015SOL    HW248024   0.503   0.563   6.195  0.2675  1.5211 -0.5187
12016SOL     OW48025   2.271   6.493   3.826 -0.2527  0.5166 -0.5790
12016SOL    HW148026   2.328   6.482   3.750  0.9371  2.4159 -0.0349
12016SOL    HW248027   2.319   6.454   3.898 -1.0591 -0.6432 -0.6581
12017SOL     OW48028   3.478   2.491   1.871 -0.1654  0.8407  0.2857
12017SOL    HW148029   3.573   2.477   1.880  0.5066  4.3611 -0.1356
12017SOL    HW248030   3.465   2.508   1.778 -1.6232 -1.4430 -0.0138
12018SOL     OW48031  10.297   8.792   4.447 -0.0752 -0.2239  0.0810
12018SOL    HW148032  10.271   8.854   4.514 -1.1211 -1.1018  0.5117
12018SOL    HW248033  10.220   8.738   4.433  0.6450 -1.0930 -0.6634
12019SOL     OW48034   8.281   2.570   1.845  0.0999  0.2518 -0.6212
12019SOL    HW148035   8.234   2.601   1.768  0.5974  0.2556 -0.9288
12019SOL    HW248036   8.298   2.477   1.826 -1.6698 -0.3323  0.4330
12020SOL     OW48037   7.112   2.907   7.862  0.2598 -0.1217 -0.0007
12020SOL    HW148038   7.091   2.992   7.822 -3.6551 -1.5510 -1.4164
12020SOL    HW248039   7.106   2.844   7.790 -0.6313 -2.0289  1.6601
12021SOL     OW48040   0.100   4.754   5.480 -0.4958  0.0513 -0.0612
12021SOL    HW148041   0.110   4.752   5.385 -1.0350  1.4082 -0.1737
12021SOL    HW248042   0.010   4.786   5.494 -0.2144  0.4667  0.8988
12022SOL     OW48043   3.799   5.760  10.384  0.2227 -0.1268 -0.1072
12022SOL    HW148044   3.714   5.717  10.389  0.1410  0.1319  2.0539
12022SOL    HW248045   3.792   5.821  10.311 -1.9195  0.7866  0.7873
12023SOL     OW48046   4.991   6.223   1.848 -0.5120 -0.3049  0.6828
12023SOL    HW148047   4.913   6.255   1.804 -0.3404 -0.8730 -0.0635
12023SOL    HW248048   4.968   6.222   1.941 -0.9295  0.7825  0.5972
12024SOL     OW48049   9.933   4.067   9.807  0.1755 -0.0140 -0.1194
12024SOL    HW148050   9.900   4.098   9.891  0.6401 -0.5129  0.2494
12024SOL    HW248051   9.882   3.988   9.789  0.9953 -0.6551  0.3384
12025SOL     OW48052   1.744   8.644   9.552 -0.0088  0.0134  0.1078
12025SOL    HW148053   1.684   8.717   9.569 -0.5222 -0.0559 -1.2375
12025SOL    HW248054   1.829   8.686   9.537 -0.3707  0.3920 -1.0008
12026SOL     OW48055   8.582   0.693   2.592  0.6831 -0.0529 -0.4472
12026SOL    HW148056   8.565   0.781   2.627  1.0575  0.2821 -1.0955
12026SOL    HW248057   8.670   0.672   2.622  0.9784  0.2069 -1.1202
12027SOL     OW48058   9.456   8.727   9.147 -0.2291  0.6786 -0.3199
12027SOL    HW148059   9.485   8.668   9.218  0.7830 -0.7874 -1.8774
12027SOL    HW248060   9.463   8.814   9.185  0.5923 -0.0313  1.2964
12028SOL     OW48061   8.713   2.021   3.967 -0.2397 -0.1636  1.0183
12028SOL    HW148062   8.705   2.114   3.987 -0.0811  0.0443  0.1754
12028SOL    HW248063   8.683   2.014   3.876  0.8537 -0.7467  0.6874
12029SOL     OW48064   2.154   8.713   8.027  0.0809  0.4225  0.0065
12029SOL    HW148065   2.106   8.777   7.974 -0.1386 -0.2880 -0.6751
12029SOL    HW248066   2.117   8.629   8.002  1.1964 -0.0863 -0.0069
12030SOL     OW48067   5.178   9.649   1.952  0.4628 -0.0499 -0.2961
12030SOL    HW148068   5.261   9.683   1.921  1.0665 -0.3654  0.9279
12030SOL    HW248069   5.155   9.580   1.889  1.4976 -0.4575 -0.2425
12031SOL     OW48070   8.700   4.711   2.183 -0.0066  0.3463  0.1002
12031SOL    HW148071   8.665   4.779   2.125 -0.2361  2.6059  2.6549
12031SOL    HW248072   8.627   4.650   2.194 -0.2931  0.4421 -1.1434
12032SOL     OW48073   8.370   7.713   6.609 -0.2571  0.2449 -0.7203
12032SOL    HW148074   8.453   7.710   6.656 -0.6323 -0.0948 -0.0684
12032SOL    HW248075   8.375   7.793   6.557  0.6632 -0.0047 -1.0421
12033SOL     OW48076   6.203   5.143   1.525  0.3771  0.4990  0.3802
12033SOL    HW148077   6.167   5.213   1.470  1.2179 -0.2979 -1.2612
12033SOL    HW248078   6.140   5.135   1.597 -1.6167  0.6177 -1.2335
12034SOL     OW48079  10.369   1.234   4.797  0.3007 -0.0420  0.4304
12034SOL    HW148080  10.306   1.254   4.729  0.1064  0.6595  0.8011
12034SOL    HW248081  10.415   1.156   4.766 -1.6662 -1.4010  0.7823
12035SOL     OW48082   4.084   6.929   1.712  0.0002  0.4235 -0.4559
12035SOL    HW148083   4.137   6.876   1.652  2.7351 -0.2277  2.2631
12035SOL    HW248084   4.095   7.019   1.681  1.6628  0.1521 -0.7403
12036SOL     OW48085   7.322   9.538   1.122 -0.4589  0.7569  0.0326
12036SOL    HW148086   7.264   9.462   1.133  0.1069 -0.0356 -1.9769
12036SOL    HW248087   7.301   9.595   1.196 -0.4617 -1.6013  1.9741
12037SOL     OW48088  10.257   2.135   5.002  0.4627  0.9257  0.3989
12037SOL    HW148089  10.302   2.099   5.078 -0.8125 -1.3133  0.2050
12037SOL    HW248090  10.166   2.147   5.030  0.3530  1.7375 -0.2659
12038SOL     OW48091   1.750   5.734   5.916  0.1132  0.0512 -0.0555
12038SOL    HW148092   1.723   5.763   6.004 -4.5028  1.2147 -1.5752
12038SOL    HW248093   1.760   5.639   5.925 -0.5724  0.0979  1.7001
12039SOL     OW48094   1.415   0.029   9.631 -0.4385  0.3815 -0.3989
12039SOL    HW148095   1.444  -0.023   9.556  0.7688  1.0602 -0.4273
12039SOL    HW248096   1.335  -0.014   9.661  1.4873 -2.6729  0.7928
12040SOL     OW48097   7.073   3.523   3.118  0.1724 -0.4191 -0.3678
12040SOL    HW148098   7.059   3.437   3.159  1.7517 -0.3772  0.3341
12040SOL    HW248099   7.131   3.505   3.045 -0.3552 -0.0781 -0.8792
12041SOL     OW48100   2.106  10.343   9.762 -0.4714 -0.3994 -0.4674
12041SOL    HW148101   2.051  10.278   9.806  0.5736 -0.8420  0.2391
12041SOL    HW248102   2.104  10.419   9.820  1.2722 -1.1438  0.6444
12042SOL     OW48103   9.197   5.050   9.509 -0.1254 -0.0394  0.0028
12042SOL    HW148104   9.120   5.105   9.525 -0.0849  0.2668 -0.7724
12042SOL    HW248105   9.173   4.999   9.431  0.5715  0.2951 -0.4396
12043SOL     OW48106   5.849   1.243   3.919  0.1397  0.0602  0.0943
12043SOL    HW148107   5.807   1.168   3.960 -0.7944  0.3142 -0.3861
12043SOL    HW248108   5.792   1.267   3.847  1.4820 -0.0362 -1.0378
12044SOL     OW48109   0.908   4.153   1.334  0.5537  0.5633 -0.6240
12044SOL    HW148110   0.823   4.114   1.357  0.5473 -0.4930 -2.2697
12044SOL    HW248111   0.891   4.247   1.330  0.0504  0.5952  1.3690
12045SOL     OW48112   6.276   0.252   9.666  0.4070 -0.4354 -0.0708
12045SOL    HW148113   6.238   0.254   9.578  0.6883 -0.4278 -0.1930
12045SOL    HW248114   6.275   0.343   9.695 -1.1289 -0.6248  0.5604
12046SOL     OW48115   9.575   0.305   5.552 -0.4091  0.1640  0.1013
12046SOL    HW148116   9.557   0.265   5.637 -0.1048  0.2989  0.2308
12046SOL    HW248117   9.669   0.321   5.553 -0.2016 -0.8613 -0.7070
12047SOL     OW48118   9.084   5.661   7.337 -0.6764  0.2370  0.0252
12047SOL    HW148119   9.145   5.645   7.265 -1.6250  2.5584 -1.4316
12047SOL    HW248120   9.013   5.598   7.323 -0.8267  0.6273 -1.1229
12048SOL     OW48121   5.057   8.293   6.993 -0.5680  0.2862 -0.3894
12048SOL    HW148122   5.077   8.385   6.974 -2.0673  0.4801 -1.1537
12048SOL    HW248123   4.962   8.287   6.987 -0.5101 -1.2874 -0.1604
12049SOL     OW48124   8.903   3.108   4.937  0.3239  0.3214  0.4775
12049SOL    HW148125   8.977   3.069   4.891  0.9945  2.0052  0.0517
12049SOL    HW248126   8.826   3.065   4.900  0.9473  0.4677 -1.0490
12050SOL     OW48127   2.585   8.868   0.336  0.5716  0.1687 -0.0235
12050SOL    HW148128   2.600   8.850   0.244  0.8274  1.6056 -0.2917
12050SOL    HW248129   2.619   8.956   0.349 -1.4235  0.8621  0.9414
12051SOL     OW48130   2.123   1.534   5.858 -0.2473  0.0868  0.5034
12051SOL    HW148131   2.199   1.536   5.801  0.6865 -1.2883  1.6147
12051SOL    HW248132   2.100   1.626   5.872  1.4593  0.5465  0.4440
12052SOL     OW48133   3.885   3.317   9.255 -0.2101  0.0130  0.3175
12052SOL    HW148134   3.936   3.267   9.191  1.1690  1.3080  0.3457
12052SOL    HW248135   3.799   3.275   9.255 -0.4270  0.1898 -2.7155
12053SOL     OW48136   1.961   0.201   9.069 -0.0988  0.8050  0.1828
12053SOL    HW148137   1.985   0.291   9.046  1.0046  0.7483  0.9775
12053SOL    HW248138   1.866   0.199   9.065 -0.0631  1.3214 -2.2827
12054SOL     OW48139   9.402   3.818   4.495  0.1977 -0.8337 -0.0844
12054SOL    HW148140   9.391   3.785   4.584  1.7845  0.7816  0.7762
12054SOL    HW248141   9.327   3.876   4.481  0.4381 -0.3500  0.5838
12055SOL     OW48142   6.174   6.485   0.518 -0.1942 -0.2470  0.2553
12055SOL    HW148143   6.167   6.467   0.612 -0.6420 -0.7258  0.1338
12055SOL    HW248144   6.259   6.528   0.508 -0.7908  1.1943  1.0940
12056SOL     OW48145   5.425   3.566   7.157  0.3435  0.2975  0.4098
12056SOL    HW148146   5.478   3.645   7.159  1.4420 -0.4089  0.2176
12056SOL    HW248147   5.461   3.511   7.227 -0.6904  0.1418  0.8340
12057SOL     OW48148   7.387   7.075   7.247  0.5002 -0.1956 -0.1637
12057SOL    HW148149   7.344   7.028   7.175  0.6446  0.4276 -0.6640
12057SOL    HW248150   7.448   7.011   7.284 -0.4959 -0.9440  0.2551
12058SOL     OW48151   0.654   9.212   6.946 -0.2342  0.7156  0.7770
12058SOL    HW148152   0.624   9.174   7.029 -0.4247 -0.2751  0.2720
12058SOL    HW248153   0.639   9.306   6.956 -1.5350  0.4757  1.3535
12059SOL     OW48154   5.391   4.874   3.391  0.2703 -0.6826  0.5634
12059SOL    HW148155   5.314   4.885   3.335  1.6965  0.0372 -1.3735
12059SOL    HW248156   5.461   4.849   3.331  2.7965  3.5962  1.3215
12060SOL     OW48157   6.745   1.188   2.137  0.2309 -0.5493 -0.4182
12060SOL    HW148158   6.783   1.115   2.185 -1.6026 -1.3797 -0.1435
12060SOL    HW248159   6.750   1.262   2.198 -0.5036 -1.1792  0.4346
12061SOL     OW48160   7.235   0.808   6.660  0.3059 -0.7758  0.1794
12061SOL    HW148161   7.145   0.794   6.687 -0.2038  0.5924 -0.6859
12061SOL    HW248162   7.287   0.787   6.738 -0.7031 -1.9832  0.5635
12062SOL     OW48163   9.629   4.584   6.953  0.0898  0.2204 -0.1201
12062SOL    HW148164   9.598   4.539   6.874  1.5998 -0.7016 -0.2227
12062SOL    HW248165   9.723   4.594   6.939  0.4015 -0.0351  1.5992
12063SOL     OW48166   8.817   5.319   0.040 -0.1574  0.3937  0.3716
12063SOL    HW148167   8.872   5.348  -0.033 -0.8280  0.7039 -0.0223
12063SOL    HW248168   8.828   5.224   0.043  1.4494  0.5793  1.1686
12064SOL     OW48169   9.120   4.664   8.958 -0.2362 -0.4673  0.3452
12064SOL    HW148170   9.140   4.607   8.884 -0.1875  0.6599 -0.5413
12064SOL    HW248171   9.166   4.624   9.032  2.7877  0.2623 -0.9601
12065SOL     OW48172   1.403   1.796   0.300  0.4829 -0.2792  0.3860
12065SOL    HW148173   1.365   1.845   0.373 -0.3460 -0.6199  0.1990
12065SOL    HW248174   1.401   1.705   0.329 -0.1477 -0.4512 -0.1844
12066SOL     OW48175   7.918   4.304   3.334  0.3804  0.2851  0.0402
12066SOL    HW148176   7.989   4.268   3.281  0.9062  0.9538  0.2707
12066SOL    HW248177   7.953   4.305   3.423  0.7299  2.1385 -0.0707
12067SOL     OW48178   2.377   8.498   8.253 -0.1508 -0.0847  0.0736
12067SOL    HW148179   2.411   8.409   8.261  0.6853  0.3020  0.9254
12067SOL    HW248180   2.301   8.489   8.195  1.5106 -0.9372 -2.0787
12068SOL     OW48181   6.799   9.231   9.200 -0.4121 -0.7565 -0.2433
12068SOL    HW148182   6.800   9.183   9.283 -0.0183 -0.0171  0.2016
12068SOL    HW248183   6.827   9.168   9.134  2.2224 -0.6423  0.6330
12069SOL     OW48184   8.036   8.026   0.244  0.3894 -0.1764 -0.1309
12069SOL    HW148185   7.969   8.007   0.177  0.5885  0.7747 -0.6183
12069SOL    HW248186   7.986   8.064   0.317  0.3151 -0.1175 -0.2121
12070SOL     OW48187   6.288   0.033   2.598 -0.0876 -0.0778 -0.0789
12070SOL    HW148188   6.366   0.033   2.543 -0.1007 -0.6400 -0.1030
12070SOL    HW248189   6.284  -0.056   2.634 -1.0323 -0.2410 -0.5498
12071SOL     OW48190   2.982   5.745   3.277  0.1650 -0.1373 -0.0775
12071SOL    HW148191   2.924   5.702   3.339 -0.9399  0.4140 -0.6952
12071SOL    HW248192   2.947   5.721   3.191  0.3771  0.8512 -0.4500
12072SOL     OW48193   9.935  10.045   5.087  0.4510 -0.2428  0.3919
12072SOL    HW148194   9.992   9.975   5.054  0.8174 -1.3289  3.0627
12072SOL    HW248195   9.961  10.122   5.038  2.1402 -1.3674 -0.5816
12073SOL     OW48196   3.570   2.699   9.363 -0.5736  0.0234  0.0508
12073SOL    HW148197   3.663   2.705   9.384  0.0012 -2.1330 -1.5608
12073SOL    HW248198   3.562   2.741   9.277 -1.3341  1.1914  0.6615
12074SOL     OW48199   8.946   4.215   3.078 -0.4901 -0.3325  0.6487
12074SOL    HW148200   8.926   4.309   3.084  1.4876  0.1472  0.1468
12074SOL    HW248201   9.017   4.202   3.140 -0.5232 -1.4471  0.4620
12075SOL     OW48202   3.709   0.060   1.931 -0.0304 -0.3592 -0.5259
12075SOL    HW148203   3.730   0.122   2.001 -0.3251 -0.7340 -0.1003
12075SOL    HW248204   3.781   0.070   1.869 -0.4593  0.9763 -0.8541
12076SOL     OW48205   3.885   7.634   5.041 -0.0039  0.5645  0.1293
12076SOL    HW148206   3.920   7.684   4.967  0.4601 -1.6700 -1.2772
12076SOL    HW248207   3.806   7.681   5.068 -0.8094  0.8917 -2.5484
12077SOL     OW48208   3.197   5.816   8.105 -0.1804 -0.4443 -0.3216
12077SOL    HW148209   3.172   5.908   8.110 -0.3964 -0.5743  1.6870
12077SOL    HW248210   3.284   5.812   8.144  0.6196 -0.8578 -2.0552
12078SOL     OW48211   1.316   1.502   3.457 -0.6556 -0.5849  0.2572
12078SOL    HW148212   1.299   1.558   3.533  1.0104 -0.2696  0.4331
12078SOL    HW248213   1.251   1.530   3.392 -0.3947  0.9894  0.6397
12079SOL     OW48214   0.724   6.772   6.440 -0.8834 -0.2115 -0.3192
12079SOL    HW148215   0.738   6.778   6.535  2.8267 -1.7339 -0.5714
12079SOL    HW248216   0.705   6.680   6.425 -1.1875 -0.0255 -1.0913
12080SOL     OW48217   7.321   0.493   3.934  0.3692  0.2085 -0.2611
12080SOL    HW148218   7.353   0.416   3.886  0.7970 -0.6187  1.2678
12080SOL    HW248219   7.256   0.457   3.994 -0.9040  1.3731 -0.8950
12081SOL     OW48220   1.779   2.479   3.983  0.3847  0.2240 -0.1793
12081SOL    HW148221   1.730   2.437   3.912  1.9339  1.0156 -1.7961
12081SOL    HW248222   1.782   2.414   4.052  1.7084 -1.9315 -2.1306
12082SOL     OW48223   4.078   8.974   0.595  0.0533 -0.4089  0.3642
12082SOL    HW148224   4.022   8.980   0.673  0.4646 -1.9915  0.8283
12082SOL    HW248225   4.041   8.902   0.545  0.7599 -0.4567 -0.0966
12083SOL     OW48226   3.174   8.185   9.423  0.5171  0.1591  0.0230
12083SOL    HW148227   3.206   8.110   9.374 -0.2756 -0.0433 -0.2040
12083SOL    HW248228   3.242   8.252   9.414  1.2296 -0.5316  0.2310
12084SOL     OW48229   0.528  10.094   7.895 -0.4331 -0.7018 -0.1048
12084SOL    HW148230   0.451  10.148   7.875 -1.2139 -1.8046 -0.1735
12084SOL    HW248231   0.498  10.036   7.965 -0.2279 -2.3765 -1.3565
12085SOL     OW48232   3.696   7.896   7.960  0.1998 -0.9213 -0.1901
12085SOL    HW148233   3.767   7.899   8.024  0.9758 -0.3733 -1.0510
12085SOL    HW248234   3.657   7.809   7.971  0.8710 -1.1506  0.4270
12086SOL     OW48235   4.538   9.970   6.149  0.6105 -0.3024  0.6706
12086SOL    HW148236   4.516   9.877   6.145  1.8487 -0.7118  2.2290
12086SOL    HW248237   4.632   9.973   6.128  0.1761  0.8589 -1.4063
12087SOL     OW48238   0.084   2.807   4.500  0.1569  0.5672  1.0093
12087SOL    HW148239   0.133   2.727   4.483  1.1945  1.2500  0.6248
12087SOL    HW248240  -0.006   2.779   4.515  0.3339 -0.5898  0.0339
12088SOL     OW48241   7.613   0.733   8.605 -0.9384  0.3711 -0.8335
12088SOL    HW148242   7.607   0.729   8.700 -1.5255 -0.6409 -0.8940
12088SOL    HW248243   7.682   0.797   8.587 -1.3956  1.1889  0.2517
12089SOL     OW48244   7.412   2.114   7.162  0.5655 -0.5031  0.8037
12089SOL    HW148245   7.318   2.107   7.174  0.3379  0.2040 -0.3849
12089SOL    HW248246   7.431   2.063   7.084  1.0670 -0.1233  0.6691
12090SOL     OW48247  10.083   4.676   0.755 -0.5397 -0.4485 -0.4760
12090SOL    HW148248  10.085   4.633   0.841 -0.9923  0.6669  0.1053
12090SOL    HW248249  10.115   4.764   0.771 -2.0272  0.2503 -1.1542
12091SOL     OW48250   2.656   6.991   1.933  0.3472 -0.3783  0.0267
12091SOL    HW148251   2.599   7.063   1.959  0.8674  0.2174 -0.4673
12091SOL    HW248252   2.692   6.958   2.015  1.7697  1.3086  0.1372
12092SOL     OW48253   0.114   0.130   1.625 -0.3861 -0.3064 -0.5184
12092SOL    HW148254   0.068   0.048   1.607 -1.4143  0.4794 -1.6572
12092SOL    HW248255   0.064   0.172   1.695  0.4621 -0.8711  0.4606
12093SOL     OW48256   7.851   9.236  10.150 -0.2042  0.0881 -0.1180
12093SOL    HW148257   7.878   9.172  10.215 -2.0818 -0.2288  0.4273
12093SOL    HW248258   7.836   9.185  10.070 -1.4893 -0.1681  0.2577
12094SOL     OW48259   9.268   1.331   0.958 -0.1970 -0.2204 -0.3147
12094SOL    HW148260   9.182   1.337   0.917  0.3122  0.6084 -1.3099
12094SOL    HW248261   9.319   1.276   0.898 -0.0552 -0.8009  0.3272
12095SOL     OW48262   5.409   3.388   6.902 -0.2213  0.3504  0.0554
12095SOL    HW148263   5.473   3.340   6.954 -0.8264 -1.5712 -0.8664
12095SOL    HW248264   5.366   3.447   6.964  1.4620  0.6768  0.9595
12096SOL     OW48265   3.297   8.737   2.699 -0.6268  0.6272  0.2890
12096SOL    HW148266   3.283   8.767   2.609 -0.1690  0.3674  0.1217
12096SOL    HW248267   3.221   8.682   2.718 -0.6670  0.5832  0.0140
12097SOL     OW48268   9.535   8.715   2.698 -0.0621  0.3775  0.1111
12097SOL    HW148269   9.496   8.802   2.686 -0.2160  0.3844  0.6159
12097SOL    HW248270   9.468   8.654   2.669 -0.0669  0.4199  0.0336
12098SOL     OW48271   0.662   2.616   5.378 -0.1642 -0.3618  0.6906
12098SOL    HW148272   0.613   2.623   5.296 -1.2958 -0.5001  1.3275
12098SOL    HW248273   0.629   2.688   5.432  0.8925  0.0030  0.8685
12099SOL     OW48274   3.802  10.187   2.052 -0.5154 -0.3218 -0.3352
12099SOL    HW148275   3.804  10.195   2.147  1.7256 -0.0570 -0.3423
12099SOL    HW248276   3.749  10.261   2.022 -0.5587  0.0709  0.6718
12100SOL     OW48277   6.443   5.403   0.414 -0.2036  0.3844 -0.0002
12100SOL    HW148278   6.416   5.489   0.382 -1.0813  0.9335  2.0706
12100SOL    HW248279   6.503   5.422   0.487  1.3726 -0.8036 -0.9056
12101SOL     OW48280   9.239   8.046   1.905 -0.5739 -0.1325 -0.3507
12101SOL    HW148281   9.321   8.021   1.861  0.0444 -0.2317  0.8029
12101SOL    HW248282   9.172   7.992   1.864  0.0417 -0.4874 -0.9101
12102SOL     OW48283   4.572   0.270   4.951 -0.2949  0.5400  0.0369
12102SOL    HW148284   4.559   0.274   4.856  0.0391  0.7953 -0.0019
12102SOL    HW248285   4.657   0.312   4.965  1.3110 -2.4467  0.1070
12103SOL     OW48286   0.183   9.199   1.198  0.4215  0.5392 -0.7101
12103SOL    HW148287   0.253   9.170   1.257 -0.2466  2.4030  1.1120
12103SOL    HW248288   0.193   9.144   1.120  2.4864 -0.7790  0.3980
12104SOL     OW48289   0.266   6.737   6.801 -0.3550 -0.0971  0.2209
12104SOL    HW148290   0.344   6.759   6.750  0.1067 -1.4331  0.3325
12104SOL    HW248291   0.194   6.782   6.755  0.5223  1.6816  0.4782
12105SOL     OW48292   0.923   4.629   0.398  0.2880  0.0774 -0.3908
12105SOL    HW148293   0.954   4.720   0.401 -0.3598  0.3681 -1.7049
12105SOL    HW248294   0.827   4.637   0.397  0.1942 -0.4339 -3.3747
12106SOL     OW48295   5.099   7.784  10.241  0.1050 -0.2014 -0.0087
12106SOL    HW148296   5.111   7.764  10.148 -1.4887 -1.5717  0.0332
12106SOL    HW248297   5.175   7.839  10.264  0.5255  0.1658 -2.0940
12107SOL     OW48298   1.633   8.743   6.372  0.1268 -0.2629 -0.0195
12107SOL    HW148299   1.632   8.820   6.428 -0.3659 -0.4488  0.2434
12107SOL    HW248300   1.710   8.753   6.317 -0.3925  0.8201 -0.5621
12108SOL     OW48301   8.085   2.515   8.174  0.2335  0.5870 -0.0347
12108SOL    HW148302   8.088   2.438   8.117 -0.0929  0.1089  0.5935
12108SOL    HW248303   8.170   2.517   8.217  0.0203  0.2268  0.4069
12109SOL     OW48304   1.807   4.352   8.587 -0.3670  0.1865  0.5949
12109SOL    HW148305   1.850   4.277   8.628  0.2191  0.6942  0.9231
12109SOL    HW248306   1.727   4.316   8.550  1.1201 -1.1692 -1.5798
12110SOL     OW48307   7.214   1.638   2.353  0.5299  0.4458 -0.4986
12110SOL    HW148308   7.308   1.636   2.334  0.6785  0.2645  0.2289
12110SOL    HW248309   7.203   1.575   2.424  0.1878  1.9299  0.8381
12111SOL     OW48310   8.511   6.229   1.689 -0.6332 -0.5411 -0.1233
12111SOL    HW148311   8.533   6.151   1.639  0.2975 -0.9176  0.8370
12111SOL    HW248312   8.536   6.302   1.632 -1.2862 -0.9392 -0.9293
12112SOL     OW48313   8.616   1.515   4.650  0.6412 -0.0419  0.0744
12112SOL    HW148314   8.573   1.597   4.623 -0.0923 -0.2934  0.4562
12112SOL    HW248315   8.604   1.513   4.745 -0.6985 -1.3293 -0.0844
12113SOL     OW48316   2.684   2.578   4.181 -0.2204  0.5699 -0.2475
12113SOL    HW148317   2.614   2.618   4.130 -1.6312  0.4488  1.4713
12113SOL    HW248318   2.642   2.552   4.263  1.8915  0.7307  0.9864
12114SOL     OW48319   5.571   4.745   3.229  0.7547 -0.2396  0.0396
12114SOL    HW148320   5.518   4.687   3.174 -1.0209  0.7921  0.5845
12114SOL    HW248321   5.588   4.821   3.174 -0.2594  0.4002  0.5818
12115SOL     OW48322   0.729   8.813   2.995 -0.0118  0.0866  0.0579
12115SOL    HW148323   0.719   8.893   2.944 -0.1734 -0.9173 -1.5799
12115SOL    HW248324   0.641   8.793   3.026 -1.1680 -2.0735 -3.8454
12116SOL     OW48325   5.317   3.845   7.288  1.0375  0.0437  0.3740
12116SOL    HW148326   5.394   3.802   7.326  2.1650  0.7048 -1.0768
12116SOL    HW248327   5.337   3.851   7.195  1.0046  3.7337  0.4514
12117SOL     OW48328   9.853   1.965   9.056  0.0749 -0.0974 -0.0025
12117SOL    HW148329   9.813   2.047   9.028  0.0003 -0.5925 -1.4285
12117SOL    HW248330   9.826   1.901   8.990  0.3150 -1.2288  0.9527
12118SOL     OW48331   1.799   8.903   0.128 -0.5321  0.1938  0.7428
12118SOL    HW148332   1.706   8.905   0.103  0.1396  0.1794 -1.9948
12118SOL    HW248333   1.835   8.986   0.096  0.9509 -0.9571 -0.7097
12119SOL     OW48334   4.652   7.273   8.590  0.4614  0.2675 -0.1745
12119SOL    HW148335   4.557   7.282   8.600  0.3596  0.6914 -1.3583
12119SOL    HW248336   4.664   7.184   8.558  0.2829  0.8152 -1.8429
12120SOL     OW48337   6.861   1.282   2.969 -0.4158  0.2400  0.0486
12120SOL    HW148338   6.836   1.190   2.974 -1.3277  0.5384  1.6164
12120SOL    HW248339   6.923   1.294   3.040 -0.9657  1.0144  0.4169
12121SOL     OW48340   0.078   6.815   4.555  0.8749  0.2093  0.3904
12121SOL    HW148341   0.117   6.885   4.609 -2.6998  1.2503  1.9082
12121SOL    HW248342   0.047   6.751   4.619  1.2626 -1.2533 -0.8324
12122SOL     OW48343   3.342   4.968   9.157  0.3237 -0.3241  0.4122
12122SOL    HW148344   3.399   4.910   9.207 -0.3178 -0.8224  0.5681
12122SOL    HW248345   3.320   4.918   9.078  0.9263  0.2637 -0.1444
12123SOL     OW48346   6.603   1.371   6.166  0.2389  0.9352 -0.3327
12123SOL    HW148347   6.619   1.466   6.171  0.0428  0.9341  0.5079
12123SOL    HW248348   6.690   1.333   6.155  0.4449  1.1587  0.4304
12124SOL     OW48349   2.282   5.754   9.397  0.3010 -0.1445  0.2317
12124SOL    HW148350   2.335   5.675   9.412 -1.1965 -1.6119 -1.6375
12124SOL    HW248351   2.195   5.720   9.375 -0.0939  1.9786 -1.7740
12125SOL     OW48352   5.161   9.441   8.567  0.3565 -0.4494  1.0252
12125SOL    HW148353   5.217   9.363   8.570 -0.2111 -0.9366 -0.2622
12125SOL    HW248354   5.214   9.510   8.606  0.7056 -1.5594  2.6381
12126SOL     OW48355   5.061   7.436   4.444 -0.3524 -0.3235 -1.1705
12126SOL    HW148356   5.112   7.516   4.458  0.2040 -0.8853  0.2479
12126SOL    HW248357   5.003   7.431   4.520  0.4979 -1.8936 -0.5694
12127SOL     OW48358   3.334   8.881   6.892  0.1160  0.0372 -0.3576
12127SOL    HW148359   3.424   8.850   6.899  0.8134  1.8110 -1.0810
12127SOL    HW248360   3.296   8.828   6.821  0.3002 -1.2951  0.5049
12128SOL     OW48361   3.552   1.393   6.746  0.0417 -0.4864 -0.2046
12128SOL    HW148362   3.637   1.390   6.789  0.1689 -0.7952 -0.4801
12128SOL    HW248363   3.516   1.479   6.770 -0.0300 -0.7760  0.7894
12129SOL     OW48364   1.600   6.448   1.921 -0.1010  0.7103 -0.2744
12129SOL    HW148365   1.563   6.524   1.877  1.2356  1.9617  0.6324
12129SOL    HW248366   1.694   6.467   1.925  0.0405 -0.1748  1.4966
12130SOL     OW48367  10.143   8.483   6.514 -0.3039  0.0791 -0.3938
12130SOL    HW148368  10.074   8.483   6.580  0.5409 -0.2270  0.5130
12130SOL    HW248369  10.096   8.479   6.431 -1.3809  0.0796  0.1941
12131SOL     OW48370   3.179   1.276   5.551  0.4470 -0.2717  0.3253
12131SOL    HW148371   3.174   1.181   5.560  2.2229 -0.3186  1.1857
12131SOL    HW248372   3.269   1.298   5.575 -0.5104  1.8422  2.3512
12132SOL     OW48373   9.776   9.122   9.208 -0.2819  0.5233 -0.5591
12132SOL    HW148374   9.755   9.210   9.178  0.1408  0.9630  0.4036
12132SOL    HW248375   9.842   9.091   9.146  1.5761  1.9257  0.6034
12133SOL     OW48376   6.961   7.562   0.671  0.3855 -0.0835 -0.3757
12133SOL    HW148377   6.893   7.582   0.735  0.4554  1.2904 -0.7024
12133SOL    HW248378   6.930   7.483   0.627 -1.5491  1.0862 -1.2453
12134SOL     OW48379   4.174   4.800   5.823  0.3882 -0.0581  0.1225
12134SOL    HW148380   4.233   4.779   5.750  1.1181 -0.2833  0.7626
12134SOL    HW248381   4.224   4.862   5.876  0.7813 -1.5789  1.6081
12135SOL     OW48382   6.938   4.108   2.394  0.0950  0.4060 -0.5691
12135SOL    HW148383   6.974   4.020   2.400  0.0692  0.3333 -1.3884
12135SOL    HW248384   6.846   4.098   2.419 -0.5877 -0.2852 -3.0907
12136SOL     OW48385   3.361   8.949   9.603  0.1868 -0.1579 -0.3994
12136SOL    HW148386   3.383   8.873   9.656  1.1220  1.3671  1.5344
12136SOL    HW248387   3.279   8.925   9.559 -0.0702 -1.8845  0.9111
12137SOL     OW48388   2.819   8.250   0.147  0.1915  0.5092 -0.2967
12137SOL    HW148389   2.775   8.182   0.096  0.2759  1.2896 -1.4369
12137SOL    HW248390   2.801   8.331   0.100  0.5315  1.2117  0.7595
12138SOL     OW48391   0.995   1.683   8.976  0.6979 -0.3778 -0.0025
12138SOL    HW148392   0.956   1.597   8.993 -1.0314  0.3786  0.0515
12138SOL    HW248393   0.943   1.719   8.904 -0.1023  1.5089  1.4264
12139SOL     OW48394   8.059   2.855   5.772  0.1792 -0.2029 -0.1692
12139SOL    HW148395   7.987   2.805   5.735 -0.6796 -0.8270  2.1799
12139SOL    HW248396   8.040   2.860   5.866  1.0284  3.1897 -0.0225
12140SOL     OW48397   6.254   2.431   8.566 -0.4226 -0.2293  0.1571
12140SOL    HW148398   6.223   2.394   8.649 -1.5946  2.2247  0.9308
12140SOL    HW248399   6.186   2.408   8.503  0.1351 -1.5200 -0.0038
12141SOL     OW48400   5.151   0.518   5.063  0.1528  0.8121  0.5564
12141SOL    HW148401   5.102   0.442   5.032  0.0988  1.3801 -0.8283
12141SOL    HW248402   5.187   0.491   5.147  1.1881 -1.2079 -0.4583
12142SOL     OW48403   6.248   6.644   5.686 -0.2451 -0.0589 -0.2882
12142SOL    HW148404   6.197   6.704   5.741  1.8848  1.1506  0.5223
12142SOL    HW248405   6.305   6.598   5.748  0.1472 -0.8298 -1.2053
12143SOL     OW48406   2.441   2.928   1.561 -0.1821 -0.2028  0.0691
12143SOL    HW148407   2.498   2.940   1.637 -0.0642 -0.8115  0.0821
12143SOL    HW248408   2.353   2.941   1.595 -0.0179  1.8121 -0.1675
12144SOL     OW48409   4.007  10.157   7.166 -0.0127 -0.1574 -1.1337
12144SOL    HW148410   3.919  10.141   7.133 -0.7699 -0.4166  0.8810
12144SOL    HW248411   4.064  10.101   7.112 -1.4356 -2.1602 -0.6830
12145SOL     OW48412   5.104   5.383   8.798 -0.5252  0.5752 -0.2952
12145SOL    HW148413   5.086   5.420   8.884  0.0502 -1.0056  0.5537
12145SOL    HW248414   5.126   5.292   8.815 -3.2346 -0.6313 -2.3698
12146SOL     OW48415   3.583   2.855   8.347  0.3430  0.2245  0.6116
12146SOL    HW148416   3.660   2.817   8.387  0.6889  0.5310  0.2448
12146SOL    HW248417   3.587   2.827   8.255 -0.4429 -0.4809  0.7842
12147SOL     OW48418   1.110   3.266   7.905 -0.4694 -0.4535  0.4040
12147SOL    HW148419   1.105   3.306   7.818  0.1869 -0.7484  0.2255
12147SOL    HW248420   1.111   3.172   7.888  1.7973 -0.5143  0.5767
12148SOL     OW48421   3.744   3.066   9.155  0.0859  0.3461  0.0785
12148SOL    HW148422   3.831   3.031   9.175  0.3162  0.4108 -0.7480
12148SOL    HW248423   3.690   2.988   9.140  0.2550  0.3111 -0.3852
12149SOL     OW48424   1.300   5.564   2.963  0.1225 -0.1844  0.8864
12149SOL    HW148425   1.370   5.499   2.963  1.6117  1.1931 -2.7280
12149SOL    HW248426   1.246   5.541   2.887  0.1535  2.1847  0.0629
12150SOL     OW48427   2.382   7.300   1.481 -0.4823  0.2365 -0.3376
12150SOL    HW148428   2.410   7.217   1.520 -0.6967 -0.3612 -1.4400
12150SOL    HW248429   2.365   7.280   1.389 -2.3410  1.0793 -0.2291
12151SOL     OW48430   4.338   8.836   0.674  0.0179  0.0936  0.0948
12151SOL    HW148431   4.263   8.890   0.649  0.2601  0.6590  0.5610
12151SOL    HW248432   4.366   8.794   0.592 -0.5432  0.2093 -0.1593
12152SOL     OW48433   7.725   7.522   4.397 -0.0294 -0.4356 -0.3027
12152SOL    HW148434   7.728   7.605   4.350  0.5941  0.1433  0.7335
12152SOL    HW248435   7.695   7.458   4.332 -4.1006  1.1761 -0.2823
12153SOL     OW48436  10.189   5.072   4.618  0.3654 -0.2808 -0.0637
12153SOL    HW148437  10.148   5.142   4.668 -0.7066 -0.0861 -1.1813
12153SOL    HW248438  10.234   5.019   4.684 -0.0043  0.6368  0.9584
12154SOL     OW48439   0.953   1.993   9.839  0.4182  0.3647  0.0487
12154SOL    HW148440   0.864   1.989   9.873  0.0607  1.2233 -0.7578
12154SOL    HW248441   0.993   2.067   9.885  0.5388  0.3373 -0.0127
12155SOL     OW48442   6.763   4.934   6.070 -0.4904 -0.2928 -0.4012
12155SOL    HW148443   6.777   4.840   6.086 -2.1025 -0.1782  2.2032
12155SOL    HW248444   6.668   4.945   6.077 -0.1920  1.7822  1.0004
12156SOL     OW48445   8.204   4.427   3.253  0.1285 -0.9862 -0.0551
12156SOL    HW148446   8.217   4.466   3.339 -1.8364 -0.8245  0.2155
12156SOL    HW248447   8.161   4.495   3.202  0.2520 -1.4541 -0.7994
12157SOL     OW48448   1.031   4.979   1.620  0.0704 -0.1986  0.5156
12157SOL    HW148449   1.005   4.887   1.622 -1.5431  0.1457 -1.3531
12157SOL    HW248450   1.117   4.978   1.577 -0.1436 -0.8154  0.0686
12158SOL     OW48451   1.861   0.391   3.152 -0.2459 -0.2336 -0.7579
12158SOL    HW148452   1.819   0.308   3.130  1.9300 -0.9256 -2.6248
12158SOL    HW248453   1.792   0.457   3.140 -1.5996 -1.5846 -0.6929
12159SOL     OW48454   1.765   9.218   2.992 -0.2188 -0.0427  0.2650
12159SOL    HW148455   1.787   9.302   2.953  1.8786 -0.2288  0.9508
12159SOL    HW248456   1.676   9.229   3.024 -0.1591  1.7433 -0.0977
12160SOL     OW48457   5.113   0.473   1.875  0.3598 -0.3545 -0.2116
12160SOL    HW148458   5.108   0.404   1.808  0.4432 -1.2973  0.7238
12160SOL    HW248459   5.030   0.467   1.923  0.6550 -0.2801  0.3185
12161SOL     OW48460   0.908   6.235   1.484  0.2580 -0.4366 -0.1514
12161SOL    HW148461   0.973   6.304   1.479  1.8950 -1.9760 -1.2230
12161SOL    HW248462   0.909   6.195   1.397 -1.8594 -0.7669 -0.0707
12162SOL     OW48463   0.859   7.121   7.238 -0.1442  0.8042 -0.1702
12162SOL    HW148464   0.913   7.056   7.283 -0.5530  1.2882  1.0595
12162SOL    HW248465   0.770   7.086   7.244 -0.1176  0.5077 -1.2886
12163SOL     OW48466   9.709   9.863   4.974  0.1832  0.3180  0.4120
12163SOL    HW148467   9.762   9.925   5.025  2.4611 -1.0509 -0.2002
12163SOL    HW248468   9.675   9.916   4.901  0.8262  1.1929  0.7227
12164SOL     OW48469   3.723   0.112  10.343 -0.9329 -0.0842 -0.0182
12164SOL    HW148470   3.685   0.181  10.397 -1.1703  0.2568 -0.6138
12164SOL    HW248471   3.649   0.055  10.321 -0.6528 -0.8163  0.8852
12165SOL     OW48472  10.075   5.761   2.057 -0.4496  0.1320 -0.1557
12165SOL    HW148473  10.102   5.678   2.097 -1.0664 -0.6777 -1.3533
12165SOL    HW248474   9.981   5.768   2.078 -0.6133  0.0490 -0.8323
12166SOL     OW48475   2.528   7.008   6.507 -0.0071 -0.2305  0.2803
12166SOL    HW148476   2.459   7.050   6.558 -2.5603 -1.0282 -2.2476
12166SOL    HW248477   2.546   7.069   6.436  2.1325  0.0565  1.0146
12167SOL     OW48478   6.176   5.546   8.210 -0.4875  0.0295 -0.1775
12167SOL    HW148479   6.117   5.622   8.210  0.9201  1.1895  1.1864
12167SOL    HW248480   6.261   5.581   8.186 -0.1330 -1.4513 -1.2088
12168SOL     OW48481   8.366   1.939   9.514  0.0140  0.0375  0.5084
12168SOL    HW148482   8.458   1.915   9.501  0.0956  0.4970  0.2214
12168SOL    HW248483   8.351   1.927   9.607 -0.0171 -1.3642  0.3366
12169SOL     OW48484   8.656   8.126   7.008  0.1697 -0.1562 -0.7680
12169SOL    HW148485   8.687   8.071   6.936 -1.8644 -0.4999 -1.4564
12169SOL    HW248486   8.711   8.204   7.004  0.4802 -0.4084 -2.3543
12170SOL     OW48487   4.792   1.287   3.889 -0.7208  0.3633  0.3419
12170SOL    HW148488   4.701   1.256   3.900 -1.1264 -0.6205 -3.8046
12170SOL    HW248489   4.840   1.208   3.865  0.4033  1.4365 -1.0548
12171SOL     OW48490   7.043   6.259   5.830  0.0902  0.0128 -0.3766
12171SOL    HW148491   7.092   6.336   5.859 -0.1151 -0.6012  1.7759
12171SOL    HW248492   7.079   6.187   5.881 -1.5199 -0.8530 -0.3954
12172SOL     OW48493   5.864   3.613   4.961  0.2152 -0.0074 -0.2839
12172SOL    HW148494   5.797   3.674   4.931  1.1535  0.9582 -0.4581
12172SOL    HW248495   5.867   3.625   5.055  2.5945  2.6195 -0.5745
12173SOL     OW48496   8.344  10.088   4.631  0.3818 -0.3844 -0.2281
12173SOL    HW148497   8.291  10.011   4.653 -0.4405  0.1134 -0.4170
12173SOL    HW248498   8.401  10.100   4.707 -1.2112  0.2676  0.9122
12174SOL     OW48499   9.775   4.800   4.389 -0.6198 -0.3414  0.2814
12174SOL    HW148500   9.732   4.879   4.358 -0.3073 -0.5520 -0.7056
12174SOL    HW248501   9.708   4.755   4.441 -0.4296  1.1627  1.9107
12175SOL     OW48502   7.170   5.750   9.297 -0.5165 -0.1301  0.1276
12175SOL    HW148503   7.087   5.724   9.257 -0.3859  0.3014 -0.4358
12175SOL    HW248504   7.189   5.681   9.361 -0.1762 -1.4125 -1.3235
12176SOL     OW48505   2.262   9.605   5.245 -0.3197  0.2260  0.7037
12176SOL    HW148506   2.310   9.613   5.162 -2.0223 -0.7802 -0.4527
12176SOL    HW248507   2.330   9.605   5.312  1.2752 -0.6285 -0.8078
12177SOL     OW48508   4.499   8.890   2.309  0.0618 -0.2281  0.2760
12177SOL    HW148509   4.586   8.913   2.277 -0.7055  0.1723 -1.6179
12177SOL    HW248510   4.476   8.811   2.261 -0.6581 -0.2931  0.7187
12178SOL     OW48511   4.969  10.279   2.436 -0.0083  0.2908  0.0740
12178SOL    HW148512   4.978  10.350   2.372 -1.1063  1.1473  0.8278
12178SOL    HW248513   5.028  10.304   2.507 -0.5524  0.5725  0.4329
12179SOL     OW48514   6.673   9.456   8.424 -0.7376  0.3347  0.5157
12179SOL    HW148515   6.604   9.445   8.489 -0.6278  1.1239  0.7726
12179SOL    HW248516   6.742   9.504   8.469 -0.5593  0.6911 -0.1154
12180SOL     OW48517   8.073   4.550   5.932  0.6105 -0.6031  0.7578
12180SOL    HW148518   8.053   4.631   5.886 -0.7809 -2.2968 -1.9042
12180SOL    HW248519   8.164   4.559   5.959  1.0593  1.1347 -1.0949
12181SOL     OW48520   7.284   4.561   9.870  0.2826 -0.3323 -0.2908
12181SOL    HW148521   7.231   4.568   9.950 -1.6896  0.4478 -1.5883
12181SOL    HW248522   7.366   4.523   9.899  0.1657  1.2006  2.3465
12182SOL     OW48523   9.430   0.890   8.596  0.4324  0.2063 -0.4879
12182SOL    HW148524   9.479   0.848   8.526  0.8599 -1.8109  0.9470
12182SOL    HW248525   9.353   0.927   8.553 -0.4281 -2.8068 -1.7560
12183SOL     OW48526   5.742   2.511   5.876  0.2638 -0.8214  0.2238
12183SOL    HW148527   5.667   2.539   5.824  0.6690  1.8580  0.8923
12183SOL    HW248528   5.788   2.448   5.821 -2.2814 -2.3249 -0.3060
12184SOL     OW48529  10.257   5.198   9.953  0.5019 -0.3465  0.1048
12184SOL    HW148530  10.297   5.197  10.040  0.5665 -0.2421  0.0769
12184SOL    HW248531  10.164   5.212   9.968  0.6390  0.6406  0.1108
12185SOL     OW48532   3.942   8.219   6.392  0.5556 -1.1217 -0.3164
12185SOL    HW148533   3.932   8.313   6.378 -1.2084 -1.3676 -0.8582
12185SOL    HW248534   3.930   8.207   6.486 -0.1178 -0.8986 -0.3723
12186SOL     OW48535   0.199   0.645   0.750 -0.1157 -0.4385  0.2866
12186SOL    HW148536   0.237   0.597   0.676 -1.3386 -1.8745  0.5334
12186SOL    HW248537   0.115   0.676   0.717 -1.9926 -3.4499  1.7463
12187SOL     OW48538   6.529   4.168   8.903 -0.0099  0.2273  0.2072
12187SOL    HW148539   6.557   4.151   8.812  0.2140 -0.5911  0.4163
12187SOL    HW248540   6.454   4.227   8.895  0.3324  0.5858 -0.4841
12188SOL     OW48541   4.381   8.281  10.169  0.7098  0.6182  0.0824
12188SOL    HW148542   4.391   8.303  10.076  0.9712 -1.8259 -0.5404
12188SOL    HW248543   4.468   8.253  10.197  0.2282 -0.5250  0.5023
12189SOL     OW48544   3.628   0.519   9.437  0.0378 -0.4198  0.1227
12189SOL    HW148545   3.639   0.520   9.342 -0.6755  2.1202  0.0066
12189SOL    HW248546   3.560   0.452   9.452  1.1144 -1.8200 -0.9688
12190SOL     OW48547   8.481   5.201   5.465 -0.2519 -0.2357 -0.4943
12190SOL    HW148548   8.403   5.247   5.433  1.0476  1.8892 -0.8295
12190SOL    HW248549   8.533   5.183   5.387  0.3306 -0.1503 -0.1388
12191SOL     OW48550   5.514   8.942   5.122 -0.2519  0.0352 -0.2927
12191SOL    HW148551   5.453   8.964   5.051 -0.8422  1.1526  0.5397
12191SOL    HW248552   5.458   8.924   5.197  0.4095 -0.0695  0.1834
12192SOL     OW48553   2.331   5.460   3.896  0.2299  0.0857 -0.0163
12192SOL    HW148554   2.352   5.368   3.909 -1.6137 -0.3825 -0.0720
12192SOL    HW248555   2.299   5.490   3.980 -0.6740  0.2378 -0.4053
12193SOL     OW48556   0.812   2.555   8.847  0.1031  0.1411 -0.1902
12193SOL    HW148557   0.819   2.520   8.936  0.0818 -1.8987 -0.9609
12193SOL    HW248558   0.839   2.647   8.856  3.2972 -0.8180  1.3661
12194SOL     OW48559   4.382   0.591   9.704 -0.4392 -0.1047 -0.3132
12194SOL    HW148560   4.409   0.650   9.633  1.4989  1.4581  1.6000
12194SOL    HW248561   4.290   0.612   9.719  0.0736  2.2179  0.0234
12195SOL     OW48562   0.795   3.194   6.724  0.1433 -0.1421  0.1687
12195SOL    HW148563   0.718   3.241   6.754  0.4032  0.3960 -0.0047
12195SOL    HW248564   0.786   3.191   6.628 -0.6712 -1.8262  0.2662
12196SOL     OW48565   0.579   7.566   8.410  0.4528 -0.2647  0.2040
12196SOL    HW148566   0.666   7.600   8.390  0.4680 -0.1345  0.4877
12196SOL    HW248567   0.520   7.640   8.395  0.4591 -0.1821  0.5887
12197SOL     OW48568   1.449   5.194   3.571  0.0596 -0.5790  0.1731
12197SOL    HW148569   1.429   5.185   3.665 -1.3323  1.4717  0.1451
12197SOL    HW248570   1.533   5.239   3.569  0.3652 -1.1339  0.4353
12198SOL     OW48571   1.322   2.056   8.244  0.5693 -0.4092  0.3653
12198SOL    HW148572   1.280   2.066   8.329  0.0339  1.2736 -0.0407
12198SOL    HW248573   1.405   2.103   8.252  0.6214 -0.4399  0.0334
12199SOL     OW48574   3.984   0.137   4.751  0.3572 -0.5265 -0.0012
12199SOL    HW148575   4.075   0.156   4.729 -0.0215  0.4091 -0.7819
12199SOL    HW248576   3.974   0.168   4.841  0.3827  0.8991 -0.4670
12200SOL     OW48577   2.815   9.895   3.069  0.1727  0.0878 -1.1587
12200SOL    HW148578   2.778   9.808   3.054 -0.5852  0.4827 -1.6632
12200SOL    HW248579   2.783   9.920   3.155  0.6325 -0.2388 -0.8829
12201SOL     OW48580   1.706   6.343   6.942  0.4308 -0.3478 -0.2034
12201SOL    HW148581   1.624   6.312   6.904  1.0138  0.1627 -1.9700
12201SOL    HW248582   1.732   6.274   7.004 -1.2168 -0.5902  0.2639
12202SOL     OW48583   0.421   1.128   8.451 -0.7352  0.0075 -0.0496
12202SOL    HW148584   0.345   1.071   8.440  0.6804 -1.9367 -0.3569
12202SOL    HW248585   0.483   1.076   8.502  0.4542  1.4812  0.0805
12203SOL     OW48586   6.864   8.886   3.719  0.6595  0.3734  0.0004
12203SOL    HW148587   6.901   8.973   3.733  0.8689  0.1412  0.9722
12203SOL    HW248588   6.772   8.895   3.745  1.0021 -0.0092  1.4666
12204SOL     OW48589   6.872  10.163   6.204 -0.4793 -0.8972  0.0237
12204SOL    HW148590   6.900  10.146   6.114 -1.1688 -2.7258  0.1168
12204SOL    HW248591   6.951  10.151   6.256  0.0520  0.7137 -0.3590
12205SOL     OW48592   9.654   7.780   9.603  0.0358 -0.0845 -0.3136
12205SOL    HW148593   9.561   7.804   9.601  0.0822  0.1297 -0.0260
12205SOL    HW248594   9.655   7.685   9.589 -0.3627 -0.3966  1.5583
12206SOL     OW48595   1.326   3.488   7.731 -0.3065 -0.2867 -0.4774
12206SOL    HW148596   1.248   3.442   7.701 -0.2545 -0.8932  0.3002
12206SOL    HW248597   1.311   3.503   7.824  0.0994  0.4354 -0.5154
12207SOL     OW48598   2.369   1.975   7.447 -0.1737  0.4236  1.0045
12207SOL    HW148599   2.346   1.963   7.539  0.8790  1.2051  1.3834
12207SOL    HW248600   2.464   1.964   7.444 -0.1420  0.8307  0.0799
12208SOL     OW48601   9.614  10.257   6.672  0.6033  0.4431 -0.1942
12208SOL    HW148602   9.609  10.323   6.603 -1.0752  0.8194  0.2401
12208SOL    HW248603   9.550  10.286   6.737  0.5107 -1.1196  0.4421
12209SOL     OW48604   6.289   1.099   9.476 -0.2231  0.4354 -0.0060
12209SOL    HW148605   6.244   1.099   9.391  1.4178 -0.2151 -0.9303
12209SOL    HW248606   6.219   1.106   9.540 -1.4733  1.5872 -1.4286
12210SOL     OW48607   0.665   5.786   9.328 -0.1365 -0.4631 -0.0818
12210SOL    HW148608   0.733   5.774   9.395  0.6152  0.3887 -0.6696
12210SOL    HW248609   0.653   5.699   9.290  2.1187 -0.3105 -1.3552
12211SOL     OW48610   8.975   0.297   0.068 -0.0211 -0.2064  0.4190
12211SOL    HW148611   8.913   0.277  -0.002 -0.3934 -0.4071  0.8017
12211SOL    HW248612   8.926   0.282   0.149  0.4948 -0.2635  0.7279
12212SOL     OW48613   6.447   2.259   9.776  0.2291  0.2210  0.5149
12212SOL    HW148614   6.521   2.202   9.754 -1.3250 -2.4569  1.7012
12212SOL    HW248615   6.486   2.329   9.828  2.2110  0.2394 -0.8326
12213SOL     OW48616   6.249   6.206   9.722  0.2148  0.4910  0.2617
12213SOL    HW148617   6.344   6.202   9.732  0.1822 -0.5391  0.2440
12213SOL    HW248618   6.228   6.299   9.733  1.0093  0.4883  2.3402
12214SOL     OW48619   4.219   4.715   7.754 -0.0897  0.3943  0.3163
12214SOL    HW148620   4.202   4.668   7.836 -1.1339  1.2133  0.5834
12214SOL    HW248621   4.135   4.753   7.730  0.4244  0.9680 -0.6327
12215SOL     OW48622   5.485  10.119   9.931 -0.4632  0.6612  0.8497
12215SOL    HW148623   5.578  10.130   9.914 -0.6054  2.1624  0.8720
12215SOL    HW248624   5.445  10.110   9.844 -0.1216 -2.0943  0.8979
12216SOL     OW48625   1.487   4.952   0.425  0.5907  0.3473  0.4113
12216SOL    HW148626   1.412   5.011   0.424 -1.1913 -1.7207 -2.3588
12216SOL    HW248627   1.557   5.001   0.382  0.3519  1.6810  1.4695
12217SOL     OW48628  10.309   8.448  10.118  0.4038 -0.0619  0.4619
12217SOL    HW148629  10.282   8.540  10.123 -1.3218 -0.5562  1.2975
12217SOL    HW248630  10.235   8.403  10.077  1.0357 -1.1412  0.4575
12218SOL     OW48631   2.004   3.575   8.981 -0.0168  0.1944 -0.4332
12218SOL    HW148632   1.996   3.670   8.978  0.2274  0.2023 -2.2074
12218SOL    HW248633   2.096   3.558   8.963  0.2601 -0.3688  1.3406
12219SOL     OW48634   2.371   0.453   3.021 -0.4829 -0.2565  0.4005
12219SOL    HW148635   2.339   0.460   3.111  0.8369  0.5734  0.8239
12219SOL    HW248636   2.295   0.422   2.971 -1.5718  0.4223  1.5877
12220SOL     OW48637   8.181  10.050   0.364  0.3750 -0.3834  0.4289
12220SOL    HW148638   8.168  10.132   0.318  0.5937 -0.1492  0.7803
12220SOL    HW248639   8.199   9.986   0.295 -2.0056 -0.6191 -0.0450
12221SOL     OW48640   6.084   6.776   1.046  0.1350 -0.1902  0.6323
12221SOL    HW148641   6.061   6.823   1.126  1.4601 -0.9402  1.4885
12221SOL    HW248642   6.125   6.696   1.076  2.6725  0.4862 -0.7481
12222SOL     OW48643   0.853   8.351   0.608 -0.0736 -0.3145  0.3514
12222SOL    HW148644   0.814   8.305   0.682 -0.9055  0.0776  0.1722
12222SOL    HW248645   0.881   8.435   0.644  2.3566 -1.3032  0.9070
12223SOL     OW48646   6.980   7.169   0.863  0.0400 -0.3246 -0.1638
12223SOL    HW148647   6.927   7.168   0.784  0.0192 -2.5553 -0.1659
12223SOL    HW248648   6.996   7.077   0.883  0.1873  0.1650  2.3310
12224SOL     OW48649   3.371   9.131   6.244  0.0128  0.0938 -0.4634
12224SOL    HW148650   3.462   9.123   6.215 -0.7300 -1.1134 -2.7303
12224SOL    HW248651   3.371   9.205   6.305  2.7821 -0.9392  0.9436
12225SOL     OW48652   8.943   8.520  10.379  0.3028 -0.7002  0.2039
12225SOL    HW148653   9.012   8.577  10.345  0.5748 -0.7349  0.6851
12225SOL    HW248654   8.955   8.437  10.333 -0.8348 -0.0307 -1.3799
12226SOL     OW48655   3.819   1.338   8.698  0.4179 -0.2233  0.1145
12226SOL    HW148656   3.756   1.267   8.706  1.1538 -0.9261 -0.2121
12226SOL    HW248657   3.766   1.418   8.702 -0.2690 -0.7148  2.2963
12227SOL     OW48658   3.302   2.753   7.556 -0.2607  0.3940 -0.2397
12227SOL    HW148659   3.297   2.759   7.461  0.1235  1.4440 -0.1977
12227SOL    HW248660   3.324   2.661   7.573 -3.1886 -0.5756 -1.0447
12228SOL     OW48661   6.761   4.047   8.644 -0.4292  0.0148 -0.1136
12228SOL    HW148662   6.803   4.075   8.563  0.4120  4.4359  1.5647
12228SOL    HW248663   6.813   3.972   8.674  1.7211  0.7775 -1.7124
12229SOL     OW48664   9.999   1.189   9.889  0.0066 -0.4348 -0.1003
12229SOL    HW148665   9.940   1.168   9.962 -0.5189  0.5021 -0.2422
12229SOL    HW248666   9.976   1.279   9.865  1.6086  0.0098 -0.0559
12230SOL     OW48667   1.931   0.661   2.459 -0.1025 -0.2162 -0.0237
12230SOL    HW148668   1.848   0.659   2.506 -0.6405 -0.2676 -0.9649
12230SOL    HW248669   1.934   0.579   2.411  0.4892 -0.2089 -0.0047
12231SOL     OW48670   2.541   1.670   9.842  0.3562 -0.3930  0.1706
12231SOL    HW148671   2.473   1.736   9.851 -1.7526 -2.5771  1.1824
12231SOL    HW248672   2.502   1.601   9.789  1.4972 -2.0126  1.3128
12232SOL     OW48673   3.701   4.745   6.921 -0.1571  0.3339  0.0885
12232SOL    HW148674   3.620   4.791   6.945 -0.1696  0.4817 -0.2298
12232SOL    HW248675   3.769   4.789   6.971 -0.0338  1.3069 -0.8919
12233SOL     OW48676   8.472   8.715   9.464  0.3198 -0.0019  0.4531
12233SOL    HW148677   8.433   8.736   9.379 -0.8594 -0.3709  0.8918
12233SOL    HW248678   8.408   8.659   9.507  0.9879  0.0327  1.5268
12234SOL     OW48679   1.066   7.556   3.745  0.4313 -0.0161 -0.5642
12234SOL    HW148680   1.049   7.466   3.718  2.3789 -0.7139  0.3229
12234SOL    HW248681   0.985   7.585   3.787 -0.4634 -1.0888 -1.4761
12235SOL     OW48682   6.440   7.414   7.869  0.2116  0.0988  0.2601
12235SOL    HW148683   6.431   7.329   7.912 -0.9224  0.6104  1.1035
12235SOL    HW248684   6.478   7.471   7.936  2.3243 -0.0392 -0.7366
12236SOL     OW48685   1.177   4.121   5.099  0.6266 -0.5088 -0.0180
12236SOL    HW148686   1.147   4.143   5.188 -0.1252 -0.3449 -0.3064
12236SOL    HW248687   1.102   4.078   5.058  0.2988  1.0398 -1.1706
12237SOL     OW48688   0.397   9.418   3.983 -0.6866 -0.2242  0.0706
12237SOL    HW148689   0.446   9.373   3.914 -1.0704  0.8082 -0.9209
12237SOL    HW248690   0.464   9.457   4.039 -0.3603  0.4788 -0.7902
12238SOL     OW48691   5.064   5.224   4.992 -0.3930 -0.5996  0.0582
12238SOL    HW148692   5.147   5.258   5.027 -0.5975 -0.0233 -0.0015
12238SOL    HW248693   5.010   5.302   4.981 -0.6195 -0.8669 -0.7761
12239SOL     OW48694   2.471   1.973   7.829 -0.2114 -0.0014 -0.4952
12239SOL    HW148695   2.389   1.970   7.879 -1.4206 -1.6571 -2.4046
12239SOL    HW248696   2.518   1.894   7.855 -0.5994 -0.5886 -1.5197
12240SOL     OW48697   4.217   7.723   9.385 -0.4555 -0.0856  0.1322
12240SOL    HW148698   4.140   7.723   9.328  0.2794 -0.0210 -0.8824
12240SOL    HW248699   4.194   7.664   9.456 -1.1533 -0.6886 -0.5749
12241SOL     OW48700   3.346   8.941   9.261  0.1934 -0.5542  0.4561
12241SOL    HW148701   3.289   9.015   9.239  0.6110 -0.1134  0.8091
12241SOL    HW248702   3.286   8.869   9.280 -0.2018 -0.4849 -0.5006
12242SOL     OW48703   2.547   6.849   0.919  0.1699  0.4274 -0.2750
12242SOL    HW148704   2.561   6.846   0.824 -1.8810  0.3018 -0.6249
12242SOL    HW248705   2.453   6.833   0.930  0.1673  1.4460  1.7219
12243SOL     OW48706   7.524   2.596   8.771 -0.4270 -0.1839 -0.6745
12243SOL    HW148707   7.436   2.561   8.785 -1.0267  1.3138 -0.4813
12243SOL    HW248708   7.553   2.556   8.689 -0.6092 -1.9284  0.0624
12244SOL     OW48709   8.449   2.652   4.931  0.3692  0.1097  0.4820
12244SOL    HW148710   8.471   2.740   4.962 -0.3478  0.3591  0.2926
12244SOL    HW248711   8.441   2.600   5.010  0.3754  0.3107  0.6163
12245SOL     OW48712   1.430   0.742   7.109 -0.1427 -0.1688 -0.0681
12245SOL    HW148713   1.407   0.762   7.200  0.9038 -4.2591  1.2814
12245SOL    HW248714   1.507   0.797   7.091  0.5590 -0.3660  2.0738
12246SOL     OW48715   3.539   5.460   9.824 -0.0850 -0.0207  0.3636
12246SOL    HW148716   3.582   5.528   9.773  0.9455  1.0272  2.5102
12246SOL    HW248717   3.610   5.403   9.853 -0.7690 -1.1809 -0.1748
12247SOL     OW48718   3.822   6.335   4.524 -0.5296 -0.1674  0.0291
12247SOL    HW148719   3.738   6.290   4.527 -0.4454 -0.3354 -0.1142
12247SOL    HW248720   3.818   6.400   4.594 -0.6186 -0.4579  0.2895
12248SOL     OW48721   5.621   4.625   6.735 -0.7679 -0.2463 -0.5584
12248SOL    HW148722   5.679   4.650   6.807 -0.3991  0.4183 -1.0694
12248SOL    HW248723   5.615   4.530   6.740  0.2742 -0.3135 -0.4131
12249SOL     OW48724   1.596   5.688   1.566 -0.0522 -0.3454  0.1652
12249SOL    HW148725   1.509   5.689   1.526  0.4485  1.3066 -0.9504
12249SOL    HW248726   1.632   5.602   1.542 -1.5342 -1.2829  1.1026
12250SOL     OW48727   6.139   1.031   8.581  0.1050  0.4899 -0.1104
12250SOL    HW148728   6.114   1.120   8.604 -1.1964  0.0310  0.3534
12250SOL    HW248729   6.125   0.981   8.662  1.3566 -0.0378 -0.2028
12251SOL     OW48730   6.681   3.511  10.002 -0.1217 -0.0309 -0.3566
12251SOL    HW148731   6.604   3.502  10.058  0.2354 -1.0408 -0.0087
12251SOL    HW248732   6.754   3.486  10.058  0.5292  1.4014 -0.5334
12252SOL     OW48733   1.285   1.234   3.458 -0.3248 -0.5240  0.2705
12252SOL    HW148734   1.297   1.329   3.461  0.8803 -0.5956 -1.2506
12252SOL    HW248735   1.217   1.217   3.523 -0.7091  1.3962  0.4411
12253SOL     OW48736  10.166   4.545   4.941 -0.4098 -0.4091 -0.8720
12253SOL    HW148737  10.203   4.540   4.853  1.2633 -0.4060 -0.2110
12253SOL    HW248738  10.186   4.460   4.980  1.0262  0.4086  0.2781
12254SOL     OW48739   0.670   8.518   3.221 -0.3364  0.6406 -0.3994
12254SOL    HW148740   0.655   8.465   3.300  0.9648  0.2946 -0.3462
12254SOL    HW248741   0.691   8.453   3.153 -0.7476  0.9796 -0.8553
12255SOL     OW48742   9.456   7.599   8.175 -0.0750 -0.3184 -0.2859
12255SOL    HW148743   9.452   7.665   8.244 -0.9171  2.5224 -2.8602
12255SOL    HW248744   9.369   7.558   8.177 -0.7825  1.0744 -0.7942
12256SOL     OW48745   5.690   6.395   1.519 -0.1627 -0.1808  0.2523
12256SOL    HW148746   5.729   6.444   1.592  1.8411 -1.5214  0.1624
12256SOL    HW248747   5.764   6.371   1.464 -1.1137 -2.7044 -0.0524
12257SOL     OW48748   9.426   5.369   5.347 -0.6854 -0.0618 -0.1267
12257SOL    HW148749   9.490   5.321   5.295 -0.5007 -2.8021  2.3360
12257SOL    HW248750   9.478   5.417   5.412 -0.9831 -1.8657  1.5369
12258SOL     OW48751   9.517  10.163   0.287 -0.2536  0.3754  0.3456
12258SOL    HW148752   9.586  10.208   0.238 -2.2388  0.4683 -2.6561
12258SOL    HW248753   9.552  10.076   0.304  0.0498 -0.2794 -2.8708
12259SOL     OW48754   4.748   3.525   5.497  0.0180  0.0990  0.6081
12259SOL    HW148755   4.749   3.513   5.402 -1.0203 -1.5193  0.7611
12259SOL    HW248756   4.808   3.459   5.530  1.1018  1.2660  1.0590
12260SOL     OW48757   6.423   8.553   9.464  0.7201  0.2963  0.0107
12260SOL    HW148758   6.409   8.646   9.446  2.1267  0.3173 -1.1967
12260SOL    HW248759   6.336   8.515   9.465  0.1565  1.5422  0.0257
12261SOL     OW48760   6.560   5.249   7.625 -0.8439 -0.2429 -0.5046
12261SOL    HW148761   6.509   5.240   7.706 -1.7775  1.1713 -0.9012
12261SOL    HW248762   6.594   5.161   7.608 -0.9144 -0.6413  1.2259
12262SOL     OW48763   3.291   4.423   7.160  0.0129 -0.0149 -0.4426
12262SOL    HW148764   3.281   4.329   7.179 -0.5202  0.2762  0.8808
12262SOL    HW248765   3.210   4.447   7.114 -0.1847 -0.0691 -0.1315
12263SOL     OW48766   6.296   8.876   6.936 -0.2926 -0.5910 -0.3320
12263SOL    HW148767   6.215   8.863   6.986 -0.9625 -0.7427 -1.4269
12263SOL    HW248768   6.361   8.823   6.983 -0.4420  0.6710  1.4084
12264SOL     OW48769   8.401   4.447   9.314  0.4615 -0.9126 -0.1559
12264SOL    HW148770   8.339   4.374   9.322 -0.2784 -0.3269 -0.4292
12264SOL    HW248771   8.394   4.475   9.223  2.5851 -2.0814 -0.7293
12265SOL     OW48772   7.040   1.316   6.614 -0.6841  0.1825  0.2502
12265SOL    HW148773   7.095   1.392   6.597 -1.0106  0.9840  2.3614
12265SOL    HW248774   7.093   1.241   6.589 -0.8517  1.0565 -3.1871
12266SOL     OW48775   3.062   6.721  10.082 -0.3564 -0.4480 -0.2375
12266SOL    HW148776   3.120   6.645  10.076 -1.4762 -1.2131 -3.6883
12266SOL    HW248777   3.112   6.793  10.042 -0.6518 -0.3245 -0.3869
12267SOL     OW48778   2.924   1.696   7.930  0.4839  0.3075  1.0311
12267SOL    HW148779   3.006   1.686   7.977 -0.1717 -0.7058  2.0011
12267SOL    HW248780   2.927   1.628   7.862  0.2981  0.0029  1.3198
12268SOL     OW48781   4.958   5.072   4.797 -0.0390  0.0519 -0.3447
12268SOL    HW148782   4.864   5.089   4.802 -0.1787 -0.9149  0.5177
12268SOL    HW248783   4.995   5.120   4.872  0.0506 -0.2190 -0.2140
12269SOL     OW48784   5.361   1.601   8.578  0.5151 -0.4262 -0.2404
12269SOL    HW148785   5.338   1.615   8.670  4.1017 -0.1395  0.7762
12269SOL    HW248786   5.327   1.677   8.533 -0.7267 -0.2364  0.9432
12270SOL     OW48787   4.537   9.447   0.742 -0.0213  0.0906  0.1545
12270SOL    HW148788   4.449   9.433   0.707  0.5330 -0.7895 -0.9785
12270SOL    HW248789   4.588   9.480   0.668  0.4061  1.5105  1.0330
12271SOL     OW48790   1.473   0.617   4.910 -0.3984  0.3890 -0.2738
12271SOL    HW148791   1.390   0.661   4.927 -0.9249 -0.6841  0.0261
12271SOL    HW248792   1.527   0.639   4.986 -0.3125  1.2917 -0.5885
12272SOL     OW48793   3.624   8.414   2.132 -0.2107  0.0497 -0.1742
12272SOL    HW148794   3.563   8.411   2.206 -0.0516  0.5613 -0.0177
12272SOL    HW248795   3.666   8.499   2.140  1.1589 -0.6419  0.2323
12273SOL     OW48796   6.589   8.809   2.074  0.4099 -0.3113  0.2521
12273SOL    HW148797   6.606   8.902   2.090  0.8037 -0.4477  0.6148
12273SOL    HW248798   6.497   8.807   2.045  0.0991  0.0788  1.1824
12274SOL     OW48799   9.003   0.491   8.316  0.0891  0.1961 -0.2747
12274SOL    HW148800   8.999   0.576   8.359  0.3582  0.8503 -1.4755
12274SOL    HW248801   8.945   0.499   8.240  0.1311 -0.6822 -0.4162
12275SOL     OW48802   7.046   2.961   8.964  0.3769  0.2099 -0.8153
12275SOL    HW148803   6.986   2.980   8.893  1.0046  0.5027 -1.2787
12275SOL    HW248804   6.995   2.975   9.044 -1.8328 -4.4557 -1.0368
12276SOL     OW48805   0.985   7.473   3.409 -0.1102 -0.4756 -0.0875
12276SOL    HW148806   0.960   7.453   3.499  0.1544 -1.1841 -0.1665
12276SOL    HW248807   1.040   7.400   3.382  0.3238  0.0375 -0.6211
12277SOL     OW48808   2.720   6.855   0.287 -0.2920  0.0102 -0.4909
12277SOL    HW148809   2.689   6.879   0.374 -1.6363 -0.4414 -0.8301
12277SOL    HW248810   2.644   6.816   0.244  0.9109 -1.8128 -1.1056
12278SOL     OW48811   6.804   5.825   1.093  0.2558  0.3493  0.1303
12278SOL    HW148812   6.779   5.918   1.088  1.9581  0.8450  0.4345
12278SOL    HW248813   6.866   5.813   1.022 -1.2812 -1.0431 -1.0527
12279SOL     OW48814   2.801  10.358  10.386  0.6325 -0.1179 -0.1032
12279SOL    HW148815   2.805  10.411  10.465 -0.3603  0.1786 -0.2373
12279SOL    HW248816   2.791  10.268  10.418 -1.1580  0.1304  0.1328
12280SOL     OW48817   8.211   7.446   6.177  0.2683 -0.3016  0.4997
12280SOL    HW148818   8.141   7.392   6.141  0.7239 -1.0230  0.6764
12280SOL    HW248819   8.201   7.531   6.133  0.8554 -1.1803 -1.4147
12281SOL     OW48820   0.102   6.010   0.168  1.0108 -0.2322  0.0209
12281SOL    HW148821   0.097   6.094   0.214  0.2869 -0.9947  1.3734
12281SOL    HW248822   0.176   5.965   0.207  1.0447 -0.4679 -0.3122
12282SOL     OW48823   1.248  10.121   0.831  0.4327  0.1137 -0.1743
12282SOL    HW148824   1.182  10.164   0.777 -0.2887  0.3404  0.8588
12282SOL    HW248825   1.332  10.148   0.793  0.0028  2.3620  0.3877
12283SOL     OW48826   5.755   1.107   5.730  0.3920 -0.6106 -0.0759
12283SOL    HW148827   5.727   1.045   5.797 -0.1229 -0.7728 -0.4353
12283SOL    HW248828   5.778   1.051   5.655  2.3640 -0.5478  0.4287
12284SOL     OW48829   6.249   4.802   4.166  0.1380  0.0280  0.5119
12284SOL    HW148830   6.168   4.818   4.213  0.3622 -0.5292  1.0953
12284SOL    HW248831   6.270   4.710   4.184  1.6842  0.5636  1.5962
12285SOL     OW48832   4.777   4.303   5.565 -0.0843  0.4232  0.5380
12285SOL    HW148833   4.792   4.366   5.636  1.0776 -0.0912  0.7804
12285SOL    HW248834   4.724   4.351   5.501 -0.2470  1.2417  1.2702
12286SOL     OW48835   8.689   3.886   7.341 -0.3307  0.1211 -0.3875
12286SOL    HW148836   8.748   3.918   7.272 -0.1809 -0.2927 -0.4512
12286SOL    HW248837   8.706   3.792   7.346 -2.5729 -0.4751 -1.9989
12287SOL     OW48838   6.925   8.777   0.548  0.4874  0.4059  0.4717
12287SOL    HW148839   6.883   8.764   0.633 -0.4068  1.3771  0.2021
12287SOL    HW248840   6.996   8.712   0.546  1.8788  1.7263  2.7978
12288SOL     OW48841   2.633   1.516   9.493  0.1936 -0.1597  0.0535
12288SOL    HW148842   2.591   1.498   9.577  0.1146 -0.1664  0.0130
12288SOL    HW248843   2.564   1.501   9.428  0.1891  0.0649  0.0046
12289SOL     OW48844   9.604   1.340   9.896  0.5166 -0.1299 -0.4958
12289SOL    HW148845   9.582   1.406   9.831  0.9115 -0.5507 -1.0726
12289SOL    HW248846   9.521   1.298   9.918  0.4099 -0.1253 -0.8890
12290SOL     OW48847   0.895   4.350   7.483 -0.0375  0.6813  0.3235
12290SOL    HW148848   0.851   4.327   7.565  0.8509 -0.7980  0.4249
12290SOL    HW248849   0.824   4.376   7.424 -0.9442 -0.5968  0.8077
12291SOL     OW48850   8.108   1.777   9.904  0.1747 -0.3709  0.1007
12291SOL    HW148851   8.021   1.812   9.888  0.3913  0.2618  0.2715
12291SOL    HW248852   8.093   1.686   9.931 -0.3387 -0.7084 -1.2358
12292SOL     OW48853  10.105   5.394   8.314 -0.1551 -0.4694  0.7813
12292SOL    HW148854  10.025   5.373   8.362 -1.3896  1.6470 -0.2034
12292SOL    HW248855  10.075   5.409   8.224  1.5636 -0.8305  0.1077
12293SOL     OW48856   5.712   9.002   9.205  0.2922 -0.5173  0.4674
12293SOL    HW148857   5.758   8.920   9.220  1.6090 -0.0854 -0.9343
12293SOL    HW248858   5.779   9.061   9.170 -1.6362 -0.5540 -4.0454
12294SOL     OW48859   3.012   8.914   3.927  0.3200 -0.0712 -0.0047
12294SOL    HW148860   2.953   8.988   3.939 -1.8647 -1.7023  0.1054
12294SOL    HW248861   3.013   8.870   4.012 -0.1580 -1.3343 -0.6290
12295SOL     OW48862   0.186   5.447  10.063 -0.3635  0.2584 -0.1740
12295SOL    HW148863   0.264   5.476  10.110 -0.6090  0.2904  0.2192
12295SOL    HW248864   0.125   5.521  10.070 -0.3495  0.3236 -0.6758
12296SOL     OW48865   5.203   5.408   7.509  0.3468 -0.2559 -0.4629
12296SOL    HW148866   5.263   5.385   7.437  2.4018 -1.4126  1.4924
12296SOL    HW248867   5.254   5.468   7.563  0.0599 -1.8100  1.6284
12297SOL     OW48868   7.347   5.093   7.469 -0.0731 -0.7130 -0.6665
12297SOL    HW148869   7.372   5.132   7.553 -1.4106  0.4491 -0.7734
12297SOL    HW248870   7.341   4.999   7.488  0.1372 -0.5322  0.4001
12298SOL     OW48871   3.644   9.840   3.629  0.0121 -0.2457 -0.6700
12298SOL    HW148872   3.656   9.874   3.541  0.2816  1.3858 -0.0396
12298SOL    HW248873   3.691   9.757   3.630 -0.8741 -0.8102 -2.3439
12299SOL     OW48874   2.106   2.521   9.740 -0.6420  0.0321 -0.1909
12299SOL    HW148875   2.125   2.605   9.700 -2.0545 -0.2308 -1.5309
12299SOL    HW248876   2.175   2.509   9.805  0.1150  1.7827 -0.6056
12300SOL     OW48877   9.188   2.903   3.286  0.2114  0.1008  0.2621
12300SOL    HW148878   9.109   2.956   3.295 -0.3620 -0.5519 -0.8069
12300SOL    HW248879   9.246   2.956   3.231  0.5325  0.5812  1.0498
12301SOL     OW48880   4.437   6.910   2.205  0.3216  0.5223 -0.8869
12301SOL    HW148881   4.364   6.916   2.267  0.5181 -0.9237 -0.4873
12301SOL    HW248882   4.403   6.859   2.132  0.8151  0.1731 -0.8778
12302SOL     OW48883   1.056   1.217   6.957  0.4421  0.0370  0.1680
12302SOL    HW148884   1.036   1.166   6.879  0.3535 -0.4972  0.5300
12302SOL    HW248885   1.042   1.308   6.932  1.9344  0.0092 -0.8984
12303SOL     OW48886   0.634   8.312   3.454  0.5892  0.3781  0.2718
12303SOL    HW148887   0.627   8.318   3.550 -0.2897  2.3774  0.1465
12303SOL    HW248888   0.544   8.322   3.424  1.1428  3.1680 -0.8068
12304SOL     OW48889   8.533   5.598   8.894 -0.9508 -0.1467  0.0555
12304SOL    HW148890   8.559   5.684   8.859  1.6559 -1.5322 -1.8120
12304SOL    HW248891   8.571   5.596   8.982 -2.1974  1.0750  0.6511
12305SOL     OW48892   6.990   0.036   4.348 -0.2254 -0.0633  0.4633
12305SOL    HW148893   6.963  -0.053   4.325 -0.6815  0.2767 -0.3456
12305SOL    HW248894   6.908   0.080   4.374 -0.2431  0.5363 -0.5571
12306SOL     OW48895   9.902   8.319   2.113 -0.6797  0.0216 -0.3876
12306SOL    HW148896   9.836   8.296   2.047 -0.5006 -1.8325  0.0200
12306SOL    HW248897   9.919   8.236   2.159  2.3284  0.2982 -0.8377
12307SOL     OW48898   2.054  10.347   1.806  0.0084  0.0383 -0.3670
12307SOL    HW148899   2.026  10.338   1.897 -1.5418  0.5272 -0.7636
12307SOL    HW248900   2.110  10.271   1.791  0.0421 -0.2180  0.9003
12308SOL     OW48901   5.425   7.883   1.952  0.1161  0.3280  0.3448
12308SOL    HW148902   5.342   7.857   1.992  0.3933 -0.7325  0.2394
12308SOL    HW248903   5.492   7.846   2.009  0.5327  1.3978  0.5701
12309SOL     OW48904   2.762   3.261   7.063 -0.2847 -0.5962 -0.0594
12309SOL    HW148905   2.768   3.285   6.971 -2.2161  0.0119 -0.0602
12309SOL    HW248906   2.742   3.343   7.108 -0.4666 -1.0739  0.7546
12310SOL     OW48907   1.529   7.472   2.795 -0.0686 -0.2025  0.0460
12310SOL    HW148908   1.525   7.537   2.865  1.6677 -0.8683  0.8298
12310SOL    HW248909   1.465   7.406   2.819 -0.9189  0.5627 -0.0780
12311SOL     OW48910   1.326   1.601   7.771  0.3564 -0.0600 -0.3580
12311SOL    HW148911   1.392   1.556   7.825  1.1442  1.0774 -0.3435
12311SOL    HW248912   1.320   1.547   7.692 -0.5898 -1.5802  0.7010
12312SOL     OW48913   9.921   3.970   6.329  0.1209  0.1099 -0.0456
12312SOL    HW148914   9.996   3.933   6.283 -0.0508 -0.2878 -0.0059
12312SOL    HW248915   9.934   4.065   6.323  1.8724  0.0832  1.9733
12313SOL     OW48916   5.802   3.438   8.137  0.3681  0.7487  0.2532
12313SOL    HW148917   5.818   3.523   8.096 -0.0203  0.9033  0.4142
12313SOL    HW248918   5.825   3.451   8.229 -0.3966  0.8973  0.4319
12314SOL     OW48919   9.320   5.529   8.917  0.7639 -0.5493  0.8123
12314SOL    HW148920   9.312   5.435   8.899 -1.8774 -0.1516 -0.5266
12314SOL    HW248921   9.374   5.562   8.846 -0.5135 -0.6903 -0.2579
12315SOL     OW48922   6.808   0.166   9.289  0.7121  0.5178 -0.5693
12315SOL    HW148923   6.815   0.259   9.264  0.6916  0.2722 -1.5357
12315SOL    HW248924   6.730   0.161   9.343 -0.0173  0.8612 -1.5623
12316SOL     OW48925   3.276   8.362   9.758  0.3871 -0.9257 -0.4244
12316SOL    HW148926   3.206   8.301   9.736 -0.4535  0.3884 -1.5693
12316SOL    HW248927   3.314   8.387   9.674  0.6542  0.1881  0.0103
12317SOL     OW48928   3.511   6.266   0.967  0.5182  0.5719  0.2135
12317SOL    HW148929   3.587   6.257   1.024  0.5236  0.7509  0.2347
12317SOL    HW248930   3.469   6.348   0.994  0.7068  0.8247 -0.2532
12318SOL     OW48931   9.417  10.223   4.893  0.2541 -0.2368  0.9096
12318SOL    HW148932   9.417  10.209   4.987 -2.4118  3.5311  1.7050
12318SOL    HW248933   9.326  10.210   4.866  0.5786  0.5817 -0.7584
12319SOL     OW48934   2.633  10.120   0.138 -0.2836 -0.3553  0.3799
12319SOL    HW148935   2.608  10.171   0.061  1.5559  0.9074  0.5310
12319SOL    HW248936   2.665  10.037   0.102 -2.9003 -1.3472  0.1000
12320SOL     OW48937   9.882   1.896   0.542 -0.3182 -0.8699  0.6537
12320SOL    HW148938   9.843   1.893   0.630  0.0224 -0.3845  0.8249
12320SOL    HW248939   9.922   1.810   0.531  0.2102 -0.7080  1.2429
12321SOL     OW48940   7.341   4.835   5.953 -0.5700 -0.0942  0.2349
12321SOL    HW148941   7.419   4.802   5.996 -1.1890  1.8294  3.1426
12321SOL    HW248942   7.374   4.891   5.883  0.5611 -1.1501 -0.1084
12322SOL     OW48943   0.750   6.543   0.043  0.3929  0.6846  0.3662
12322SOL    HW148944   0.812   6.613   0.066  1.1758  0.4904 -1.0360
12322SOL    HW248945   0.753   6.483   0.117 -0.5081  2.2505  1.7330
12323SOL     OW48946   7.475   8.910   5.419 -0.2006 -0.1408 -0.1178
12323SOL    HW148947   7.439   8.892   5.506 -0.6946 -0.5111 -0.3967
12323SOL    HW248948   7.452   9.001   5.402  0.6712  0.2092  0.5096
12324SOL     OW48949   0.167   8.253   9.205  0.3422 -0.6191  0.0171
12324SOL    HW148950   0.155   8.204   9.287 -0.6032 -1.1722 -0.4300
12324SOL    HW248951   0.262   8.258   9.194  0.5075  0.2642  1.6102
12325SOL     OW48952   1.383   2.014   1.179  0.7512  0.3680  0.8954
12325SOL    HW148953   1.386   2.009   1.274  0.9896  0.0191  0.8715
12325SOL    HW248954   1.311   1.957   1.154 -0.3645  1.6908  0.9486
12326SOL     OW48955   1.022   3.957   8.232 -0.2363 -0.4257  0.0274
12326SOL    HW148956   0.942   3.914   8.263  0.8661 -3.8143 -1.3565
12326SOL    HW248957   1.087   3.939   8.301  0.1996 -0.7976 -0.4750
12327SOL     OW48958   6.480   7.547  10.123  0.2322 -0.1014  0.8188
12327SOL    HW148959   6.504   7.460  10.092  1.3844  0.2719  0.6280
12327SOL    HW248960   6.527   7.557  10.206  0.6738  0.6031  0.4945
12328SOL     OW48961   9.557   8.614   7.908 -0.5413  0.5057  0.4953
12328SOL    HW148962   9.486   8.584   7.964 -0.5824  0.6225  0.5049
12328SOL    HW248963   9.637   8.592   7.956 -0.5898  1.4990  1.0505
12329SOL     OW48964   8.209   7.690  10.217  0.7517 -0.2535  0.1490
12329SOL    HW148965   8.220   7.713  10.309  0.1932  1.2267 -0.1323
12329SOL    HW248966   8.290   7.643  10.195  0.8126 -0.8125  1.4217
12330SOL     OW48967   1.399   5.596   0.895 -0.5253  0.0347 -0.8804
12330SOL    HW148968   1.478   5.643   0.923 -0.4186 -0.0986 -0.9542
12330SOL    HW248969   1.330   5.662   0.894 -0.5895 -0.0092 -0.0481
12331SOL     OW48970   4.708  10.004   9.889  0.3893 -0.9425 -0.4056
12331SOL    HW148971   4.799   9.985   9.866  0.3167 -0.6759 -0.9406
12331SOL    HW248972   4.704  10.100   9.892 -0.6554 -0.7400 -3.8961
12332SOL     OW48973   8.864   6.989   3.196  0.5602  0.2492 -0.1670
12332SOL    HW148974   8.912   7.069   3.174 -0.2467  0.5466 -0.9479
12332SOL    HW248975   8.820   7.010   3.278  1.4098  0.1336  0.3168
12333SOL     OW48976   2.672   4.618  10.139  0.1526 -0.2545 -0.1751
12333SOL    HW148977   2.604   4.612  10.207  0.6341  0.1078  0.3450
12333SOL    HW248978   2.653   4.544  10.081 -1.0598  0.2020 -0.3858
12334SOL     OW48979   7.863   7.412   9.562 -0.6121  0.2121 -0.6923
12334SOL    HW148980   7.848   7.499   9.526 -0.3241  0.5478 -0.0337
12334SOL    HW248981   7.926   7.426   9.633 -0.6565 -0.5146 -0.4951
12335SOL     OW48982   8.726  10.047   6.825 -0.2218  0.2378  0.2984
12335SOL    HW148983   8.635  10.075   6.833 -0.1945 -0.1084  2.8443
12335SOL    HW248984   8.746  10.054   6.732 -2.7228  0.6763 -0.2692
12336SOL     OW48985   3.139   1.651   5.754  0.7131 -0.6794 -0.0929
12336SOL    HW148986   3.201   1.678   5.822  0.6385 -1.2453  0.2067
12336SOL    HW248987   3.187   1.664   5.672  0.1413  1.8390 -0.1032
12337SOL     OW48988   4.954   2.138   6.250  0.3160 -1.1848  0.4346
12337SOL    HW148989   4.865   2.170   6.236  0.9615 -0.3949 -2.2891
12337SOL    HW248990   4.955   2.110   6.342 -1.9039  1.3933  1.3658
12338SOL     OW48991   1.100   3.065   8.994  0.3071  0.6490  0.0698
12338SOL    HW148992   1.111   3.122   9.070 -4.0997  1.8971  0.0272
12338SOL    HW248993   1.063   2.984   9.029 -0.2664  0.6233 -0.5722
12339SOL     OW48994   5.362   3.317   5.368 -0.4869 -0.2855 -0.4696
12339SOL    HW148995   5.340   3.347   5.456 -1.1669 -0.0452 -0.7180
12339SOL    HW248996   5.440   3.368   5.345 -2.1930  2.1482 -1.2828
12340SOL     OW48997   9.549   2.030   6.286 -0.0299 -0.7572  0.2483
12340SOL    HW148998   9.602   1.951   6.279  1.5910 -0.1666  3.7524
12340SOL    HW248999   9.612   2.101   6.296 -1.4270  0.3266  1.9512
12341SOL     OW49000   7.033   4.583   0.463  0.1274 -0.6858 -0.2644
12341SOL    HW149001   7.015   4.518   0.531  0.3340  0.0355  0.4933
12341SOL    HW249002   7.100   4.640   0.502  0.4565 -0.4370 -1.1841
12342SOL     OW49003   7.665   5.931   2.437 -0.1176  0.4418 -0.2535
12342SOL    HW149004   7.604   5.948   2.508 -0.2581 -0.3775 -0.1611
12342SOL    HW249005   7.611   5.929   2.358 -0.1737  0.0314 -0.2101
12343SOL     OW49006   5.457   2.388   9.225 -0.4366 -0.3989  0.4452
12343SOL    HW149007   5.450   2.322   9.294 -0.0354 -2.0509 -1.0224
12343SOL    HW249008   5.444   2.339   9.143  0.7862  1.1883 -0.7623
12344SOL     OW49009   5.730   8.844   2.231 -0.3923  0.1661 -0.3492
12344SOL    HW149010   5.672   8.915   2.201 -0.5014  0.1015 -0.2930
12344SOL    HW249011   5.670   8.778   2.265 -0.2365  0.6117  0.8379
12345SOL     OW49012   6.837   1.233   5.578  0.8401  0.0021 -0.0167
12345SOL    HW149013   6.762   1.276   5.538  0.3229 -1.5165 -0.7675
12345SOL    HW249014   6.858   1.287   5.655 -1.7657 -0.1759  0.9130
12346SOL     OW49015  10.328   3.423   9.880  0.2683 -0.3526 -0.2003
12346SOL    HW149016  10.390   3.490   9.910  0.3646 -1.2223  1.6732
12346SOL    HW249017  10.336   3.424   9.785  3.3881 -0.6118 -0.0320
12347SOL     OW49018   6.837   1.123   0.275  0.0281 -0.5583 -0.7543
12347SOL    HW149019   6.919   1.092   0.313 -0.6751  0.6939  2.1412
12347SOL    HW249020   6.854   1.214   0.251 -1.0176  0.5883  2.2897
12348SOL     OW49021   4.841   8.915   7.381 -0.7490 -0.5796  0.7841
12348SOL    HW149022   4.908   8.982   7.395 -0.8203 -0.2943 -0.1683
12348SOL    HW249023   4.873   8.863   7.307 -2.1432  0.3322 -0.5156
12349SOL     OW49024   5.567   8.250   6.271 -0.3292 -0.1952  0.7590
12349SOL    HW149025   5.538   8.172   6.224  1.1052 -0.5130  0.3710
12349SOL    HW249026   5.611   8.217   6.349  0.2027  0.2169  0.6408
12350SOL     OW49027   6.440  10.082   2.284  0.5280 -0.1964  0.0865
12350SOL    HW149028   6.431  10.088   2.189 -1.0830 -0.2118  0.1962
12350SOL    HW249029   6.430  10.172   2.314  6.3636  0.8568  0.0371
12351SOL     OW49030   4.145   9.725   1.701  0.2033  0.4835 -0.3165
12351SOL    HW149031   4.228   9.750   1.739 -0.1172  0.5032  0.3751
12351SOL    HW249032   4.107   9.808   1.670 -0.2378  0.6898  0.7382
12352SOL     OW49033   9.355   1.246   9.936 -0.2210 -0.4742 -0.6491
12352SOL    HW149034   9.303   1.176   9.897  1.1497 -1.8858 -0.0306
12352SOL    HW249035   9.383   1.211  10.021  1.2597  0.4687 -0.7175
12353SOL     OW49036   1.389   7.317   2.388  0.0221  0.0493  0.1221
12353SOL    HW149037   1.358   7.338   2.300  1.2855  0.7717 -0.1808
12353SOL    HW249038   1.444   7.240   2.377 -0.5961 -0.4432  0.4432
12354SOL     OW49039   3.517  10.098   4.079 -0.1361  0.5763  0.8909
12354SOL    HW149040   3.590  10.132   4.131  1.4953 -0.0906 -0.8212
12354SOL    HW249041   3.533  10.131   3.990 -1.7568  0.1405  0.4034
12355SOL     OW49042   1.257   8.180   0.816  0.6616  0.4797 -0.2087
12355SOL    HW149043   1.343   8.200   0.779  1.0346 -0.4884  0.1287
12355SOL    HW249044   1.210   8.263   0.812  1.4421  0.9032 -0.8482
12356SOL     OW49045   1.667   7.599   0.922  0.6571  0.2670  0.5361
12356SOL    HW149046   1.628   7.641   0.999  2.0296  0.3837  1.1978
12356SOL    HW249047   1.681   7.508   0.950  1.2060  0.3222  0.4413
12357SOL     OW49048   4.700   8.391   3.014  0.8576  0.2664 -0.0556
12357SOL    HW149049   4.684   8.359   3.102  1.1343  2.6006  0.9266
12357SOL    HW249050   4.629   8.453   2.998  0.9386  0.0426 -1.4093
12358SOL     OW49051   0.743   7.053   5.940 -0.3945 -0.5764  0.2982
12358SOL    HW149052   0.836   7.072   5.948 -0.9049  2.8858 -0.3622
12358SOL    HW249053   0.705   7.084   6.023 -1.0707 -0.9213  0.1281
12359SOL     OW49054   1.805   4.509   3.915  0.2568 -0.3739  0.7248
12359SOL    HW149055   1.806   4.476   4.005  0.4439  0.0598  0.8820
12359SOL    HW249056   1.740   4.579   3.915  0.1110 -0.5058  0.4721
12360SOL     OW49057   4.452   8.952   8.415  0.2740 -0.2265  0.0040
12360SOL    HW149058   4.452   9.032   8.362 -2.6235  0.8159  1.3599
12360SOL    HW249059   4.542   8.943   8.445  1.0209  1.6450 -1.4719
12361SOL     OW49060   4.274   3.951   0.836  0.0655 -0.2093  0.2809
12361SOL    HW149061   4.262   3.866   0.878 -0.7686 -0.5663 -0.6349
12361SOL    HW249062   4.190   3.995   0.847  0.2919  0.2434  0.2004
12362SOL     OW49063   8.200   0.661   4.656  0.0855 -0.1692 -0.5903
12362SOL    HW149064   8.235   0.585   4.610 -0.8500 -1.1648  0.2791
12362SOL    HW249065   8.126   0.690   4.602 -1.7595 -2.0510  0.7346
12363SOL     OW49066   3.189   6.912   9.891  0.5072  0.1026 -0.1118
12363SOL    HW149067   3.163   6.929   9.800  0.5588 -1.2061 -0.4000
12363SOL    HW249068   3.215   6.819   9.891 -0.5063 -0.2143  1.4745
12364SOL     OW49069   5.989   1.692   0.409  0.2829  0.1853  0.6090
12364SOL    HW149070   6.023   1.752   0.475 -0.7699  0.5413  0.8513
12364SOL    HW249071   5.921   1.642   0.455 -0.3433  0.3158 -0.1515
12365SOL     OW49072   3.534   8.490   5.857  0.1726  0.0530  0.0792
12365SOL    HW149073   3.492   8.560   5.807 -1.3662 -1.6108 -1.1039
12365SOL    HW249074   3.592   8.447   5.794  1.8452  0.7931  1.0476
12366SOL     OW49075   7.970   6.468   4.108 -0.6206 -0.6282 -0.3223
12366SOL    HW149076   8.022   6.499   4.182 -0.0332 -1.6332 -0.2915
12366SOL    HW249077   7.953   6.546   4.056 -0.5598  0.0003  0.5806
12367SOL     OW49078   8.831   0.594   1.856 -0.1463 -0.5331 -0.0389
12367SOL    HW149079   8.790   0.665   1.906  1.1741 -1.5600  2.7237
12367SOL    HW249080   8.770   0.521   1.864 -0.3301 -0.4571 -0.7110
12368SOL     OW49081   3.725   6.684   0.736  0.5576  0.0118 -0.2977
12368SOL    HW149082   3.696   6.741   0.665 -0.1139 -1.6166 -1.3875
12368SOL    HW249083   3.820   6.693   0.737  0.9825 -2.3662 -3.6964
12369SOL     OW49084   0.196   0.873   7.404  0.1325  0.0979 -0.9449
12369SOL    HW149085   0.101   0.879   7.394 -0.2114 -2.0755  0.3557
12369SOL    HW249086   0.215   0.920   7.485 -0.0883 -0.7855 -0.3618
12370SOL     OW49087   9.604   0.422   0.054 -0.2051 -0.0821  0.2971
12370SOL    HW149088   9.540   0.366   0.098 -1.5944  1.0361 -0.2440
12370SOL    HW249089   9.679   0.364   0.038 -1.7190 -1.9155 -0.5914
12371SOL     OW49090   9.978   9.231   5.057 -0.6103  0.2451 -0.0599
12371SOL    HW149091   9.986   9.281   5.139 -1.8056  2.8559 -1.4054
12371SOL    HW249092   9.906   9.170   5.074 -1.8960  1.8128  0.4140
12372SOL     OW49093   6.526   0.337   6.352 -0.1533 -0.5360 -0.2005
12372SOL    HW149094   6.514   0.351   6.259 -0.8628 -1.1777 -0.2130
12372SOL    HW249095   6.511   0.243   6.365  0.4647 -0.5558  0.4789
12373SOL     OW49096   0.544   8.534   1.593 -0.4922  0.5489  0.0975
12373SOL    HW149097   0.534   8.480   1.515  0.8268  0.2354  0.1197
12373SOL    HW249098   0.456   8.570   1.609 -0.8464  0.4190 -1.3731
12374SOL     OW49099   1.461   8.315   1.040  0.0473 -0.2214 -0.1435
12374SOL    HW149100   1.395   8.360   0.989  0.1335  0.0658 -0.0023
12374SOL    HW249101   1.535   8.376   1.044  0.7707 -0.9715 -1.2685
12375SOL     OW49102   9.170   5.563   7.830  0.4002  0.1672 -0.7682
12375SOL    HW149103   9.234   5.502   7.865  1.8063  1.1919 -1.4577
12375SOL    HW249104   9.159   5.537   7.739 -0.1428  0.0156 -0.6604
12376SOL     OW49105   1.727   4.790   9.983 -0.7874  0.4650 -0.1307
12376SOL    HW149106   1.686   4.703   9.980  0.7157 -0.5978  3.9308
12376SOL    HW249107   1.671   4.841  10.041  0.5260  0.8182  0.8679
12377SOL     OW49108   2.718   7.344   1.786  0.2970  0.1989  0.3817
12377SOL    HW149109   2.655   7.296   1.839 -0.5074  1.0297  0.1890
12377SOL    HW249110   2.683   7.340   1.697  2.0143 -1.8378 -0.3034
12378SOL     OW49111   6.535   5.504  10.194  0.7408  0.3245  0.0571
12378SOL    HW149112   6.584   5.564  10.251  1.8326 -0.4923  0.0226
12378SOL    HW249113   6.562   5.417  10.223  0.7212 -0.1155 -1.2019
12379SOL     OW49114   7.312   1.651   3.674  0.1714 -0.5106  0.3238
12379SOL    HW149115   7.262   1.571   3.693  0.9521 -1.0784 -0.0074
12379SOL    HW249116   7.352   1.635   3.589  1.5966 -0.3986  0.9556
12380SOL     OW49117   1.606   3.377   5.624 -0.3659 -0.3524  0.1429
12380SOL    HW149118   1.631   3.466   5.648  1.3915 -1.0872  1.2877
12380SOL    HW249119   1.665   3.354   5.552  1.4504 -1.6071  1.9089
12381SOL     OW49120   7.432   1.957   7.639 -0.1872  0.2090  0.7565
12381SOL    HW149121   7.357   1.909   7.604 -0.4668  0.7849  0.5639
12381SOL    HW249122   7.507   1.919   7.592 -0.4584  0.3011  0.2425
12382SOL     OW49123   3.552   2.612   6.933  0.0490  0.4240  0.2856
12382SOL    HW149124   3.561   2.603   7.028 -0.3691  0.5338  0.3346
12382SOL    HW249125   3.523   2.525   6.904 -1.0499  0.7370  0.4087
12383SOL     OW49126   8.055   8.687   5.110  0.6042 -0.0439  0.0481
12383SOL    HW149127   8.137   8.694   5.159  0.9071 -1.2079 -0.2684
12383SOL    HW249128   7.990   8.663   5.176  0.7105 -0.0674  0.1443
12384SOL     OW49129   2.105   9.879   9.502 -0.0563 -0.2571 -0.1334
12384SOL    HW149130   2.016   9.876   9.466  0.2386  1.7024 -1.1906
12384SOL    HW249131   2.136   9.789   9.497 -2.2574 -1.1682  1.0699
12385SOL     OW49132   3.050   9.793   9.753 -0.0748  0.0947  0.3963
12385SOL    HW149133   3.098   9.835   9.682 -0.3371  0.1492  0.2509
12385SOL    HW249134   3.029   9.706   9.721  0.0685  0.0129  0.5228
12386SOL     OW49135   3.973   1.360   0.731  0.0950 -0.0209 -0.3362
12386SOL    HW149136   3.975   1.265   0.716  0.4496 -0.2576  1.1062
12386SOL    HW249137   4.015   1.397   0.653 -0.0743 -1.0384 -0.9344
12387SOL     OW49138   2.529   4.829   9.403 -0.5712  0.5101  0.0187
12387SOL    HW149139   2.553   4.865   9.488  0.9919 -1.0977  0.3264
12387SOL    HW249140   2.590   4.757   9.390 -1.4376  0.0788 -2.0251
12388SOL     OW49141   2.769   5.334   6.312 -0.4213 -0.0803  0.4869
12388SOL    HW149142   2.833   5.309   6.378 -0.3889 -0.1552  0.4264
12388SOL    HW249143   2.704   5.385   6.361  0.8279  1.9468  0.1684
12389SOL     OW49144   4.066   7.756   4.625  0.1410 -0.9574  0.3039
12389SOL    HW149145   4.071   7.726   4.535  0.2692 -0.4022  0.1264
12389SOL    HW249146   4.017   7.686   4.670 -0.4410 -0.9566 -0.3112
12390SOL     OW49147   4.271   6.331   9.872  0.3848 -0.4067 -0.1483
12390SOL    HW149148   4.359   6.366   9.856 -0.0088 -0.1264 -2.0087
12390SOL    HW249149   4.235   6.316   9.784 -1.3400 -0.7353  0.5661
12391SOL     OW49150   2.385   6.345   7.617 -0.3379 -0.7699 -0.1095
12391SOL    HW149151   2.347   6.398   7.548 -0.7385  1.3058  1.6049
12391SOL    HW249152   2.312   6.324   7.675  0.3080 -0.8433  0.6921
12392SOL     OW49153   0.341   5.689   0.355  0.2535  0.0725 -0.3925
12392SOL    HW149154   0.322   5.629   0.427  0.8289  0.7501  0.3317
12392SOL    HW249155   0.255   5.726   0.331 -0.0147 -0.5604 -0.4383
12393SOL     OW49156   9.768   7.975   3.055  0.0491 -0.7469  0.3121
12393SOL    HW149157   9.698   7.942   3.000  0.6717 -0.4515 -0.6802
12393SOL    HW249158   9.740   7.955   3.144 -2.7731  2.0224  0.2409
12394SOL     OW49159   1.179   2.366   1.273 -0.0035 -0.9285  0.4633
12394SOL    HW149160   1.262   2.354   1.227 -0.0400 -0.6433  0.3209
12394SOL    HW249161   1.115   2.382   1.203  0.0450  0.1015  0.6405
12395SOL     OW49162   3.757   6.206   1.937  0.1231  0.2840  0.0082
12395SOL    HW149163   3.849   6.232   1.936  0.5719 -1.2149 -0.9968
12395SOL    HW249164   3.745   6.159   1.854 -1.4871  0.2293  0.2438
12396SOL     OW49165   8.331   9.550   0.114  0.2937 -0.2884  0.1997
12396SOL    HW149166   8.255   9.594   0.152  0.4022  1.6330 -1.6136
12396SOL    HW249167   8.319   9.559   0.020  2.3967 -0.5856 -0.1403
12397SOL     OW49168   8.907   9.972   6.996  0.5168 -0.0139 -1.0328
12397SOL    HW149169   8.838  10.009   6.941  0.0146 -0.5752 -0.7895
12397SOL    HW249170   8.870   9.974   7.085  1.5303  1.4253 -0.6064
12398SOL     OW49171   1.299   4.632   7.109  0.8215 -0.0518  0.3143
12398SOL    HW149172   1.286   4.538   7.120  2.8924 -0.0973  3.6705
12398SOL    HW249173   1.363   4.640   7.038  0.4883 -1.1311 -0.1196
12399SOL     OW49174   9.776   8.112   7.289  0.2931  0.4074 -0.3085
12399SOL    HW149175   9.812   8.115   7.200  0.0380 -0.0382 -0.4250
12399SOL    HW249176   9.824   8.042   7.332  1.1869  1.3233  0.2501
12400SOL     OW49177   5.634  10.336   8.937  0.6580 -0.6825 -1.2063
12400SOL    HW149178   5.729  10.323   8.945  0.8816 -0.1759 -2.6728
12400SOL    HW249179   5.620  10.349   8.843 -1.1951 -3.2310 -1.3771
12401SOL     OW49180   5.671   8.040   5.706  0.7391 -0.7428  0.2690
12401SOL    HW149181   5.616   7.986   5.648 -0.8819  0.0950  0.9776
12401SOL    HW249182   5.613   8.066   5.778  1.6351  1.4432  0.2810
12402SOL     OW49183   7.147   6.689   2.210 -0.0513  1.0538  0.7021
12402SOL    HW149184   7.167   6.716   2.121 -0.2008 -1.6982 -0.2763
12402SOL    HW249185   7.056   6.660   2.208  0.5317 -1.0479  1.1107
12403SOL     OW49186   1.886   2.419   8.654  0.8841  0.4142 -0.2328
12403SOL    HW149187   1.841   2.404   8.737 -0.9757  1.5306 -0.9737
12403SOL    HW249188   1.834   2.369   8.590  2.0027 -0.0363 -0.8123
12404SOL     OW49189   3.929   1.122   4.144 -0.3508  0.2817  0.2742
12404SOL    HW149190   3.879   1.049   4.181  0.6706  0.2587  1.6874
12404SOL    HW249191   3.980   1.083   4.072 -0.4722 -0.2143  0.4576
12405SOL     OW49192   2.079   4.296   6.299  0.7878  0.0719  0.9771
12405SOL    HW149193   2.057   4.364   6.236  1.1561 -0.8813 -0.2101
12405SOL    HW249194   2.145   4.242   6.255 -1.3569 -2.6339  0.7710
12406SOL     OW49195   6.112   8.426   6.620 -0.7138  0.3087  0.7629
12406SOL    HW149196   6.081   8.513   6.644 -0.2788 -0.1105  3.1389
12406SOL    HW249197   6.141   8.434   6.529 -1.2657  2.4578  0.7328
12407SOL     OW49198   6.063   8.576   0.270 -0.1098 -0.1224  0.3491
12407SOL    HW149199   6.130   8.608   0.210 -0.7328  1.3957  0.4369
12407SOL    HW249200   6.001   8.530   0.214  0.5449 -0.8255  0.1667
12408SOL     OW49201   7.743   2.443   9.852 -0.1481  0.2990 -0.1866
12408SOL    HW149202   7.683   2.372   9.826  0.2787  0.2636 -1.0984
12408SOL    HW249203   7.790   2.407   9.928  3.1728 -2.2112 -3.1248
12409SOL     OW49204   0.016   1.762  10.005  0.2092 -0.4196  0.2161
12409SOL    HW149205  -0.028   1.807   9.933  0.1963 -0.3864  0.2449
12409SOL    HW249206  -0.056   1.719  10.053  0.0109  0.9614  1.2211
12410SOL     OW49207   6.854   4.844   0.438  0.3494  0.8137 -0.7864
12410SOL    HW149208   6.809   4.762   0.456  1.8711  0.5619  2.6181
12410SOL    HW249209   6.919   4.822   0.371 -0.5487 -0.2556 -1.3210
12411SOL     OW49210   0.695   1.010   0.247  0.0026 -0.1624 -0.3086
12411SOL    HW149211   0.711   1.013   0.341 -1.6772  0.3737 -0.0135
12411SOL    HW249212   0.773   0.967   0.211 -0.2458 -2.3839  1.5481
12412SOL     OW49213   6.796   6.677   6.377 -0.4516  0.3434  0.1129
12412SOL    HW149214   6.803   6.711   6.466 -0.8373  1.1694 -0.1697
12412SOL    HW249215   6.725   6.727   6.337 -0.5062 -0.2531 -0.5559
12413SOL     OW49216   9.211   2.086   0.251 -0.1336 -0.6082  0.2614
12413SOL    HW149217   9.278   2.020   0.229  0.6108  0.9881 -2.7370
12413SOL    HW249218   9.152   2.087   0.176 -0.3687  1.8171  0.4093
12414SOL     OW49219   1.778   5.850   0.243 -0.4833 -0.5146 -0.5324
12414SOL    HW149220   1.827   5.864   0.162 -1.2311 -1.4555 -1.1594
12414SOL    HW249221   1.713   5.784   0.221 -2.4109  1.0657  0.1272
12415SOL     OW49222   8.677   7.733   0.608  0.2298 -0.1595  0.1273
12415SOL    HW149223   8.770   7.755   0.597  0.1529 -0.1477 -0.5745
12415SOL    HW249224   8.634   7.779   0.535 -0.1895 -1.0187 -0.1715
12416SOL     OW49225   3.037   4.209   1.198  0.1425  0.4368  0.3046
12416SOL    HW149226   3.050   4.189   1.105  1.8884 -0.1203  0.6248
12416SOL    HW249227   2.944   4.230   1.205 -0.1027  0.1566 -1.5047
12417SOL     OW49228   3.112   8.209   7.700  0.3308  0.2148  0.2312
12417SOL    HW149229   3.190   8.246   7.742  1.1069 -0.3686 -0.6876
12417SOL    HW249230   3.072   8.155   7.768  0.4212  0.9381  0.8765
12418SOL     OW49231   6.477   2.321   4.677  0.0364 -0.6098 -0.1177
12418SOL    HW149232   6.440   2.248   4.726  0.9009 -1.6857 -1.0098
12418SOL    HW249233   6.567   2.294   4.658  0.4609  0.8013 -0.2681
12419SOL     OW49234   4.638   2.806   0.899  0.0430  0.0738 -0.3381
12419SOL    HW149235   4.593   2.724   0.917 -1.3642  0.8743 -0.0814
12419SOL    HW249236   4.665   2.800   0.807  0.1117 -0.7360 -0.2695
12420SOL     OW49237   6.141   1.651   1.855  0.0395 -0.2501  0.7067
12420SOL    HW149238   6.216   1.611   1.900  2.6928  2.8731 -0.5493
12420SOL    HW249239   6.163   1.645   1.762 -1.1953  0.8723  0.3188
12421SOL     OW49240   0.520   7.530   1.786  0.3194 -0.2903 -0.2634
12421SOL    HW149241   0.602   7.579   1.796  0.7878 -0.8035 -1.3582
12421SOL    HW249242   0.456   7.578   1.838  1.1065  0.6429 -0.1323
12422SOL     OW49243   5.438   0.563   6.532  0.3011  0.5160  0.4072
12422SOL    HW149244   5.425   0.516   6.450 -1.7867  0.8213  0.5088
12422SOL    HW249245   5.484   0.643   6.507  0.3480  0.2602 -0.3425
12423SOL     OW49246   1.593   5.581   4.069  0.3017 -0.5009  0.3567
12423SOL    HW149247   1.672   5.535   4.042 -0.6652 -1.2900 -1.2878
12423SOL    HW249248   1.618   5.673   4.070  1.8608 -0.8948  2.2213
12424SOL     OW49249   9.323   1.746   3.802  0.2281 -0.1329  0.3504
12424SOL    HW149250   9.368   1.751   3.718 -2.8736  2.2314 -1.3851
12424SOL    HW249251   9.308   1.837   3.826 -3.5175 -0.6865  0.6937
12425SOL     OW49252   4.820   5.760   9.361  0.0465 -0.0819 -0.0495
12425SOL    HW149253   4.836   5.775   9.268 -0.4003 -0.7689 -0.2427
12425SOL    HW249254   4.725   5.749   9.368 -0.1574  1.8615  0.7820
12426SOL     OW49255   2.206   8.907   2.059 -0.7361 -0.1636  0.3807
12426SOL    HW149256   2.277   8.849   2.084 -0.1293 -0.3146 -1.5299
12426SOL    HW249257   2.249   8.988   2.032 -1.3437  0.0084 -0.0886
12427SOL     OW49258   1.800  10.174   0.782  0.1800 -0.0557  0.2666
12427SOL    HW149259   1.832  10.109   0.844 -0.7862  0.2141  1.0731
12427SOL    HW249260   1.859  10.167   0.707  2.3375  0.6747  1.8137
12428SOL     OW49261   7.681   8.549   6.588  0.3908  0.1597 -0.5788
12428SOL    HW149262   7.592   8.540   6.622  0.3284 -0.4112 -0.8729
12428SOL    HW249263   7.724   8.608   6.649 -0.5132  1.3670 -1.0581
12429SOL     OW49264   9.182   6.404   6.709 -0.4398  0.4030 -0.1272
12429SOL    HW149265   9.174   6.331   6.647  1.1403  1.0642 -1.1413
12429SOL    HW249266   9.203   6.362   6.793 -0.4259 -0.3481 -0.5037
12430SOL     OW49267   7.017   1.601   1.767  0.4169 -0.3746  0.1164
12430SOL    HW149268   6.976   1.532   1.819 -1.6473  0.7076  0.0503
12430SOL    HW249269   7.055   1.555   1.692  0.7909 -1.6182  1.0360
12431SOL     OW49270   9.610   0.851   6.976  0.6751  0.4026  0.0039
12431SOL    HW149271   9.544   0.811   6.919  1.8655 -1.3359 -0.2223
12431SOL    HW249272   9.669   0.897   6.917 -0.0978  1.6842  0.1819
12432SOL     OW49273   9.561   0.653   2.944  0.3463  0.4360  0.1607
12432SOL    HW149274   9.595   0.596   2.875  0.6098  2.2001 -1.2535
12432SOL    HW249275   9.618   0.637   3.019  0.9163 -0.5265 -0.4547
12433SOL     OW49276   4.977   5.042   5.213  0.0619 -0.3664  0.0503
12433SOL    HW149277   5.028   5.037   5.294 -0.7162  0.5681  0.6145
12433SOL    HW249278   5.025   5.103   5.158  1.3346 -2.0276 -0.7796
12434SOL     OW49279   3.605   7.420   2.053 -0.5538 -0.1965 -0.5033
12434SOL    HW149280   3.677   7.396   2.111  1.3684 -0.1391 -2.7134
12434SOL    HW249281   3.578   7.507   2.084  1.0918  0.2717 -0.2858
12435SOL     OW49282   7.786   2.174   9.544  0.2097  0.0211  0.5167
12435SOL    HW149283   7.725   2.119   9.496  0.4851  0.5199 -0.4184
12435SOL    HW249284   7.829   2.114   9.605 -1.7328 -0.2192  1.7676
12436SOL     OW49285   7.749   3.860   4.166  0.4129  0.1517  0.2392
12436SOL    HW149286   7.708   3.945   4.151  1.2090  0.7013  1.0198
12436SOL    HW249287   7.842   3.880   4.179  0.5378 -0.7701  0.9292
12437SOL     OW49288   7.611   8.480   1.611 -0.1506  0.9903  0.4002
12437SOL    HW149289   7.596   8.465   1.704  0.7578  0.1287  0.4331
12437SOL    HW249290   7.702   8.511   1.606  0.9185 -1.9568 -0.4029
12438SOL     OW49291   2.072  10.129   2.253 -0.3276 -0.0654 -0.1214
12438SOL    HW149292   1.998  10.119   2.313 -0.5343 -1.1736 -0.5314
12438SOL    HW249293   2.146  10.091   2.300 -0.4304 -0.6783 -0.4422
12439SOL     OW49294   5.711   1.313   8.022  0.2135  0.0648 -0.3474
12439SOL    HW149295   5.691   1.260   7.945  1.1816  0.4979 -0.9132
12439SOL    HW249296   5.807   1.318   8.024  0.1783  0.6462  0.4802
12440SOL     OW49297   8.824   8.961   7.052 -0.3485  0.0559  0.0539
12440SOL    HW149298   8.825   8.890   7.116  1.4478 -0.6579 -0.7142
12440SOL    HW249299   8.732   8.989   7.049 -0.7480 -0.9112  1.7851
12441SOL     OW49300   8.724   3.341   4.929  0.2439  0.0589  0.1761
12441SOL    HW149301   8.726   3.362   4.836 -2.4162  0.6374  0.1601
12441SOL    HW249302   8.780   3.264   4.938  0.1050 -0.3536 -2.0011
12442SOL     OW49303   0.861   2.369   1.443 -0.1297  0.4553  0.4743
12442SOL    HW149304   0.808   2.437   1.400 -0.4247  0.6432  1.1269
12442SOL    HW249305   0.868   2.300   1.377 -1.8694  0.0724  0.6380
12443SOL     OW49306  10.106   5.385   4.495  0.3052 -0.3223  0.0552
12443SOL    HW149307  10.101   5.382   4.400  0.4028 -2.1434  0.0638
12443SOL    HW249308  10.181   5.328   4.517 -0.9769 -1.6416  1.2606
12444SOL     OW49309   3.275   8.963   8.593 -0.6533  0.7259 -0.0729
12444SOL    HW149310   3.361   8.954   8.552 -0.6536 -0.0239  0.0672
12444SOL    HW249311   3.218   8.907   8.540 -0.8242  0.3830  0.4726
12445SOL     OW49312   6.217   2.775  10.143 -0.4992  0.4774  0.4352
12445SOL    HW149313   6.184   2.743  10.227  1.2740 -3.0149 -0.0185
12445SOL    HW249314   6.139   2.784  10.089 -1.3987 -0.1318  1.5837
12446SOL     OW49315   7.063   9.206   0.690  0.0274  0.2618 -0.1108
12446SOL    HW149316   7.133   9.270   0.671 -0.3058  0.8225  0.5281
12446SOL    HW249317   7.067   9.145   0.616  0.5973  0.8105 -0.5524
12447SOL     OW49318   5.916   7.088   0.821 -0.1048  0.5017 -0.2008
12447SOL    HW149319   5.854   7.120   0.755  1.9505  0.7254 -2.1201
12447SOL    HW249320   5.986   7.048   0.771  0.5889 -1.1865  1.9610
12448SOL     OW49321   1.778   0.779  10.304  0.1606  0.0943  0.2867
12448SOL    HW149322   1.843   0.764  10.235  0.0667  1.1603 -0.0540
12448SOL    HW249323   1.708   0.718  10.285  0.8945 -0.8198  0.4444
12449SOL     OW49324   4.111   5.682   5.736 -0.0186  0.3747  0.1457
12449SOL    HW149325   4.179   5.716   5.794  1.7918  0.0651 -1.6933
12449SOL    HW249326   4.153   5.610   5.690 -1.2285  0.8858 -1.8545
12450SOL     OW49327   7.762   7.334   7.716  0.1615  0.0762  0.3199
12450SOL    HW149328   7.761   7.276   7.792 -1.1180  1.8724  1.7431
12450SOL    HW249329   7.854   7.339   7.691  0.3182 -2.5552  0.0923
12451SOL     OW49330   2.813   7.132  10.254  0.1004  0.2464  0.8356
12451SOL    HW149331   2.795   7.192  10.326 -1.1980  0.3210  0.4734
12451SOL    HW249332   2.797   7.045  10.291 -0.9708  0.3067  0.5447
12452SOL     OW49333   8.393   6.343   0.358 -0.6780 -0.2437  0.3870
12452SOL    HW149334   8.369   6.368   0.269 -0.7976 -1.5389  0.0306
12452SOL    HW249335   8.447   6.415   0.390 -1.0852  0.4891 -0.5265
12453SOL     OW49336   3.387   7.382   0.258  0.2913  0.1803 -0.6456
12453SOL    HW149337   3.406   7.403   0.167  0.9974  0.0875 -0.5228
12453SOL    HW249338   3.410   7.290   0.267  1.0413  0.4075 -0.1597
12454SOL     OW49339   8.150   0.246   6.393  0.3562  0.0384 -0.1019
12454SOL    HW149340   8.128   0.173   6.451  0.1809 -0.4711 -0.8026
12454SOL    HW249341   8.239   0.225   6.363 -0.1276 -0.4872 -1.2042
12455SOL     OW49342   3.607   3.805   7.816 -0.1608 -0.1679 -0.1927
12455SOL    HW149343   3.629   3.897   7.804 -0.1533 -0.2312 -0.6747
12455SOL    HW249344   3.512   3.803   7.828 -0.1116 -0.0588  0.2570
12456SOL     OW49345   7.913   9.532   8.884 -0.2527  0.1606 -0.8782
12456SOL    HW149346   7.891   9.465   8.948  1.9916 -2.0645 -2.2456
12456SOL    HW249347   7.892   9.615   8.927 -0.7651 -1.3109  1.8803
12457SOL     OW49348  10.304  10.003   2.223 -0.2989  0.3574  0.3138
12457SOL    HW149349  10.318  10.006   2.318  0.7312  0.6842  0.1626
12457SOL    HW249350  10.384  10.040   2.186 -0.5726 -0.0426 -0.6976
12458SOL     OW49351   7.020   1.012   0.823 -0.0833 -0.7505 -0.1258
12458SOL    HW149352   7.004   0.960   0.744  0.3797  0.6389 -1.1654
12458SOL    HW249353   7.081   0.959   0.874 -0.1328 -1.5259 -0.8430
12459SOL     OW49354   6.169   9.555   3.992 -0.1123  0.5388  0.1121
12459SOL    HW149355   6.114   9.629   3.964  0.1022  0.9972  0.8887
12459SOL    HW249356   6.230   9.543   3.919  0.5296  1.8144  0.4137
12460SOL     OW49357   5.357   7.979   9.960 -0.1774 -0.0402  0.0620
12460SOL    HW149358   5.386   8.048   9.901 -0.6865 -0.3657 -0.5925
12460SOL    HW249359   5.352   7.901   9.905  0.6796 -0.6831  0.8497
12461SOL     OW49360   0.240   1.849   2.619  0.7081 -0.4917 -0.0281
12461SOL    HW149361   0.200   1.813   2.698  1.1161 -2.2841 -0.5868
12461SOL    HW249362   0.300   1.780   2.589 -0.2631 -0.3442 -2.5203
12462SOL     OW49363  10.332   3.517   9.578  0.4688 -0.9380  0.8439
12462SOL    HW149364  10.279   3.597   9.577  0.1964 -1.0783 -1.1860
12462SOL    HW249365  10.412   3.541   9.530  1.3904 -1.2877  2.1555
12463SOL     OW49366   7.300   4.137   8.156  0.0535 -0.1745  0.0106
12463SOL    HW149367   7.265   4.211   8.106  1.0841  1.3285  1.4170
12463SOL    HW249368   7.246   4.135   8.236  0.7091 -0.2518  0.4532
12464SOL     OW49369   9.812   1.657   4.297 -0.4069  0.2934  0.0329
12464SOL    HW149370   9.721   1.626   4.304 -0.1369 -0.3389  0.8969
12464SOL    HW249371   9.837   1.675   4.388  0.0508  1.3122 -0.2839
12465SOL     OW49372   0.896   1.726   7.038  0.3648 -0.2710 -0.1527
12465SOL    HW149373   0.840   1.776   7.098 -0.1148 -2.0172  0.9354
12465SOL    HW249374   0.934   1.657   7.093  2.9690  0.3508 -1.0367
12466SOL     OW49375   7.591   6.780   7.857  0.3940 -0.2591 -0.5431
12466SOL    HW149376   7.560   6.866   7.885 -0.4340 -1.0689  1.1508
12466SOL    HW249377   7.636   6.745   7.934 -0.1450 -1.7341 -0.8827
12467SOL     OW49378   1.210   4.440   1.386  0.2784  0.2490 -0.0052
12467SOL    HW149379   1.239   4.384   1.315  0.1136  1.2511 -0.8817
12467SOL    HW249380   1.259   4.410   1.463  1.0895 -0.2878 -0.7235
12468SOL     OW49381   7.566   2.822   1.228  0.5665 -0.3016  0.7024
12468SOL    HW149382   7.557   2.854   1.138  1.7411 -2.6371 -0.3469
12468SOL    HW249383   7.481   2.785   1.249 -0.3210  1.9546  1.3539
12469SOL     OW49384   3.226   3.000  10.279 -0.2831  0.3524  0.2090
12469SOL    HW149385   3.258   3.039  10.198  0.5228  1.3486  0.9861
12469SOL    HW249386   3.222   2.906  10.261  0.1638  0.5347 -0.8810
12470SOL     OW49387   1.246   5.083   2.611  0.1841  0.1930  0.3475
12470SOL    HW149388   1.189   5.054   2.540 -0.5858  2.8351 -0.2350
12470SOL    HW249389   1.326   5.031   2.601 -0.5892 -0.7482 -1.3245
12471SOL     OW49390   3.931   2.612   8.991  0.2033  0.2421 -0.3506
12471SOL    HW149391   4.019   2.638   9.019  0.1251  1.0911 -0.8435
12471SOL    HW249392   3.915   2.528   9.034  1.8778 -0.7197 -1.5093
12472SOL     OW49393   8.216   7.014   4.188 -0.0577 -0.4680  0.5323
12472SOL    HW149394   8.137   7.023   4.135  0.1052  0.1684  0.3939
12472SOL    HW249395   8.214   6.923   4.219 -0.3098 -0.7626 -0.3175
12473SOL     OW49396   4.997   0.118   2.270  0.0992  0.1161 -0.2311
12473SOL    HW149397   4.925   0.165   2.310  0.0063 -0.8563  0.7919
12473SOL    HW249398   5.051   0.186   2.229  0.1070  1.1454  1.4042
12474SOL     OW49399   2.319   1.986   5.751 -1.1653 -0.0156 -0.3512
12474SOL    HW149400   2.256   1.948   5.813 -1.4355 -2.1159 -1.8286
12474SOL    HW249401   2.402   1.985   5.798 -1.2935 -1.8923 -0.0810
12475SOL     OW49402   0.898   8.114   1.030 -0.5526 -0.0280  0.0972
12475SOL    HW149403   0.860   8.179   0.971  0.5939  1.1979  0.6461
12475SOL    HW249404   0.842   8.116   1.107  0.1131  1.2029  0.5873
12476SOL     OW49405   6.920  10.051   5.631 -0.2036  0.0494 -0.0255
12476SOL    HW149406   6.948  10.130   5.677  0.0248  0.5662 -1.0291
12476SOL    HW249407   6.945  10.066   5.540 -0.0225 -1.2521 -0.2028
12477SOL     OW49408   2.874   4.031   6.211 -0.2637 -0.6089  0.3743
12477SOL    HW149409   2.801   3.976   6.240  0.5960 -1.7022  0.5307
12477SOL    HW249410   2.833   4.111   6.180 -1.5928 -1.4543 -0.1517
12478SOL     OW49411   3.957   6.470   5.024  0.2471  0.1528  0.1670
12478SOL    HW149412   3.882   6.510   4.981 -1.0013 -1.9149  0.2820
12478SOL    HW249413   4.017   6.448   4.953  0.4785  1.2376  0.0101
12479SOL     OW49414   5.072   5.713   8.266 -0.0390 -0.5286 -0.4072
12479SOL    HW149415   5.155   5.758   8.284 -1.6794  1.9876  1.5897
12479SOL    HW249416   5.082   5.628   8.309  0.7959  0.5382  1.6543
12480SOL     OW49417   0.036   2.013   1.860 -0.3328  0.2380 -0.0236
12480SOL    HW149418   0.087   1.942   1.822 -0.8115 -1.8083  2.8253
12480SOL    HW249419   0.065   2.017   1.951 -1.1053  3.0309  0.1914
12481SOL     OW49420   1.410   7.622   0.793  0.0459 -0.0648 -0.1343
12481SOL    HW149421   1.357   7.547   0.819 -0.2539  0.1341 -0.1696
12481SOL    HW249422   1.500   7.597   0.815 -0.1206 -0.1867  0.4169
12482SOL     OW49423   2.879   3.850  10.007  0.3605  0.5513  0.2881
12482SOL    HW149424   2.835   3.916   9.954  0.3693  0.8729  0.6793
12482SOL    HW249425   2.827   3.771   9.994  0.3577  0.6253 -0.1905
12483SOL     OW49426   2.474   7.745   6.603 -0.0864 -0.1164  0.4140
12483SOL    HW149427   2.553   7.774   6.559 -0.3784 -0.0361 -0.0571
12483SOL    HW249428   2.486   7.773   6.694  0.7063 -0.6651  0.4885
12484SOL     OW49429   8.762   6.365   9.786  0.1576 -0.1886 -0.2812
12484SOL    HW149430   8.673   6.342   9.759  0.1350 -0.1184 -0.2650
12484SOL    HW249431   8.789   6.293   9.844 -0.0690  0.0362  0.1010
12485SOL     OW49432   8.547   8.732   7.579  0.1927 -0.5472 -0.1317
12485SOL    HW149433   8.600   8.802   7.617 -0.8705  2.2712 -3.3681
12485SOL    HW249434   8.457   8.759   7.596 -0.2610 -1.9052 -0.2755
12486SOL     OW49435   7.071   1.694   2.146 -0.1597  0.6271  0.5763
12486SOL    HW149436   7.140   1.690   2.212  0.4670  0.1386 -0.0898
12486SOL    HW249437   7.114   1.730   2.069 -0.5037 -0.1838 -0.0129
12487SOL     OW49438   3.332   2.645   8.110 -0.5652 -0.5176 -0.6741
12487SOL    HW149439   3.329   2.557   8.149 -1.4332 -0.8208 -1.3728
12487SOL    HW249440   3.423   2.673   8.119 -0.5469 -0.9489  0.7195
12488SOL     OW49441   9.597   7.681   3.108  0.3117 -0.3721 -0.5093
12488SOL    HW149442   9.584   7.739   3.033 -0.9264  1.1634  0.8306
12488SOL    HW249443   9.509   7.649   3.128  0.2859  0.8549  1.5191
12489SOL     OW49444   7.984   6.688   5.015  0.2395 -0.2601  0.4220
12489SOL    HW149445   8.008   6.781   5.015  0.1178 -0.2288  0.4256
12489SOL    HW249446   8.054   6.646   5.066  2.6009 -0.7800 -2.8783
12490SOL     OW49447   7.509   8.356   5.077  0.6391 -0.4316 -0.7110
12490SOL    HW149448   7.485   8.436   5.032  1.8569 -2.0813 -4.6660
12490SOL    HW249449   7.605   8.357   5.081  0.6250 -0.5247  1.7937
12491SOL     OW49450   3.470   0.019   1.168 -0.1715  0.3764  0.0314
12491SOL    HW149451   3.510   0.047   1.086  0.8886 -2.1005 -0.3932
12491SOL    HW249452   3.431  -0.066   1.148 -0.0370 -0.2075  2.0383
12492SOL     OW49453   4.695   4.597   1.186  0.0562 -0.0453  0.3057
12492SOL    HW149454   4.758   4.556   1.126  1.8597 -0.0119  2.0998
12492SOL    HW249455   4.621   4.621   1.129  1.8990  0.5295 -2.0089
12493SOL     OW49456   1.033   1.130   1.126  0.1036 -0.4006 -0.1936
12493SOL    HW149457   0.938   1.121   1.124 -0.0000  0.2269  0.8395
12493SOL    HW249458   1.056   1.164   1.040 -0.5496 -1.0274 -0.6242
12494SOL     OW49459   1.205   8.158   4.560  0.5222 -0.3802  0.2129
12494SOL    HW149460   1.188   8.140   4.652 -0.4566  0.4982  0.2132
12494SOL    HW249461   1.286   8.211   4.561  1.2082 -1.4032  0.4633
12495SOL     OW49462   0.984   0.079   7.114  0.4815 -0.0908  0.0400
12495SOL    HW149463   0.990   0.143   7.043  0.2161  1.2772  1.1965
12495SOL    HW249464   0.897   0.041   7.105 -0.3501  1.5384  0.7875
12496SOL     OW49465   2.508   9.378   5.082  0.1974  0.1028 -0.4785
12496SOL    HW149466   2.514   9.284   5.097 -1.2482 -0.0271 -0.6061
12496SOL    HW249467   2.421   9.392   5.046  0.5930  1.4321 -0.9934
12497SOL     OW49468   7.583   7.418   5.102 -0.0309 -0.5535  0.0987
12497SOL    HW149469   7.572   7.507   5.070 -0.9248 -0.5067  0.5048
12497SOL    HW249470   7.556   7.363   5.028 -1.9166 -0.4476  0.6632
12498SOL     OW49471   3.091   0.583   8.428  0.4627  0.0960 -1.0900
12498SOL    HW149472   3.092   0.500   8.476 -0.0392  0.2427 -0.8087
12498SOL    HW249473   3.066   0.559   8.339  1.0158 -0.1359 -1.1842
12499SOL     OW49474   3.130   4.032  10.180  0.2946  0.5283  0.5474
12499SOL    HW149475   3.136   3.948  10.134 -0.4390  0.4438  0.5863
12499SOL    HW249476   3.037   4.056  10.172 -0.2819 -0.3452  3.4112
12500SOL     OW49477   3.539   4.546   0.887 -0.0012  0.4242 -0.1687
12500SOL    HW149478   3.505   4.464   0.852  0.3881  1.0466 -2.1234
12500SOL    HW249479   3.477   4.613   0.858 -0.7403  0.8037  2.0510
12501SOL     OW49480   5.519   8.111   5.918 -0.1715 -0.3159 -0.1825
12501SOL    HW149481   5.602   8.141   5.953  0.3242 -1.8145 -0.0042
12501SOL    HW249482   5.455   8.175   5.949  0.9630  1.1512 -0.7537
12502SOL     OW49483   7.917   8.191   9.920  0.1788 -0.1805 -1.1165
12502SOL    HW149484   8.001   8.148   9.902  0.2264 -0.3507 -0.5157
12502SOL    HW249485   7.862   8.167   9.846  0.1767 -1.3787 -0.7553
12503SOL     OW49486   4.558   3.466   5.097  0.1757 -0.5208 -0.2259
12503SOL    HW149487   4.549   3.559   5.076 -1.4098 -0.7256 -0.5757
12503SOL    HW249488   4.652   3.454   5.112  0.2574  1.4145  1.1698
12504SOL     OW49489   0.191   7.658   3.834  0.6458 -0.1500 -0.7262
12504SOL    HW149490   0.124   7.694   3.775 -0.3205  0.4862  0.7070
12504SOL    HW249491   0.202   7.568   3.804 -1.9808 -0.7625 -0.1367
12505SOL     OW49492   1.756   9.603   7.374  0.0110 -0.4021 -0.2093
12505SOL    HW149493   1.763   9.509   7.358 -1.7108 -0.2541 -2.2140
12505SOL    HW249494   1.672   9.627   7.336  0.1660  1.8759  0.7538
12506SOL     OW49495   3.946   9.931   2.345 -0.1816  1.0549  0.8185
12506SOL    HW149496   3.903  10.017   2.351  1.1532  1.7974  0.3533
12506SOL    HW249497   3.878   9.872   2.315 -0.8012  2.2649 -0.2724
12507SOL     OW49498   0.660   9.284   5.824 -0.0256 -0.1967  0.3898
12507SOL    HW149499   0.571   9.318   5.829 -0.0756  0.1013 -1.7071
12507SOL    HW249500   0.650   9.195   5.790  0.3576 -1.0898  2.4474
12508SOL     OW49501   3.619   5.654   5.534 -0.0991 -0.7930 -0.3990
12508SOL    HW149502   3.672   5.653   5.454 -0.1427  1.7540 -0.5367
12508SOL    HW249503   3.683   5.660   5.605 -0.1232 -0.2182 -0.4219
12509SOL     OW49504  10.182   2.017   9.087 -0.1491  0.0018  0.4243
12509SOL    HW149505  10.088   2.017   9.108 -0.1769  0.7113  0.3250
12509SOL    HW249506  10.191   1.952   9.017 -0.4954 -0.3871  0.7331
12510SOL     OW49507   9.685   8.790   4.302 -0.1199  0.0416 -0.1488
12510SOL    HW149508   9.779   8.772   4.305 -0.1099 -0.3591 -1.6740
12510SOL    HW249509   9.644   8.710   4.334  0.0501 -0.1093 -0.3026
12511SOL     OW49510   1.063   3.000   6.704 -0.3962  0.0932 -0.2730
12511SOL    HW149511   1.074   2.948   6.625 -1.4669  0.5793 -0.7617
12511SOL    HW249512   1.081   3.090   6.677  1.8190 -0.0105  0.6482
12512SOL     OW49513   7.418   7.486   3.228  0.3053 -0.6868 -0.0026
12512SOL    HW149514   7.446   7.578   3.231  1.3270 -0.9948  0.3911
12512SOL    HW249515   7.454   7.447   3.307  0.0126 -1.4654 -0.2409
12513SOL     OW49516  10.195   1.206   1.901  0.3227 -0.4385  0.3724
12513SOL    HW149517  10.238   1.124   1.925 -1.8266 -1.7722 -0.0595
12513SOL    HW249518  10.129   1.181   1.836  0.2456  1.7974 -0.5189
12514SOL     OW49519   3.916   5.103   5.561 -0.0556 -0.7204 -0.5379
12514SOL    HW149520   3.880   5.190   5.540 -0.8659 -0.3902  1.9073
12514SOL    HW249521   3.850   5.042   5.527 -0.7996 -0.2563  0.0200
12515SOL     OW49522   4.109   8.306   1.765 -0.0865  0.4937 -0.0118
12515SOL    HW149523   4.024   8.267   1.742  0.3730  0.7370 -2.4416
12515SOL    HW249524   4.094   8.400   1.761  0.4276  0.5519 -1.2815
12516SOL     OW49525   1.329   5.907   5.591 -0.7134 -0.5518  0.2402
12516SOL    HW149526   1.240   5.899   5.557 -0.3340 -0.9035 -0.7203
12516SOL    HW249527   1.333   5.995   5.628 -0.5769  0.6806 -2.4775
12517SOL     OW49528   7.500   9.795   7.727 -0.1599 -0.1308 -0.2755
12517SOL    HW149529   7.443   9.745   7.785 -0.8396  0.5325 -0.3545
12517SOL    HW249530   7.561   9.840   7.785  1.5879 -2.3576 -0.2799
12518SOL     OW49531   3.551  10.335   6.805  0.4467  0.3512  0.3121
12518SOL    HW149532   3.512  10.333   6.893  1.8316 -2.0170  0.9514
12518SOL    HW249533   3.496  10.397   6.757 -0.0238  2.1998  2.9596
12519SOL     OW49534   7.592   5.692   6.743 -0.0966 -0.3750 -0.7170
12519SOL    HW149535   7.630   5.606   6.726  3.3164  1.1120 -1.3466
12519SOL    HW249536   7.603   5.706   6.837 -0.0948 -0.3669 -0.7184
12520SOL     OW49537   1.512   8.951   3.874 -0.1387 -0.1686  0.1970
12520SOL    HW149538   1.501   9.044   3.858  1.4192  0.2064  1.0872
12520SOL    HW249539   1.540   8.915   3.790 -1.7567 -0.0542 -0.4201
12521SOL     OW49540   8.768   3.227   6.427 -0.1238 -0.4334  0.1247
12521SOL    HW149541   8.805   3.143   6.401  0.5158  0.4117 -1.8919
12521SOL    HW249542   8.735   3.265   6.345  0.7955  1.8449  0.7384
12522SOL     OW49543   5.342   5.078   0.470  0.5943  0.3327  0.2639
12522SOL    HW149544   5.329   5.037   0.555  0.4490  1.5354  0.8492
12522SOL    HW249545   5.359   5.170   0.491  2.5646  0.2909 -0.8795
12523SOL     OW49546   9.572   7.100   4.680  0.0051 -0.2648 -0.1255
12523SOL    HW149547   9.537   7.020   4.640 -1.9623  0.8513 -0.7517
12523SOL    HW249548   9.632   7.135   4.614  1.3200 -1.4400  0.3734
12524SOL     OW49549   6.642   6.296   4.671 -0.1366 -0.0283  0.4408
12524SOL    HW149550   6.725   6.283   4.716  0.1406 -1.1466 -0.3336
12524SOL    HW249551   6.622   6.210   4.633  0.7926  1.2685 -3.4609
12525SOL     OW49552   6.969   5.158   0.439  0.2059  0.5200  0.3557
12525SOL    HW149553   7.044   5.118   0.395  0.5343  1.9099 -0.4122
12525SOL    HW249554   6.972   5.124   0.528  0.7285 -0.7737 -0.1304
12526SOL     OW49555   7.667   9.722   9.612  0.0230  0.5609 -0.1372
12526SOL    HW149556   7.618   9.792   9.568 -2.2882 -0.4210  0.6918
12526SOL    HW249557   7.682   9.657   9.544 -0.0484  0.7673 -0.3540
12527SOL     OW49558   0.124   4.732   4.179 -0.0562  0.1116  0.6083
12527SOL    HW149559   0.042   4.782   4.180 -0.8562 -1.1675  2.1824
12527SOL    HW249560   0.182   4.784   4.122 -1.8756  1.1280 -0.4267
12528SOL     OW49561   0.967   6.783   2.700 -0.1165  0.1449 -0.3622
12528SOL    HW149562   0.888   6.729   2.690 -0.5676  0.0239  2.8434
12528SOL    HW249563   0.934   6.867   2.732  1.0834 -0.7556  3.6930
12529SOL     OW49564   7.621   6.630   1.634 -0.8088  0.1788  0.6864
12529SOL    HW149565   7.677   6.702   1.663 -0.0177  0.9033 -2.2461
12529SOL    HW249566   7.661   6.552   1.672  2.0231  0.7338 -0.8388
12530SOL     OW49567   9.184   6.290   1.216 -0.4228 -0.5658  0.5034
12530SOL    HW149568   9.189   6.385   1.228  0.9322 -0.5682  0.0647
12530SOL    HW249569   9.229   6.274   1.134  0.9936 -1.7785  1.4709
12531SOL     OW49570   3.632   9.563   9.066  0.2096 -0.2500 -0.5347
12531SOL    HW149571   3.637   9.482   9.014  0.3780  0.1615 -1.1693
12531SOL    HW249572   3.604   9.629   9.004 -0.9774 -0.0217  0.2206
12532SOL     OW49573   3.151   1.636   8.058 -0.5328 -0.0278  0.3213
12532SOL    HW149574   3.147   1.550   8.101  2.2631 -1.8059 -2.5319
12532SOL    HW249575   3.234   1.674   8.088 -0.8730  0.8634  0.1617
12533SOL     OW49576   6.266   3.126   5.205  0.2244  0.1277  0.0980
12533SOL    HW149577   6.225   3.212   5.197  1.6759  0.7622 -0.8436
12533SOL    HW249578   6.335   3.137   5.270 -1.1802 -0.9950  1.8571
12534SOL     OW49579   0.033   1.783   8.581  0.9152  0.0340  0.5580
12534SOL    HW149580   0.051   1.742   8.496  0.9563 -0.4035  0.7741
12534SOL    HW249581  -0.058   1.813   8.574  0.8159 -0.2809  0.4664
12535SOL     OW49582   6.423   1.360   1.383 -0.2802 -0.0864  0.7326
12535SOL    HW149583   6.384   1.383   1.298 -1.6931  1.1302  1.6785
12535SOL    HW249584   6.374   1.283   1.411  0.0257 -0.3424  0.5768
12536SOL     OW49585   2.804   3.965   7.389  0.2894  0.0915  0.3936
12536SOL    HW149586   2.875   4.014   7.347  0.8490  1.1402  2.4321
12536SOL    HW249587   2.847   3.891   7.432 -0.2151 -0.7170 -0.4502
12537SOL     OW49588   0.536   1.168   0.021  0.5478 -0.3996  0.1093
12537SOL    HW149589   0.582   1.122   0.091 -0.4566 -1.6880 -0.0194
12537SOL    HW249590   0.450   1.125   0.017 -0.0814  0.8620 -0.7017
12538SOL     OW49591   1.585  10.133   9.720  0.3758  0.1819  0.1929
12538SOL    HW149592   1.606  10.167   9.807 -0.2725 -0.5853  0.6631
12538SOL    HW249593   1.552  10.045   9.736  0.2307  0.0358 -0.8357
12539SOL     OW49594   6.263   2.693   5.593  0.8098 -0.2670 -0.0608
12539SOL    HW149595   6.323   2.745   5.647 -2.2357  0.7436  2.6341
12539SOL    HW249596   6.252   2.611   5.640 -0.8340  0.0618  0.1632
12540SOL     OW49597  10.336   6.103   3.297  0.5022 -0.0037 -0.3294
12540SOL    HW149598  10.421   6.146   3.304  0.4891 -0.1306  0.9976
12540SOL    HW249599  10.352   6.013   3.328  0.6668 -1.2547 -3.6177
12541SOL     OW49600   3.295   7.131   8.434 -0.0115 -0.2636  0.4235
12541SOL    HW149601   3.255   7.217   8.446  1.5474  0.7156 -1.0169
12541SOL    HW249602   3.310   7.124   8.340  0.4325 -1.8831  0.5803
12542SOL     OW49603   7.120   6.547   0.009 -0.0720  0.5147  0.1886
12542SOL    HW149604   7.115   6.629  -0.040 -1.2197  0.7305  0.6514
12542SOL    HW249605   7.070   6.563   0.089  0.2159 -0.4410  0.5782
12543SOL     OW49606   0.881   7.019   2.827 -0.3326  1.4546  0.2198
12543SOL    HW149607   0.842   6.971   2.900  1.0779 -0.7939 -0.4036
12543SOL    HW249608   0.808   7.068   2.789 -2.1277 -0.8810  0.4087
12544SOL     OW49609   0.020   1.513   2.571  0.0494 -0.2820 -0.0265
12544SOL    HW149610   0.053   1.571   2.502  1.0848 -0.3997  0.3504
12544SOL    HW249611   0.007   1.428   2.528 -1.0921  0.1100 -0.4873
12545SOL     OW49612   6.372   5.972   4.552  0.0857  0.3407  0.1610
12545SOL    HW149613   6.407   5.942   4.468  0.2268  1.7767 -0.3285
12545SOL    HW249614   6.410   5.912   4.617 -0.3448 -1.0302 -0.8208
12546SOL     OW49615   5.468   8.633   9.185 -0.2216 -0.0288  0.8282
12546SOL    HW149616   5.485   8.613   9.093 -0.9137  1.7858  0.2552
12546SOL    HW249617   5.551   8.668   9.218  0.1547 -1.0734  1.0573
12547SOL     OW49618   2.473   6.071   5.065 -0.0681 -0.1952  0.1879
12547SOL    HW149619   2.531   6.019   5.008  2.3186  1.1916  1.1711
12547SOL    HW249620   2.481   6.030   5.151 -0.9878 -0.2854  0.2349
12548SOL     OW49621   7.164   2.137   8.821 -0.0582 -0.5299  0.2729
12548SOL    HW149622   7.138   2.126   8.913  0.2610  0.0223  0.4342
12548SOL    HW249623   7.118   2.215   8.792  0.8555  0.0684  0.3642
12549SOL     OW49624   1.919   2.626   6.688 -0.4701  0.0525  0.3742
12549SOL    HW149625   1.934   2.623   6.783  2.0851 -2.5815  0.0439
12549SOL    HW249626   1.930   2.719   6.665 -1.6604  0.8424  2.6642
12550SOL     OW49627   6.252   8.122   8.939 -0.3142  0.4482  0.2421
12550SOL    HW149628   6.326   8.065   8.958 -0.9594 -0.2596  0.6821
12550SOL    HW249629   6.256   8.137   8.845  0.7436  0.9302  0.3516
12551SOL     OW49630   1.202   2.955   2.150 -0.3801  0.9908  0.8042
12551SOL    HW149631   1.274   3.018   2.152 -0.2076  0.8256 -0.0139
12551SOL    HW249632   1.241   2.875   2.114 -1.1632  1.1527 -0.4476
12552SOL     OW49633   2.714   0.332   8.800  0.1042 -0.1050 -0.1494
12552SOL    HW149634   2.736   0.319   8.892  1.4901 -2.1261 -0.6877
12552SOL    HW249635   2.769   0.405   8.772 -0.4914  0.6708  0.6538
12553SOL     OW49636   3.887   1.561   7.148 -0.0401 -0.2039 -0.4200
12553SOL    HW149637   3.826   1.634   7.139 -0.3456 -0.3611  0.3233
12553SOL    HW249638   3.969   1.601   7.177 -0.2864 -0.1818  0.2553
12554SOL     OW49639   6.390   8.500   5.968 -0.1110 -0.3390 -0.1709
12554SOL    HW149640   6.368   8.410   5.945 -0.9510 -0.0182 -0.6725
12554SOL    HW249641   6.333   8.554   5.913  0.7902  0.5150 -0.2940
12555SOL     OW49642   3.772   4.184   5.556 -0.2380  0.4339 -0.3346
12555SOL    HW149643   3.772   4.088   5.560 -0.2024  0.4635  1.0423
12555SOL    HW249644   3.804   4.211   5.642  1.6594  1.6917 -1.3697
12556SOL     OW49645   2.740   9.006   9.322  0.3875  0.2742  0.0053
12556SOL    HW149646   2.745   9.053   9.405  1.2983  0.3445 -0.0874
12556SOL    HW249647   2.669   8.943   9.334 -0.6561  1.4355  0.2500
12557SOL     OW49648   6.531   9.430   7.176 -0.2118  0.5328 -0.5759
12557SOL    HW149649   6.610   9.412   7.227 -0.0980 -0.2758 -1.0292
12557SOL    HW249650   6.470   9.468   7.240 -0.2126 -0.8141  0.2733
12558SOL     OW49651   9.227   6.372   4.227 -0.2613  0.0424 -0.6925
12558SOL    HW149652   9.283   6.446   4.251  0.7563 -1.0857  0.6015
12558SOL    HW249653   9.142   6.393   4.265  0.4698 -0.1964  1.1670
12559SOL     OW49654   7.748   6.337   5.343  0.2034  0.4041 -0.1220
12559SOL    HW149655   7.751   6.422   5.387  0.5009 -0.4045  1.4816
12559SOL    HW249656   7.836   6.324   5.309 -0.0714  1.1073 -1.1362
12560SOL     OW49657   0.041   0.964   1.082  0.6970  0.0614  0.2741
12560SOL    HW149658   0.114   0.943   1.024 -1.4707  0.6051 -2.8964
12560SOL    HW249659  -0.025   0.898   1.062 -1.7192  2.6932 -1.1522
12561SOL     OW49660   3.104   7.992   0.565  0.0938  0.1322  0.5215
12561SOL    HW149661   3.139   8.024   0.482  1.7415 -1.6469  0.4757
12561SOL    HW249662   3.040   8.059   0.591  0.4315  1.3452 -1.5384
12562SOL     OW49663   3.283   0.831   2.761 -0.6734  0.0364  0.7052
12562SOL    HW149664   3.268   0.808   2.669  0.5904 -2.1421  0.9833
12562SOL    HW249665   3.209   0.790   2.808 -0.9768  0.6142  0.7434
12563SOL     OW49666   3.581   7.360   7.908 -0.0613  0.6948 -0.3525
12563SOL    HW149667   3.497   7.402   7.924 -0.2987  0.8141 -1.7565
12563SOL    HW249668   3.609   7.328   7.994 -2.0427 -0.3178 -0.0230
12564SOL     OW49669   6.572   5.902   8.683  0.1331  0.1327  0.5742
12564SOL    HW149670   6.497   5.847   8.662  1.4018 -1.0745 -1.0507
12564SOL    HW249671   6.583   5.959   8.607  0.4860  0.7516  1.0763
12565SOL     OW49672   5.815   0.800   9.854 -0.3387  0.0726  0.1018
12565SOL    HW149673   5.871   0.810   9.931 -1.2019 -0.8970  0.8847
12565SOL    HW249674   5.825   0.708   9.829  0.0417  0.4076 -1.0516
12566SOL     OW49675   5.921   8.439   5.577  0.4790 -0.4140 -0.2225
12566SOL    HW149676   5.840   8.395   5.549  0.0014  0.7355 -0.7305
12566SOL    HW249677   5.985   8.417   5.509  0.0326  0.2594 -0.8847
12567SOL     OW49678   2.362   4.165   0.172  0.1081 -0.0662 -0.0639
12567SOL    HW149679   2.434   4.156   0.109  0.5985  1.2767  0.2561
12567SOL    HW249680   2.292   4.110   0.137  1.9319 -3.1125  0.6418
12568SOL     OW49681   9.412   3.034   5.593  0.4921 -0.6767  0.0600
12568SOL    HW149682   9.389   3.121   5.626  0.5892 -0.4216 -0.5313
12568SOL    HW249683   9.444   2.987   5.670 -0.0129 -0.3480  0.4800
12569SOL     OW49684   6.757   4.289   7.853  0.3654 -0.0612  0.4661
12569SOL    HW149685   6.844   4.263   7.823  0.5557  2.7457 -1.9494
12569SOL    HW249686   6.699   4.219   7.822  1.5170 -0.9501  0.2559
12570SOL     OW49687   4.705   0.396   3.582  0.2390  0.3109 -0.0402
12570SOL    HW149688   4.627   0.452   3.579 -0.4132 -0.6092 -1.1627
12570SOL    HW249689   4.721   0.382   3.676  0.6100  2.5808  0.2796
12571SOL     OW49690   8.094   1.487   7.043 -0.0504 -0.0920 -0.0444
12571SOL    HW149691   8.144   1.506   7.123 -1.3109  1.0246  0.4983
12571SOL    HW249692   8.112   1.395   7.026  4.7916  0.8692 -1.7147
12572SOL     OW49693   4.088  10.040   5.411  0.1066 -0.3843  0.4064
12572SOL    HW149694   4.112  10.008   5.498  0.2398 -1.3236  0.0419
12572SOL    HW249695   4.014  10.098   5.427 -0.4522 -1.2431  1.0781
12573SOL     OW49696   5.271   0.351   9.513 -0.4685 -0.3252 -0.1232
12573SOL    HW149697   5.303   0.344   9.423  0.6080 -2.3133  0.3354
12573SOL    HW249698   5.178   0.372   9.505 -0.4785 -0.8685 -1.7095
12574SOL     OW49699   0.741   5.140   5.397  0.3450 -0.1281  0.2682
12574SOL    HW149700   0.691   5.216   5.428 -1.1988 -0.7393 -0.6342
12574SOL    HW249701   0.730   5.075   5.466  3.1887  0.9910  1.9346
12575SOL     OW49702   0.036   2.015   1.310 -0.6304 -0.4091 -0.2971
12575SOL    HW149703   0.030   2.083   1.243  0.2944  0.9560  0.9376
12575SOL    HW249704  -0.042   2.028   1.364 -1.0907 -1.1532 -0.7674
12576SOL     OW49705   8.431   3.358   7.528  0.4446  0.0736  0.1381
12576SOL    HW149706   8.458   3.359   7.620 -0.8615  1.5110  0.5473
12576SOL    HW249707   8.460   3.443   7.495 -1.4638  0.7165 -0.0123
12577SOL     OW49708   7.255   2.221  10.183 -0.0659 -0.0959  0.1940
12577SOL    HW149709   7.274   2.140  10.231 -1.2935  0.0832  1.0368
12577SOL    HW249710   7.338   2.269  10.185  0.6974 -1.3419 -0.3744
12578SOL     OW49711   3.582   3.963   0.186  0.8664 -0.3366  0.0204
12578SOL    HW149712   3.585   4.013   0.267  1.3404 -0.6016  0.1686
12578SOL    HW249713   3.524   3.889   0.205 -0.3789  0.5010 -0.4044
12579SOL     OW49714   2.756   7.480   4.978  0.0686 -0.0049  0.2223
12579SOL    HW149715   2.804   7.544   4.925 -1.8075  0.3308 -1.2021
12579SOL    HW249716   2.806   7.399   4.968  0.2256  0.2516 -1.4586
12580SOL     OW49717   5.681   6.189   6.449  0.8287 -0.3332  0.1447
12580SOL    HW149718   5.626   6.222   6.378  1.4202 -1.8387 -1.0745
12580SOL    HW249719   5.750   6.140   6.404  0.9089 -1.7875  1.7823
12581SOL     OW49720   8.973   1.788   8.517 -0.2140  0.4658  0.0478
12581SOL    HW149721   8.946   1.878   8.502 -1.1750  0.0811 -0.6216
12581SOL    HW249722   8.993   1.755   8.429 -0.3630 -0.1209  0.2329
12582SOL     OW49723   6.269   7.086   0.955  0.0167 -0.4143 -0.5323
12582SOL    HW149724   6.205   7.148   0.921 -2.2963 -1.8933  0.8030
12582SOL    HW249725   6.313   7.133   1.026 -1.5481 -0.1443  0.3188
12583SOL     OW49726   9.728   3.843   9.707  0.0168  0.3416 -0.3086
12583SOL    HW149727   9.637   3.836   9.678 -0.5328 -0.5756  1.4556
12583SOL    HW249728   9.777   3.791   9.643 -1.1767 -1.8667  0.4324
12584SOL     OW49729   5.660   9.165   3.367  0.4704 -0.1209  0.0231
12584SOL    HW149730   5.673   9.259   3.353 -0.3789 -0.0585 -0.4164
12584SOL    HW249731   5.747   9.133   3.392  0.6879  0.8441  0.5895
12585SOL     OW49732   3.890   5.574  10.118 -0.2162 -0.2547 -0.1182
12585SOL    HW149733   3.844   5.490  10.123 -0.3801 -0.2790 -1.5155
12585SOL    HW249734   3.827   5.633  10.077 -0.2359  0.6701  1.2158
12586SOL     OW49735   3.887   5.095   0.013 -0.4761  0.5826 -0.3507
12586SOL    HW149736   3.858   5.173  -0.036 -1.4701  0.3939 -0.0881
12586SOL    HW249737   3.944   5.129   0.082  0.3958  0.9165 -1.2103
12587SOL     OW49738   8.657  10.112   5.706  0.3399  0.2376  0.1020
12587SOL    HW149739   8.739  10.130   5.661  0.0784  0.7128 -0.1919
12587SOL    HW249740   8.663  10.020   5.731  1.9162  0.7792  2.0425
12588SOL     OW49741   0.945   4.071   4.647  0.2466  0.1388 -0.2603
12588SOL    HW149742   1.012   4.092   4.583 -0.2051 -0.5556 -0.9787
12588SOL    HW249743   0.946   4.145   4.708  2.4526 -0.3931  0.4236
12589SOL     OW49744   5.123   2.456   6.064 -0.6303 -0.1829 -0.7574
12589SOL    HW149745   5.083   2.543   6.074 -1.7105 -0.7730  0.2768
12589SOL    HW249746   5.176   2.464   5.985  0.6949  1.9361  0.2320
12590SOL     OW49747   4.535   9.451   2.609  1.3620  0.3135 -0.0985
12590SOL    HW149748   4.446   9.471   2.637  1.0849 -2.1000  1.0203
12590SOL    HW249749   4.545   9.496   2.525 -1.1023  0.2020 -0.5140
12591SOL     OW49750   0.703   5.582   4.656  0.3371 -0.0544  0.6216
12591SOL    HW149751   0.753   5.500   4.663  0.2375 -0.2520 -0.6704
12591SOL    HW249752   0.623   5.557   4.609  0.6555  0.9082 -0.4862
12592SOL     OW49753   6.479   6.567   4.003  0.0086  0.1183 -0.4976
12592SOL    HW149754   6.498   6.515   4.082 -1.1510 -0.2480 -0.4473
12592SOL    HW249755   6.566   6.588   3.968  0.5792  0.7662  1.1644
12593SOL     OW49756   3.638   7.827   3.550  0.8493 -0.2225 -0.3475
12593SOL    HW149757   3.719   7.785   3.578  0.8439 -0.4855 -0.7250
12593SOL    HW249758   3.637   7.910   3.597 -0.2584 -1.5765  2.2047
12594SOL     OW49759   9.996   7.771   9.740 -0.9212 -0.3295  0.3551
12594SOL    HW149760  10.048   7.804   9.814  1.0812  1.0333 -1.5394
12594SOL    HW249761   9.981   7.679   9.761  2.4266 -0.8621  1.0147
12595SOL     OW49762   5.834   3.435   2.627  0.2560  0.0418  0.1041
12595SOL    HW149763   5.901   3.376   2.662 -0.4408  0.0463  1.5456
12595SOL    HW249764   5.808   3.488   2.703  0.8353  2.1900 -1.1276
12596SOL     OW49765   9.603   6.430   4.724 -0.0740 -0.0698  0.4287
12596SOL    HW149766   9.581   6.350   4.677 -1.2231  0.2799  0.3615
12596SOL    HW249767   9.546   6.430   4.801 -1.0833  1.3650 -0.2832
12597SOL     OW49768   7.962   7.077   4.109  0.0336 -0.2027 -0.5002
12597SOL    HW149769   7.878   7.032   4.103 -0.2083  0.0510  0.6973
12597SOL    HW249770   7.940   7.170   4.102  0.1248 -0.0982  0.4826
12598SOL     OW49771   0.059   8.883   9.211  0.6244 -0.3584  0.2687
12598SOL    HW149772   0.149   8.911   9.231  0.5608 -0.1826  0.3146
12598SOL    HW249773   0.063   8.850   9.121  0.6513  0.0326  0.1241
12599SOL     OW49774   7.521   7.551   4.213 -0.4511 -0.1019 -0.5164
12599SOL    HW149775   7.485   7.640   4.217 -0.2638 -0.0231 -0.5637
12599SOL    HW249776   7.504   7.515   4.300 -1.8134 -0.5345 -0.9401
12600SOL     OW49777   4.286   6.557   4.605  0.1140 -0.4362 -0.0880
12600SOL    HW149778   4.196   6.590   4.600  0.8906  1.9264  0.4047
12600SOL    HW249779   4.290   6.509   4.687 -0.2822  0.9258  0.7587
12601SOL     OW49780   2.966   6.738   6.484 -0.4070 -0.3571  0.3083
12601SOL    HW149781   2.914   6.807   6.525  0.1658  0.1920  0.1254
12601SOL    HW249782   3.034   6.719   6.549 -1.2768 -1.6266  0.8872
12602SOL     OW49783   7.265   7.833  10.220 -0.2810 -0.3718  0.5340
12602SOL    HW149784   7.196   7.894  10.194  0.3896 -0.4200 -1.6244
12602SOL    HW249785   7.220   7.752  10.241 -0.9783  0.0676  0.7647
12603SOL     OW49786   0.564   4.414   0.396  0.2304  0.2103 -0.6021
12603SOL    HW149787   0.545   4.385   0.485  2.0965 -0.1746 -0.2951
12603SOL    HW249788   0.505   4.362   0.341 -0.2554 -0.2463  0.3189
12604SOL     OW49789   6.552   2.418   0.420 -0.6201 -0.5335 -0.3894
12604SOL    HW149790   6.542   2.328   0.388 -0.7598 -0.5198 -0.3836
12604SOL    HW249791   6.570   2.469   0.341  1.8377 -0.9120 -0.1579
12605SOL     OW49792   9.250   0.011   9.314  0.0671  0.3359 -0.0393
12605SOL    HW149793   9.234   0.013   9.409  0.6805 -2.3512  0.1951
12605SOL    HW249794   9.338  -0.025   9.305 -0.2352 -0.0863 -1.6472
12606SOL     OW49795   3.589   4.621   7.192 -0.6665  0.8643 -0.3350
12606SOL    HW149796   3.678   4.598   7.164 -0.2677  2.3474 -0.3562
12606SOL    HW249797   3.552   4.538   7.224  1.1788  0.4527  0.9179
12607SOL     OW49798   6.106   6.080  10.357  1.1198  0.3408 -0.0487
12607SOL    HW149799   6.181   6.028  10.386  1.5901  0.2055 -1.4568
12607SOL    HW249800   6.139   6.170  10.353  0.5593  0.6492  1.4946
12608SOL     OW49801   4.938   0.334   1.374  0.6793 -0.1110 -0.0629
12608SOL    HW149802   4.983   0.271   1.318  0.2923 -0.3576 -0.0991
12608SOL    HW249803   4.891   0.391   1.313 -0.7930 -1.1687  0.0335
12609SOL     OW49804   8.418   4.423   7.458  0.6046  0.2121  0.6079
12609SOL    HW149805   8.442   4.378   7.540  3.9913 -0.0167 -0.3435
12609SOL    HW249806   8.405   4.352   7.395  2.2906  0.3952 -0.0065
12610SOL     OW49807   1.967   5.023   0.411  0.3045  0.4557 -1.1638
12610SOL    HW149808   1.899   5.023   0.343  0.3653 -0.9902 -1.2688
12610SOL    HW249809   1.924   5.056   0.489  0.0339  1.4474 -1.7216
12611SOL     OW49810   4.370   1.102  10.142 -0.3518 -0.7016  0.3882
12611SOL    HW149811   4.332   1.175  10.192  0.8289  0.5842 -0.5105
12611SOL    HW249812   4.448   1.139  10.102  0.7969 -2.7484  0.6320
12612SOL     OW49813   9.980   3.709   6.982  0.3388 -0.2656 -0.4133
12612SOL    HW149814  10.074   3.691   6.973  0.3549 -0.7526  0.6236
12612SOL    HW249815   9.970   3.739   7.072 -0.5098 -0.2465 -0.5086
12613SOL     OW49816   4.523   9.652   9.649 -0.1710 -0.4191 -0.4752
12613SOL    HW149817   4.464   9.708   9.598  1.3627  0.9890 -0.7831
12613SOL    HW249818   4.542   9.704   9.727  0.7268 -0.8290 -0.4184
12614SOL     OW49819   3.583   6.401   5.142  0.2243  0.3310 -0.8502
12614SOL    HW149820   3.536   6.409   5.224 -0.2984 -2.3596 -0.8109
12614SOL    HW249821   3.666   6.359   5.165  0.5669  0.5744 -1.5761
12615SOL     OW49822   8.929   2.626   7.303  0.3489  0.6141  0.0985
12615SOL    HW149823   8.846   2.606   7.346  0.5674  0.9834  0.7045
12615SOL    HW249824   8.996   2.606   7.369  0.7866 -0.2690 -0.5954
12616SOL     OW49825   7.538   0.580   4.185  0.2781  0.0888 -0.3116
12616SOL    HW149826   7.622   0.613   4.152  0.5665  1.7009  1.8307
12616SOL    HW249827   7.481   0.658   4.187 -0.0524 -0.1557  1.8535
12617SOL     OW49828   8.150   0.021   0.657  0.4548 -0.0900  0.4425
12617SOL    HW149829   8.091  -0.008   0.727  1.4719  1.7946  2.2235
12617SOL    HW249830   8.132   0.115   0.648  0.2586 -0.2899 -2.0003
12618SOL     OW49831   7.980   4.673   5.541 -0.6498  0.0352 -0.0889
12618SOL    HW149832   8.067   4.713   5.535 -1.6330  2.6909  1.3940
12618SOL    HW249833   7.922   4.747   5.561 -3.1268 -1.7738 -0.2129
12619SOL     OW49834   0.289   1.836   6.966 -0.2272  0.6075  0.2011
12619SOL    HW149835   0.382   1.859   6.977 -0.3048  0.0026  2.8688
12619SOL    HW249836   0.245   1.920   6.955  0.6250  0.8959 -1.2278
12620SOL     OW49837   7.959   7.949   5.191 -0.0640  0.2013 -0.1708
12620SOL    HW149838   8.003   7.977   5.111  2.2055  0.7207  1.1788
12620SOL    HW249839   7.934   7.858   5.175 -0.0594  0.4386 -1.6124
12621SOL     OW49840   4.361   0.376   9.492  0.7004 -0.0723 -0.2514
12621SOL    HW149841   4.276   0.397   9.454  1.0915 -0.1726 -1.2040
12621SOL    HW249842   4.396   0.459   9.523  1.4402  0.4620 -2.3502
12622SOL     OW49843   9.084   4.928   2.104 -0.3364 -0.0256 -0.3262
12622SOL    HW149844   9.070   4.846   2.151  1.4058  0.1872  0.6290
12622SOL    HW249845   9.171   4.920   2.066 -0.2301  1.2981 -0.4237
12623SOL     OW49846   8.801   9.430   0.267 -0.5289 -0.7584 -0.2762
12623SOL    HW149847   8.804   9.466   0.178  0.5853 -1.5636 -0.5774
12623SOL    HW249848   8.745   9.492   0.315  0.6912  0.9614 -0.9504
12624SOL     OW49849   9.479  10.337   4.070  0.5640  0.9024 -0.0120
12624SOL    HW149850   9.550  10.285   4.109  0.7157  0.5324 -0.7534
12624SOL    HW249851   9.499  10.337   3.976  0.2055  1.7633 -0.0968
12625SOL     OW49852   9.652   6.710   4.201 -0.0566  0.1695  0.8161
12625SOL    HW149853   9.625   6.799   4.177 -0.0020  0.6498  2.3886
12625SOL    HW249854   9.747   6.713   4.201 -0.0439 -0.1118  0.1367
12626SOL     OW49855   4.684   5.812   2.184  0.5982  0.3819  0.0448
12626SOL    HW149856   4.731   5.741   2.227  0.4453  0.4818  0.3805
12626SOL    HW249857   4.703   5.801   2.091 -0.6877 -1.0593 -0.0927
12627SOL     OW49858   9.404   6.127   8.619 -0.8035 -0.7988  0.8720
12627SOL    HW149859   9.409   6.041   8.577 -0.0818 -0.0428 -0.6733
12627SOL    HW249860   9.472   6.126   8.686 -0.6501 -1.3369  0.7109
12628SOL     OW49861   4.363   6.752   9.263  0.8678 -0.3239 -0.0030
12628SOL    HW149862   4.376   6.712   9.177 -1.1484  1.4393 -1.2251
12628SOL    HW249863   4.271   6.735   9.282  0.7066  1.2948  0.7272
12629SOL     OW49864   5.796   4.450   5.752 -0.0713  0.5887  0.5733
12629SOL    HW149865   5.788   4.472   5.845 -0.7040  0.5447  0.5321
12629SOL    HW249866   5.841   4.365   5.752 -0.9672  0.0937  0.8935
12630SOL     OW49867   6.632   9.401   2.387  0.2906  0.3670  0.3578
12630SOL    HW149868   6.689   9.382   2.312 -0.5154 -0.2247 -0.1288
12630SOL    HW249869   6.604   9.314   2.418 -2.0754  0.6470 -0.7866
12631SOL     OW49870   5.870   8.432   2.445 -0.1189 -0.2857  0.4982
12631SOL    HW149871   5.829   8.437   2.531  2.3150  0.0200  1.7120
12631SOL    HW249872   5.931   8.506   2.443 -1.0133  0.4729 -2.0149
12632SOL     OW49873   8.009   2.706   6.584  0.2972  0.6302  0.2471
12632SOL    HW149874   8.048   2.689   6.498 -0.3755  1.5502 -0.2560
12632SOL    HW249875   7.982   2.620   6.616  1.3037  0.1733 -0.0778
12633SOL     OW49876   3.376  10.225   5.312 -0.1516  0.4693 -0.4574
12633SOL    HW149877   3.283  10.216   5.294  0.0123 -1.1013 -0.6632
12633SOL    HW249878   3.403  10.300   5.259 -1.3456  1.1562 -0.1334
12634SOL     OW49879   0.134   9.488   4.798 -0.2529 -0.1990 -0.1235
12634SOL    HW149880   0.152   9.478   4.891 -0.0985  1.1062  0.0087
12634SOL    HW249881   0.081   9.412   4.775  1.3896 -1.5915  0.5673
12635SOL     OW49882   4.251   7.521   2.706 -0.0932 -0.7788  0.4755
12635SOL    HW149883   4.280   7.430   2.711  2.4650 -0.0715  0.0254
12635SOL    HW249884   4.206   7.527   2.621  0.1015 -1.5298  0.3106
12636SOL     OW49885   9.830   2.066   2.048 -0.4546 -0.3545 -0.0825
12636SOL    HW149886   9.849   2.113   1.967 -1.9552 -0.3378 -0.4734
12636SOL    HW249887   9.908   2.077   2.102  1.2197 -1.6303 -2.0932
12637SOL     OW49888   9.644   2.479   6.715 -0.0511 -0.5863 -0.2426
12637SOL    HW149889   9.600   2.413   6.768 -2.4668  1.4494  0.5177
12637SOL    HW249890   9.578   2.509   6.653  0.4729  1.9272  0.2621
12638SOL     OW49891   0.056   1.291   4.025 -0.4720  0.2657  0.2154
12638SOL    HW149892  -0.006   1.362   4.042  0.4496  1.1306  0.0929
12638SOL    HW249893   0.004   1.224   3.981 -1.5992  0.4146  1.2675
12639SOL     OW49894   8.579   9.131   3.076 -0.3987  0.2726 -0.5103
12639SOL    HW149895   8.566   9.040   3.047  1.5142 -0.6807  1.2909
12639SOL    HW249896   8.506   9.147   3.136 -1.3362  0.3447 -1.6294
12640SOL     OW49897   1.708   9.392   3.591 -0.0132 -0.1386 -0.0110
12640SOL    HW149898   1.746   9.384   3.679  0.0452  1.0811  0.0899
12640SOL    HW249899   1.756   9.465   3.551  0.3125 -1.0057 -1.2493
12641SOL     OW49900   7.203   0.892   0.973  0.0312 -0.4596 -0.4600
12641SOL    HW149901   7.299   0.896   0.970  0.0000  0.5142 -0.2982
12641SOL    HW249902   7.181   0.928   1.058 -0.4813 -0.8900 -0.4057
12642SOL     OW49903   2.146   5.392   3.709  0.0007 -0.1475  0.2416
12642SOL    HW149904   2.101   5.455   3.765 -1.6625 -0.0678 -1.0717
12642SOL    HW249905   2.231   5.377   3.751  0.3001  2.6689  0.7880
12643SOL     OW49906  10.239   2.486   8.904 -0.1601 -0.4697 -0.2922
12643SOL    HW149907  10.312   2.457   8.959 -0.3327  0.5545  0.5122
12643SOL    HW249908  10.248   2.435   8.824  2.7058  1.0219 -1.0901
12644SOL     OW49909   5.489   5.686   4.118  0.0385 -1.1126 -0.2826
12644SOL    HW149910   5.479   5.599   4.077 -1.6205 -0.7153 -0.8084
12644SOL    HW249911   5.464   5.672   4.209  1.5598 -1.5342  0.1020
12645SOL     OW49912   1.134   1.776   7.897 -0.2343 -0.1032 -0.3848
12645SOL    HW149913   1.058   1.718   7.890  0.6424 -1.6360  1.7035
12645SOL    HW249914   1.205   1.730   7.852 -0.0214  0.3478 -0.5273
12646SOL     OW49915   2.297   5.937   8.787  0.1927 -0.1067 -0.1572
12646SOL    HW149916   2.256   5.856   8.757 -0.1125 -0.2090  0.5229
12646SOL    HW249917   2.248   5.962   8.865  1.2066 -0.0481  0.4806
12647SOL     OW49918   7.881   1.149   5.006 -0.1964 -0.0528  0.5227
12647SOL    HW149919   7.803   1.149   4.951  0.2285 -0.5615 -0.1005
12647SOL    HW249920   7.910   1.240   5.006 -0.6447  0.0902  0.5491
12648SOL     OW49921   5.817   5.166   1.034  0.3669  0.0539 -0.2027
12648SOL    HW149922   5.747   5.104   1.012  0.3660 -0.1616  0.3835
12648SOL    HW249923   5.771   5.241   1.071  0.4238  0.0375 -0.0984
12649SOL     OW49924   5.021   7.447   9.363 -0.1769  0.0818 -0.0811
12649SOL    HW149925   4.956   7.457   9.433  0.8116  0.6244  0.7884
12649SOL    HW249926   5.004   7.361   9.326 -1.7234  0.4281 -0.2283
12650SOL     OW49927   2.962  10.132   1.965  0.1340  0.5179 -0.3713
12650SOL    HW149928   2.948  10.194   2.036  0.2338 -0.3577  0.4333
12650SOL    HW249929   2.889  10.071   1.972  0.0041  0.5618 -1.1906
12651SOL     OW49930   3.361  10.307   7.538 -0.8145 -0.6752 -0.6232
12651SOL    HW149931   3.418  10.246   7.490 -0.2311 -0.6281 -0.0145
12651SOL    HW249932   3.398  10.309   7.626 -0.7575  0.6477 -0.6579
12652SOL     OW49933   2.748   9.928   3.379 -0.2483  0.1822  0.0593
12652SOL    HW149934   2.835   9.925   3.418 -0.2189 -0.9706 -0.0593
12652SOL    HW249935   2.706   9.847   3.407 -0.7402  0.0030 -1.1250
12653SOL     OW49936  10.389   4.422   9.743 -0.0192  0.0934 -0.3414
12653SOL    HW149937  10.462   4.397   9.800  0.8438 -0.1554 -1.5183
12653SOL    HW249938  10.370   4.343   9.692  0.2756  0.7571 -1.5015
12654SOL     OW49939   8.866   9.301   2.710  0.1429  0.1952 -0.1047
12654SOL    HW149940   8.815   9.351   2.645 -0.4914 -0.7824 -0.3800
12654SOL    HW249941   8.933   9.362   2.739 -0.1168  0.9509 -1.0261
12655SOL     OW49942   1.504   1.799   2.191  0.2500 -0.5112  0.1937
12655SOL    HW149943   1.472   1.708   2.189  0.3722 -0.5799  0.9478
12655SOL    HW249944   1.462   1.837   2.268 -0.6089  0.3916 -0.6794
12656SOL     OW49945   7.272   2.526   8.707 -0.4205  0.0366  0.1901
12656SOL    HW149946   7.300   2.510   8.617  0.1947 -0.0333  0.3915
12656SOL    HW249947   7.186   2.568   8.698 -0.3795 -0.0048 -0.4276
12657SOL     OW49948   0.204   0.532   6.259  0.4798 -0.4630 -0.4107
12657SOL    HW149949   0.146   0.573   6.324 -1.8549 -1.3701 -1.7847
12657SOL    HW249950   0.292   0.556   6.288 -0.5727  2.2461  0.9992
12658SOL     OW49951   3.649   4.777   2.648  0.0503 -0.0296  0.2998
12658SOL    HW149952   3.679   4.691   2.676  0.3960  0.0875  0.2898
12658SOL    HW249953   3.607   4.761   2.563  0.6703 -0.0960  0.0013
12659SOL     OW49954   1.867   6.833   6.093 -0.1444 -0.1046  0.2398
12659SOL    HW149955   1.932   6.899   6.117 -1.0808  0.6085  0.8717
12659SOL    HW249956   1.919   6.756   6.070  0.9308  0.5146  0.5223
12660SOL     OW49957   5.909   0.870   1.384  0.0614  0.3292 -0.5264
12660SOL    HW149958   5.913   0.835   1.295 -1.6272 -0.7995 -0.2042
12660SOL    HW249959   5.960   0.807   1.436 -2.1003 -1.2024 -0.1232
12661SOL     OW49960   1.413   4.759   6.737 -0.6342  0.6264 -0.0784
12661SOL    HW149961   1.400   4.849   6.766 -0.8363  0.3605  0.6982
12661SOL    HW249962   1.347   4.745   6.670  1.4592  2.0730 -2.6410
12662SOL     OW49963   2.649   9.949   3.677  0.3188 -1.1889  0.4932
12662SOL    HW149964   2.738   9.984   3.682 -0.0352 -0.2793  0.6584
12662SOL    HW249965   2.642   9.890   3.752 -0.0023  0.6505  1.9838
12663SOL     OW49966   0.184   6.134   6.276  0.2068  0.6810  0.2680
12663SOL    HW149967   0.279   6.134   6.288  0.0765  0.4626  1.3538
12663SOL    HW249968   0.159   6.041   6.282 -0.1421  0.7885  0.4871
12664SOL     OW49969   9.102   9.649   4.272 -0.4160 -0.3172  0.7191
12664SOL    HW149970   9.077   9.719   4.211 -0.7718 -0.4896  0.6662
12664SOL    HW249971   9.171   9.601   4.226  2.4797  2.1329  2.1519
12665SOL     OW49972   3.167   2.824   3.494 -0.2168  0.1181  0.5416
12665SOL    HW149973   3.113   2.794   3.421 -0.4417 -0.1361  0.8099
12665SOL    HW249974   3.157   2.919   3.493  0.2240  0.1671 -0.0988
12666SOL     OW49975   0.526   5.458   6.252  0.1659  0.3050 -0.0714
12666SOL    HW149976   0.620   5.464   6.233  0.1883  0.6212  0.1233
12666SOL    HW249977   0.511   5.366   6.270  0.6121  0.3781  0.7448
12667SOL     OW49978   1.771  10.037   7.608 -0.1140 -0.8941 -0.1721
12667SOL    HW149979   1.710  10.083   7.550 -0.7294 -1.0592  0.3300
12667SOL    HW249980   1.767   9.946   7.579  1.4227 -0.5970 -1.4405
12668SOL     OW49981  10.112   1.486   8.389  0.2682  0.1651 -0.7297
12668SOL    HW149982  10.137   1.516   8.302  2.4109 -0.0118 -0.2317
12668SOL    HW249983  10.193   1.490   8.441  0.7965 -5.7095 -0.4012
12669SOL     OW49984   2.467   7.760   3.678 -0.5820 -0.5287 -0.5783
12669SOL    HW149985   2.478   7.723   3.590 -1.5228 -1.8485 -0.1679
12669SOL    HW249986   2.487   7.687   3.737  2.1026  0.8545  0.4139
12670SOL     OW49987   0.607   0.804   7.377 -0.1206  0.3497  0.3218
12670SOL    HW149988   0.559   0.729   7.342 -0.3290  0.7909 -0.3543
12670SOL    HW249989   0.671   0.825   7.309 -1.1355  1.7914 -0.2329
12671SOL     OW49990   2.731   0.111   3.819 -0.2924 -0.1278 -0.5127
12671SOL    HW149991   2.661   0.170   3.792 -2.1941 -0.6361  2.7708
12671SOL    HW249992   2.795   0.168   3.864  0.0419 -0.0364 -1.0933
12672SOL     OW49993   1.057   0.330   1.296  0.0614  0.4624  0.4908
12672SOL    HW149994   1.055   0.238   1.270  0.1064  0.6242 -0.0970
12672SOL    HW249995   1.146   0.344   1.328  0.5765  0.7091 -0.9681
12673SOL     OW49996  10.056  10.262   6.647  0.5831  0.0263  0.2926
12673SOL    HW149997  10.057  10.353   6.617  1.0072 -0.0440  0.0799
12673SOL    HW249998  10.088  10.267   6.738  0.0890  0.1458  0.4643
12674SOL     OW49999   2.375   5.901   5.972 -0.0767 -0.0040  0.0114
12674SOL    HW150000   2.423   5.896   5.889 -1.1327 -0.1235 -0.6076
12674SOL    HW250001   2.337   5.989   5.973 -0.8506 -0.3300 -0.0854
12675SOL     OW50002   5.891   8.464   6.287  0.6307 -0.1501  0.4361
12675SOL    HW150003   5.898   8.501   6.200  0.3736 -1.1012 -0.0038
12675SOL    HW250004   5.806   8.493   6.319 -0.6230 -2.1476 -0.8135
12676SOL     OW50005   8.291   4.692   0.550  0.4233  0.2014  0.3163
12676SOL    HW150006   8.198   4.703   0.571  0.9789  0.1721  3.1984
12676SOL    HW250007   8.292   4.673   0.456 -2.5576 -0.6948  0.3484
12677SOL     OW50008   9.263   8.747   8.812  0.3536 -0.4040 -0.3590
12677SOL    HW150009   9.282   8.737   8.719  0.7730 -0.1184 -0.3051
12677SOL    HW250010   9.301   8.670   8.853  2.5956  0.7576 -0.0859
12678SOL     OW50011  10.389   4.709   0.750 -0.5997 -0.1327 -0.2788
12678SOL    HW150012  10.452   4.712   0.821  1.1942  0.4947 -1.8017
12678SOL    HW250013  10.335   4.786   0.762 -0.1809  0.0792  0.2841
12679SOL     OW50014   5.935   0.326   5.971 -0.0827  0.6740 -0.3340
12679SOL    HW150015   5.999   0.308   5.903  2.0012 -0.3113  1.7459
12679SOL    HW250016   5.923   0.243   6.017 -2.6954  0.8974 -0.4196
12680SOL     OW50017   1.901   1.400   3.715  0.3744  0.0903  0.4673
12680SOL    HW150018   1.934   1.422   3.803  2.4667  2.3675 -0.7621
12680SOL    HW250019   1.852   1.478   3.688 -2.5162 -1.5746  0.5149
12681SOL     OW50020   2.712   0.841   7.395  0.1534 -0.1341 -0.0507
12681SOL    HW150021   2.781   0.824   7.331 -0.6108 -0.5806 -0.7808
12681SOL    HW250022   2.682   0.929   7.375  0.2967 -0.0611  0.0570
12682SOL     OW50023   0.562   6.355   6.104  0.5277  0.6119  0.1616
12682SOL    HW150024   0.555   6.262   6.125  0.0494  0.6130  0.0140
12682SOL    HW250025   0.623   6.358   6.030  1.5630  0.5370  0.9912
12683SOL     OW50026   7.412   9.249   7.594 -0.0074 -0.0630  0.0244
12683SOL    HW150027   7.405   9.343   7.574 -0.5266 -0.4771 -1.9102
12683SOL    HW250028   7.387   9.243   7.686  0.6668  1.7720  0.3694
12684SOL     OW50029   9.247   4.290   6.778  0.3003 -0.1372 -0.1317
12684SOL    HW150030   9.173   4.284   6.839  0.3544 -0.7189 -0.1257
12684SOL    HW250031   9.295   4.368   6.808  0.7248 -0.8146  1.0254
12685SOL     OW50032   2.910  10.117   0.980 -0.5942  0.2520 -0.1745
12685SOL    HW150033   2.826  10.161   0.998  0.5492  3.2559 -1.4723
12685SOL    HW250034   2.972  10.162   1.038  0.5212 -0.2797 -0.9388
12686SOL     OW50035   3.281   9.412   4.345  0.4785 -0.5687  0.4945
12686SOL    HW150036   3.258   9.496   4.384  1.6050 -0.0629  0.1066
12686SOL    HW250037   3.313   9.434   4.257 -0.3317 -1.5194 -0.0684
12687SOL     OW50038   6.271  10.391   9.342 -0.0339  0.2401 -0.1924
12687SOL    HW150039   6.274  10.296   9.334  0.5202  0.2883 -0.6179
12687SOL    HW250040   6.351  10.414   9.390 -0.3021  0.4705  0.1491
12688SOL     OW50041   1.672   0.418   9.639 -0.0147  0.2655  0.3461
12688SOL    HW150042   1.581   0.447   9.646 -0.6444 -0.3809 -3.0842
12688SOL    HW250043   1.711   0.476   9.574  1.4143 -0.7540  0.2371
12689SOL     OW50044   9.720   4.673   3.063  0.1563  0.0891  0.1020
12689SOL    HW150045   9.763   4.720   3.134 -0.5456  0.3347  0.3696
12689SOL    HW250046   9.652   4.622   3.106  0.0417 -0.1393 -0.3418
12690SOL     OW50047   3.617   1.469   6.357  0.6403 -0.2634  0.5102
12690SOL    HW150048   3.639   1.378   6.377  2.3049 -0.3759 -1.4945
12690SOL    HW250049   3.535   1.485   6.404  1.8957 -1.7746  3.4931
12691SOL     OW50050   2.597   8.255   6.875  0.3775 -0.2445 -0.2140
12691SOL    HW150051   2.542   8.333   6.887 -0.0353 -0.4272 -0.8936
12691SOL    HW250052   2.576   8.224   6.787  2.4200  0.3485 -0.9781
12692SOL     OW50053   5.892  10.223   6.173  0.4751  0.0302 -0.1960
12692SOL    HW150054   5.932  10.155   6.118  0.6993  0.2677 -0.3255
12692SOL    HW250055   5.850  10.283   6.112  1.7813  0.9849 -0.2054
12693SOL     OW50056   3.383   5.693   5.673 -0.2513  0.5366 -0.2718
12693SOL    HW150057   3.424   5.750   5.738  0.6512 -0.1575 -0.1991
12693SOL    HW250058   3.456   5.665   5.618  0.2482 -3.7885  2.1058
12694SOL     OW50059   0.368   9.127   5.123 -1.1676 -1.6133 -0.4449
12694SOL    HW150060   0.364   9.097   5.214 -1.0542  0.4588  0.2889
12694SOL    HW250061   0.461   9.145   5.109 -1.1040 -2.4496 -1.1797
12695SOL     OW50062   9.124   1.209   4.620 -0.0141  0.2505 -0.1939
12695SOL    HW150063   9.170   1.286   4.653  1.9749 -0.7934 -0.3403
12695SOL    HW250064   9.096   1.163   4.699 -1.4830  1.2286 -0.1076
12696SOL     OW50065   0.942   3.701   2.270  0.1308 -0.0702 -0.3009
12696SOL    HW150066   0.903   3.614   2.263 -1.4373  0.6280 -0.7363
12696SOL    HW250067   0.899   3.739   2.347  1.0870  0.2050  0.1138
12697SOL     OW50068   1.890   9.704   8.869 -0.1738  0.5902  0.9566
12697SOL    HW150069   1.809   9.744   8.837  0.9727  1.2371 -1.3253
12697SOL    HW250070   1.881   9.611   8.849  0.3046  0.9115 -0.8713
12698SOL     OW50071   7.107   9.922   4.374 -0.1788  0.3666 -0.1246
12698SOL    HW150072   7.066   9.904   4.458  0.5452  0.5541  0.2792
12698SOL    HW250073   7.136  10.013   4.380 -0.3844  0.4757 -0.6950
12699SOL     OW50074   0.051   1.350   0.324  0.0648 -0.1772 -0.1785
12699SOL    HW150075   0.143   1.375   0.319 -0.1045  1.4969  2.8594
12699SOL    HW250076   0.051   1.265   0.369  0.1002  0.2476  0.6315
12700SOL     OW50077   0.222   1.789   4.007 -0.3139 -0.7525 -0.3984
12700SOL    HW150078   0.294   1.731   3.984  0.9256  1.7193 -3.5842
12700SOL    HW250079   0.144   1.735   3.999  0.9143 -2.5327 -0.9025
12701SOL     OW50080   5.596   0.647   4.126 -0.5616 -0.0260 -0.0539
12701SOL    HW150081   5.574   0.566   4.173 -0.6808  0.1137  0.1340
12701SOL    HW250082   5.689   0.639   4.106 -0.2450  0.3905  1.1624
12702SOL     OW50083   8.001   3.617   5.906  0.5240 -0.3738 -0.5386
12702SOL    HW150084   8.007   3.545   5.968 -1.2096 -0.6636 -0.6582
12702SOL    HW250085   7.907   3.633   5.897  0.8578  2.0931 -0.3114
12703SOL     OW50086   0.502   0.512   0.544 -0.0039  0.4379  0.2156
12703SOL    HW150087   0.543   0.543   0.624 -0.3559 -0.4924  0.7635
12703SOL    HW250088   0.521   0.418   0.541 -1.0191  0.2271 -0.1613
12704SOL     OW50089   1.348   4.534   8.300  0.3439 -0.4864 -0.1548
12704SOL    HW150090   1.300   4.452   8.312  3.3913 -2.3915 -0.0969
12704SOL    HW250091   1.385   4.553   8.387 -0.8517  1.4229  0.0177
12705SOL     OW50092   0.043   4.856   9.144  0.1324  0.6909 -0.0013
12705SOL    HW150093   0.033   4.864   9.049 -1.2233  0.5566  0.0995
12705SOL    HW250094   0.070   4.943   9.173 -1.3891  1.3083 -0.3189
12706SOL     OW50095   1.799   4.029   9.802 -0.9355 -0.3151 -0.4692
12706SOL    HW150096   1.871   4.015   9.740  0.6424  0.2908  1.1308
12706SOL    HW250097   1.756   4.108   9.771  0.7281  0.8049 -0.0519
12707SOL     OW50098   6.956   7.884   5.835  0.0141 -0.5858  0.2663
12707SOL    HW150099   6.916   7.814   5.886 -1.3456 -0.2990 -0.3647
12707SOL    HW250100   6.956   7.852   5.745  0.8155 -0.3857  0.1818
12708SOL     OW50101   0.994   6.545   8.529  0.1282 -0.4391  0.3035
12708SOL    HW150102   1.079   6.503   8.544 -0.1951 -1.4136 -0.5073
12708SOL    HW250103   1.000   6.628   8.576  1.3160 -0.7521  0.7402
12709SOL     OW50104   1.749   2.589   0.624 -0.0325  0.2421 -0.6158
12709SOL    HW150105   1.672   2.584   0.681  0.7157 -0.6026  0.3540
12709SOL    HW250106   1.750   2.680   0.593 -0.7769  0.5687  0.2653
12710SOL     OW50107   2.610   2.955   3.620  0.4498 -0.1031  0.6284
12710SOL    HW150108   2.589   2.908   3.701  1.2893  0.2484  1.0713
12710SOL    HW250109   2.697   2.991   3.636  0.4328  0.3602 -0.2669
12711SOL     OW50110   1.656   0.466   8.981 -0.3226  0.1908  0.4937
12711SOL    HW150111   1.749   0.448   8.994 -0.3699 -0.4888 -0.0207
12711SOL    HW250112   1.616   0.379   8.974 -1.0788  0.4605  1.2197
12712SOL     OW50113   4.999   4.672   7.290  0.3332 -0.1532  0.1183
12712SOL    HW150114   4.982   4.717   7.373  0.7112 -0.9716  0.6484
12712SOL    HW250115   4.932   4.706   7.230 -0.2483  0.0849  0.8955
12713SOL     OW50116   5.124   7.432   0.697 -0.0381 -0.0165  0.3954
12713SOL    HW150117   5.049   7.417   0.640 -1.1643  3.9434  0.5908
12713SOL    HW250118   5.092   7.413   0.785 -0.6866  1.1417  0.4214
12714SOL     OW50119   5.545   9.524   7.519 -0.5148 -0.5187  0.5367
12714SOL    HW150120   5.609   9.588   7.550  0.1305 -0.4141 -0.9305
12714SOL    HW250121   5.586   9.439   7.535 -0.2700 -0.4718  0.1684
12715SOL     OW50122   3.805   2.359   8.605 -0.5530 -0.0169 -0.0061
12715SOL    HW150123   3.865   2.429   8.581 -1.1618  0.7673  0.6712
12715SOL    HW250124   3.782   2.317   8.523 -0.8331  1.1391 -0.5457
12716SOL     OW50125   7.163   4.619   3.547  0.3575  0.7897 -0.1843
12716SOL    HW150126   7.189   4.710   3.558  1.9228  0.5089 -1.2159
12716SOL    HW250127   7.171   4.581   3.635  0.6248  1.4200  0.0695
12717SOL     OW50128   3.329   7.790   7.824  0.3187  0.0157  0.5198
12717SOL    HW150129   3.276   7.818   7.750  1.8386  2.6337  0.3066
12717SOL    HW250130   3.271   7.799   7.900 -0.5529 -0.5095 -0.0615
12718SOL     OW50131   7.442   4.728   2.356  0.0986  0.8004 -0.0441
12718SOL    HW150132   7.359   4.743   2.311 -0.8289 -0.4755  1.1805
12718SOL    HW250133   7.447   4.797   2.421 -0.5382  0.2597  0.5922
12719SOL     OW50134   0.279   0.477   8.627  0.0796 -0.0325 -0.0176
12719SOL    HW150135   0.230   0.536   8.684  2.2538  2.0612 -0.1544
12719SOL    HW250136   0.305   0.405   8.684 -1.0362  0.0619  0.6362
12720SOL     OW50137   1.490   6.037   0.955 -0.1111 -0.2110  0.4143
12720SOL    HW150138   1.580   6.016   0.983  0.2504 -0.9712 -1.2221
12720SOL    HW250139   1.492   6.029   0.860 -2.1872 -1.3266  0.4136
12721SOL     OW50140   0.771   2.039   6.956  0.2859 -0.3250 -0.6559
12721SOL    HW150141   0.700   1.997   6.908  0.1214 -0.3415 -0.3982
12721SOL    HW250142   0.742   2.039   7.047  0.2960  0.3209 -0.6467
12722SOL     OW50143   9.472   4.812   2.420 -0.0156  0.1362  0.2664
12722SOL    HW150144   9.502   4.866   2.493 -0.6499 -0.8642  1.2966
12722SOL    HW250145   9.461   4.873   2.347 -0.1688  1.2918  1.2363
12723SOL     OW50146   2.884   2.592   6.332  0.1264  0.0494  0.2736
12723SOL    HW150147   2.882   2.518   6.392 -2.3562  0.9168  1.4153
12723SOL    HW250148   2.929   2.661   6.382  1.4753 -0.3090 -0.3856
12724SOL     OW50149   5.169   1.211   6.932  0.0193 -0.4471  0.1179
12724SOL    HW150150   5.185   1.213   7.026  1.2556 -1.2320 -0.0494
12724SOL    HW250151   5.253   1.188   6.894 -0.2892  0.5231 -1.2448
12725SOL     OW50152   7.723   1.754   3.617  0.0168  0.4207 -0.6739
12725SOL    HW150153   7.744   1.661   3.625  0.8762  0.4685 -2.1655
12725SOL    HW250154   7.737   1.789   3.705 -0.7093 -0.9106  0.0053
12726SOL     OW50155   9.902   8.607   2.215  0.3515 -0.2793  0.3800
12726SOL    HW150156   9.864   8.531   2.171  1.1784 -0.6082  0.2028
12726SOL    HW250157   9.970   8.570   2.272  0.2714  0.2684  0.8412
12727SOL     OW50158   7.006   9.339   4.232 -0.2191 -0.1666  0.0176
12727SOL    HW150159   6.979   9.425   4.265 -1.2924 -0.4138 -0.1821
12727SOL    HW250160   6.946   9.321   4.159  0.3779 -0.8259 -0.3211
12728SOL     OW50161   0.006   7.690   3.616 -0.0960 -0.1396  0.9046
12728SOL    HW150162  -0.029   7.609   3.580 -0.5748  0.5811 -0.3103
12728SOL    HW250163  -0.067   7.752   3.615  0.7109  0.8522  0.0522
12729SOL     OW50164   0.180   8.561  10.201 -0.2199 -0.5304 -0.0313
12729SOL    HW150165   0.211   8.575  10.112  1.1151  0.1258  0.5161
12729SOL    HW250166   0.108   8.498  10.191  1.2569 -2.1166 -1.3747
12730SOL     OW50167   3.984   1.462   9.277 -0.6889 -0.3330  0.0846
12730SOL    HW150168   4.055   1.404   9.305 -1.0810 -0.5152  0.7196
12730SOL    HW250169   3.945   1.418   9.201  0.1223 -0.0385 -0.5166
12731SOL     OW50170  10.119   7.036   4.058  0.0381  0.4401 -0.5181
12731SOL    HW150171  10.101   7.101   4.125  1.4695 -1.7751  2.2520
12731SOL    HW250172  10.036   6.990   4.046 -0.1648  0.6461  0.0523
12732SOL     OW50173   5.372   7.631  10.067 -0.2100  0.2855  0.0676
12732SOL    HW150174   5.303   7.595  10.011 -0.6126 -0.8916  1.2835
12732SOL    HW250175   5.439   7.662  10.005 -1.0096 -0.2136 -1.0753
12733SOL     OW50176   6.295   9.799   2.401  0.0527  0.2578 -0.0774
12733SOL    HW150177   6.292   9.879   2.349  2.5900  0.1396 -0.5357
12733SOL    HW250178   6.339   9.735   2.345 -0.2963 -0.9354  0.9425
12734SOL     OW50179   8.947  10.037   5.948 -0.1385  0.5680 -0.7304
12734SOL    HW150180   8.969  10.048   5.856 -0.2216  1.9287 -0.6115
12734SOL    HW250181   8.903  10.119   5.972 -0.5049  0.0597  0.4051
12735SOL     OW50182   8.331   5.943   8.933 -0.5967 -0.3002 -0.2086
12735SOL    HW150183   8.398   5.877   8.920 -1.0011 -0.8009  0.1797
12735SOL    HW250184   8.301   5.966   8.845 -1.0514 -1.2710 -0.3227
12736SOL     OW50185   6.946   0.751  10.118 -0.3467 -0.0194 -0.2490
12736SOL    HW150186   7.032   0.711  10.104 -0.7926 -1.3491  0.6659
12736SOL    HW250187   6.896   0.685  10.166 -1.3961  1.3136  0.5567
12737SOL     OW50188   0.807   9.014   3.948 -0.7268  0.1095  0.1272
12737SOL    HW150189   0.816   8.967   3.865 -0.6959  1.4890 -0.6843
12737SOL    HW250190   0.874   8.976   4.004 -0.2127 -0.3066 -0.7416
12738SOL     OW50191   4.342   8.649   4.859 -0.0972 -0.1516 -0.1300
12738SOL    HW150192   4.373   8.571   4.812  0.6622  0.5710 -0.8577
12738SOL    HW250193   4.414   8.712   4.851 -0.2384  0.2417  1.4257
12739SOL     OW50194   0.101   1.990   8.848  0.6923 -0.0883  0.0850
12739SOL    HW150195   0.076   2.053   8.780 -0.6332  1.0464  1.5372
12739SOL    HW250196   0.030   1.925   8.847  0.3580  0.2535  0.7355
12740SOL     OW50197   4.809   0.800   2.433  0.1263 -0.0031  0.2166
12740SOL    HW150198   4.844   0.877   2.389 -0.3600 -0.0222 -0.2257
12740SOL    HW250199   4.726   0.783   2.388 -0.3412 -0.0817  1.0849
12741SOL     OW50200   1.686   2.814   2.878  0.2461  0.7065  0.1492
12741SOL    HW150201   1.768   2.765   2.867  0.9772  1.3031  2.3697
12741SOL    HW250202   1.620   2.759   2.836  1.0887 -2.0364  2.1260
12742SOL     OW50203   1.590  10.067   5.484  0.0574 -0.0050 -0.2604
12742SOL    HW150204   1.595  10.032   5.573  1.6792  0.2434 -0.2076
12742SOL    HW250205   1.670  10.035   5.441 -0.8092 -0.3025 -1.7059
12743SOL     OW50206   9.882   6.583   6.026 -0.2957 -0.3483  0.3527
12743SOL    HW150207   9.809   6.627   6.070  0.7455  2.1857 -0.2268
12743SOL    HW250208   9.931   6.655   5.986  2.9063 -1.8719  1.2731
12744SOL     OW50209   5.533   4.019   3.139  0.7903 -0.1632 -0.3518
12744SOL    HW150210   5.470   3.947   3.148  0.8983 -0.1440  0.6764
12744SOL    HW250211   5.509   4.062   3.056 -0.8331  0.1152  0.2334
12745SOL     OW50212   7.299   0.910   5.202 -0.0897  0.2415  0.5776
12745SOL    HW150213   7.220   0.857   5.193 -1.5862  2.4562  0.0462
12745SOL    HW250214   7.359   0.854   5.252 -1.4474 -2.0246 -0.1710
12746SOL     OW50215  10.318   6.627   3.264 -0.2407 -0.2817 -0.1651
12746SOL    HW150216  10.334   6.554   3.324  0.3137 -0.9010 -1.0495
12746SOL    HW250217  10.234   6.663   3.292  0.5105  0.1726  1.7004
12747SOL     OW50218   0.296   8.653   1.632  0.3268  0.2045 -0.5386
12747SOL    HW150219   0.270   8.719   1.568 -0.2472  1.1642  0.6398
12747SOL    HW250220   0.215   8.634   1.680  1.0111  0.5645  0.8098
12748SOL     OW50221   0.084   9.074   3.984 -0.5128  0.4171 -0.2169
12748SOL    HW150222   0.037   8.997   4.017 -0.5972  0.3619 -0.4702
12748SOL    HW250223   0.154   9.039   3.930 -0.7901  0.5283 -0.6533
12749SOL     OW50224   4.452   5.212   0.516 -0.1819 -0.1472 -0.1104
12749SOL    HW150225   4.418   5.168   0.593  0.0539 -1.0717 -0.5090
12749SOL    HW250226   4.540   5.176   0.505 -0.0297  0.3355 -0.5212
12750SOL     OW50227   4.898   9.448   7.236 -0.2691  0.5686 -0.0444
12750SOL    HW150228   4.891   9.543   7.226 -0.9638  0.3550 -2.0795
12750SOL    HW250229   4.828   9.413   7.181 -0.3681 -1.1232  1.0982
12751SOL     OW50230   3.540   0.320   9.149  0.6682 -0.0600  0.2815
12751SOL    HW150231   3.631   0.291   9.145  0.0570 -1.9848 -0.6770
12751SOL    HW250232   3.526   0.367   9.067  0.5042 -0.7055 -0.0627
12752SOL     OW50233   3.729   6.738   5.176  0.1735  0.6671 -0.5099
12752SOL    HW150234   3.783   6.696   5.243 -1.2502 -0.7410 -0.1730
12752SOL    HW250235   3.731   6.831   5.198 -0.2483  0.2398  1.5171
12753SOL     OW50236   1.263   7.176   7.860  0.0949  0.1256 -0.5507
12753SOL    HW150237   1.230   7.205   7.945 -0.8692  0.2067 -0.9378
12753SOL    HW250238   1.342   7.127   7.880  1.0957  1.9751  0.2329
12754SOL     OW50239   9.892   7.541   0.236 -0.2456 -0.3115 -0.2281
12754SOL    HW150240   9.963   7.484   0.206 -0.4813 -0.8192  0.1753
12754SOL    HW250241   9.832   7.483   0.283 -0.0765  0.3954  0.9058
12755SOL     OW50242   2.572   3.206   0.084 -0.3210  0.1024 -0.0527
12755SOL    HW150243   2.535   3.292   0.060 -0.3041  0.2445  0.4217
12755SOL    HW250244   2.519   3.143   0.035 -2.2463  0.1903  1.7593
12756SOL     OW50245   5.822   9.346   8.824  0.4771  0.0095  0.8171
12756SOL    HW150246   5.782   9.427   8.794  1.3920  1.1790  2.5378
12756SOL    HW250247   5.754   9.302   8.874 -0.0424 -0.3184 -0.1729
12757SOL     OW50248   4.703   5.414   7.238  0.3281  0.3228  0.1303
12757SOL    HW150249   4.745   5.385   7.319 -0.7887  0.5185  0.8028
12757SOL    HW250250   4.774   5.452   7.187  1.1204 -0.1374  0.8529
12758SOL     OW50251   9.670   2.960   6.905 -0.0358  0.1950 -0.2240
12758SOL    HW150252   9.678   2.867   6.926 -0.7475 -0.5932 -2.9398
12758SOL    HW250253   9.761   2.990   6.895  0.1943 -0.2527  0.4493
12759SOL     OW50254   4.118   8.121   8.140  0.0694 -0.0836  0.3875
12759SOL    HW150255   4.203   8.106   8.099 -0.2704 -1.7663  0.2054
12759SOL    HW250256   4.139   8.160   8.225  1.0701 -0.9833  0.5789
12760SOL     OW50257   4.049   5.914   5.987 -0.0677 -0.4236  0.6773
12760SOL    HW150258   3.959   5.909   6.018  0.3408  0.9497  2.2129
12760SOL    HW250259   4.091   5.835   6.023 -0.5861 -0.9599  0.1279
12761SOL     OW50260   0.630   0.146   5.255 -0.1340  0.3319  0.4593
12761SOL    HW150261   0.591   0.192   5.329  0.2076 -0.5893  1.2189
12761SOL    HW250262   0.555   0.118   5.203 -0.3547  1.5970  0.0546
12762SOL     OW50263   5.338   3.163   5.153 -0.6976 -0.3976  0.1339
12762SOL    HW150264   5.389   3.204   5.223 -1.1255  0.0496  0.1915
12762SOL    HW250265   5.278   3.232   5.124  2.1064  0.8620 -3.4427
12763SOL     OW50266  10.180   9.231  10.328 -0.1608 -0.3700  0.2296
12763SOL    HW150267  10.179   9.257  10.420  1.4547 -0.9471  0.4484
12763SOL    HW250268  10.104   9.275  10.289  0.3015  1.5434  1.3839
12764SOL     OW50269   9.446   6.327   8.999  0.3585  0.2810 -1.2053
12764SOL    HW150270   9.403   6.398   9.046  1.2677  0.4417 -0.5983
12764SOL    HW250271   9.539   6.341   9.014  0.6383 -0.0984 -2.4363
12765SOL     OW50272   6.853   1.349   3.938 -1.1888 -0.1121 -0.2057
12765SOL    HW150273   6.765   1.362   3.902 -0.0651  0.0132 -3.1628
12765SOL    HW250274   6.901   1.302   3.870  1.5973  1.5173  0.4547
12766SOL     OW50275   6.181   0.059   6.771  0.3744 -0.4559  0.0962
12766SOL    HW150276   6.109  -0.003   6.778  0.6040 -0.6932  0.4116
12766SOL    HW250277   6.250   0.010   6.726  1.0808 -0.9254  1.6114
12767SOL     OW50278   4.299   0.540   2.009 -0.1011  0.5941 -0.0703
12767SOL    HW150279   4.301   0.525   2.104  0.7996  0.2665 -0.1384
12767SOL    HW250280   4.385   0.513   1.978 -0.7489 -0.3190 -1.1467
12768SOL     OW50281   3.607   1.138   5.765 -0.3008 -0.3598 -0.4676
12768SOL    HW150282   3.589   1.094   5.682 -0.9039  1.6096 -1.4505
12768SOL    HW250283   3.546   1.097   5.827 -0.6364 -1.0895 -1.2570
12769SOL     OW50284  10.050   8.333   7.474  0.0958 -0.3491 -0.2920
12769SOL    HW150285  10.023   8.298   7.559  0.4235  1.3233  0.5562
12769SOL    HW250286  10.112   8.402   7.496  1.9286 -1.3352 -2.0007
12770SOL     OW50287   1.506   7.180   9.528 -1.2545  0.0941  0.3261
12770SOL    HW150288   1.427   7.127   9.539 -0.5266 -1.3306 -0.8956
12770SOL    HW250289   1.549   7.177   9.614 -1.6639 -0.5733  0.5155
12771SOL     OW50290   8.458   7.872   1.702 -0.2155  0.6987 -0.1498
12771SOL    HW150291   8.525   7.810   1.730 -0.3885  0.6351  0.1232
12771SOL    HW250292   8.439   7.849   1.611 -0.1163  0.4981 -0.1185
12772SOL     OW50293   8.537   0.538   1.219 -0.0668  0.1015  0.6579
12772SOL    HW150294   8.628   0.544   1.249  0.4589 -0.5371 -0.7131
12772SOL    HW250295   8.539   0.468   1.153 -1.9705 -1.4068  2.0859
12773SOL     OW50296   1.520   8.960   6.590 -0.1309  0.8144 -0.0153
12773SOL    HW150297   1.546   8.871   6.610 -0.4418  0.2392 -1.9458
12773SOL    HW250298   1.570   9.015   6.650 -0.3028 -0.6639  1.5289
12774SOL     OW50299   8.002   6.399   6.321 -0.1730  0.6374  0.2379
12774SOL    HW150300   8.086   6.374   6.361 -0.2817 -1.8869 -0.9465
12774SOL    HW250301   7.936   6.361   6.379 -0.4036 -0.1076 -0.5017
12775SOL     OW50302   7.970   0.276   3.416  0.6300  0.1773  0.7490
12775SOL    HW150303   7.943   0.252   3.505 -0.1749 -0.1530  0.4266
12775SOL    HW250304   8.062   0.298   3.424  0.5306  0.2929  1.6971
12776SOL     OW50305   4.612   8.175   3.712 -0.3924  0.3519 -0.1867
12776SOL    HW150306   4.664   8.110   3.760  0.8015 -0.4906 -2.4564
12776SOL    HW250307   4.543   8.199   3.773  0.0338 -1.8862  1.3366
12777SOL     OW50308   4.646   0.800   9.557 -0.0297 -0.2106  0.4122
12777SOL    HW150309   4.589   0.751   9.498 -1.4004  0.0450  1.4872
12777SOL    HW250310   4.732   0.796   9.515 -0.5053 -1.8513 -0.5148
12778SOL     OW50311   1.527   4.963  10.079  0.2754 -0.4217  0.1361
12778SOL    HW150312   1.482   4.996  10.001 -1.5620 -1.0921  0.8475
12778SOL    HW250313   1.462   4.907  10.122  1.0176  0.3915  2.4690
12779SOL     OW50314   0.789   5.612  10.148  0.9046 -0.0857  0.1530
12779SOL    HW150315   0.763   5.570  10.230  1.2880  0.5519  0.6080
12779SOL    HW250316   0.878   5.579  10.132 -0.2548 -2.7143 -1.6984
12780SOL     OW50317   6.069   3.929   8.850  0.1149 -0.5705 -0.0388
12780SOL    HW150318   6.025   3.968   8.925 -0.6676 -0.8198 -0.3582
12780SOL    HW250319   5.999   3.908   8.789  0.6913 -0.8634 -0.6152
12781SOL     OW50320   1.610   7.798   7.373 -0.4109  0.0529  0.0912
12781SOL    HW150321   1.524   7.785   7.413 -1.3420  0.5360 -1.6382
12781SOL    HW250322   1.626   7.892   7.381 -1.2337  0.3983 -1.7584
12782SOL     OW50323   6.668   7.915   5.875  0.6110  0.7721  0.1482
12782SOL    HW150324   6.763   7.927   5.876  0.7137 -0.0097  0.0879
12782SOL    HW250325   6.652   7.853   5.804  0.1111  0.4135  0.5685
12783SOL     OW50326   4.244   9.664   2.048  0.4738 -0.1180  0.0107
12783SOL    HW150327   4.254   9.717   1.969  0.4361 -0.1494 -0.0147
12783SOL    HW250328   4.221   9.727   2.116 -0.0369 -0.1638 -0.1179
12784SOL     OW50329   8.557   5.463   7.476  0.3135 -0.5300  0.1691
12784SOL    HW150330   8.577   5.521   7.403  0.5122  0.5678  1.0670
12784SOL    HW250331   8.600   5.503   7.551 -0.8972 -0.9621  1.1294
12785SOL     OW50332   8.056   7.877   4.148  0.2120 -0.5698 -0.5003
12785SOL    HW150333   8.151   7.867   4.137  0.1593 -0.7027 -0.8528
12785SOL    HW250334   8.026   7.911   4.064  0.1281  0.7972  0.0519
12786SOL     OW50335   3.996   7.099   2.381  0.1121  0.3118  0.1641
12786SOL    HW150336   3.923   7.153   2.412  0.4699  1.2441 -0.5415
12786SOL    HW250337   4.021   7.140   2.298  3.1289  1.7107  1.6054
12787SOL     OW50338   8.300   8.771   9.222 -0.1382 -0.2354 -0.2343
12787SOL    HW150339   8.240   8.708   9.181 -1.6228 -0.0821  1.5922
12787SOL    HW250340   8.243   8.832   9.268  1.1565  3.0612 -2.5661
12788SOL     OW50341   8.418  10.201   0.080  0.3635  0.1282  0.0008
12788SOL    HW150342   8.423  10.254   0.160  1.1368  0.4128 -0.2240
12788SOL    HW250343   8.472  10.124   0.098  2.3383  1.2083 -0.9720
12789SOL     OW50344   2.378   8.576   2.971 -0.1807 -0.0883  0.1507
12789SOL    HW150345   2.397   8.483   2.956  1.4591  0.0662  1.0151
12789SOL    HW250346   2.348   8.609   2.886 -0.3169 -1.2998 -0.2864
12790SOL     OW50347   8.307   2.405   7.664 -0.7482 -0.0024  0.1677
12790SOL    HW150348   8.237   2.340   7.665 -1.3677  0.6440 -0.0359
12790SOL    HW250349   8.335   2.412   7.755 -1.2864  0.0749  0.3304
12791SOL     OW50350   7.579   4.561   0.406  0.6421  0.7245 -0.2421
12791SOL    HW150351   7.488   4.539   0.390  0.8334 -0.1489 -0.1527
12791SOL    HW250352   7.577   4.654   0.431 -0.3399  0.4524  0.7810
12792SOL     OW50353   5.505   4.948   9.908  0.2346  0.6028  0.8308
12792SOL    HW150354   5.528   4.867   9.861  1.8831  0.9587  0.9444
12792SOL    HW250355   5.432   4.923   9.964 -0.4478 -0.3491 -0.4195
12793SOL     OW50356  10.036  10.234   4.896  0.2373  0.2487  0.0875
12793SOL    HW150357  10.096  10.307   4.912  0.0683  0.7126 -1.3265
12793SOL    HW250358  10.093  10.163   4.864  0.2471  0.1338  0.3555
12794SOL     OW50359   5.596   1.920   8.277  0.0423  0.1962  0.0785
12794SOL    HW150360   5.518   1.882   8.237 -0.4574  1.9258 -0.6974
12794SOL    HW250361   5.669   1.888   8.224 -0.3810  0.4482 -0.6612
12795SOL     OW50362   1.423   6.229   4.180 -0.3210 -0.5149  0.0262
12795SOL    HW150363   1.414   6.134   4.173 -0.1153 -0.4912 -0.6677
12795SOL    HW250364   1.340   6.263   4.147 -0.2742 -0.4485 -0.0234
12796SOL     OW50365   2.957   7.084   8.960 -0.5186 -0.0035  0.7659
12796SOL    HW150366   2.998   7.123   9.037 -1.5735 -0.0484  1.3709
12796SOL    HW250367   2.926   6.999   8.990 -0.9501 -0.0133  0.2954
12797SOL     OW50368   2.991   1.981   0.481 -0.5435  0.0618  0.2524
12797SOL    HW150369   2.920   1.918   0.469 -0.3636 -0.5679  2.1646
12797SOL    HW250370   3.071   1.930   0.467 -0.3484 -0.5490  2.9026
12798SOL     OW50371   9.964   2.115   9.311 -0.0996 -0.3418  0.5962
12798SOL    HW150372   9.911   2.194   9.304  2.2773  1.2805  0.0171
12798SOL    HW250373   9.924   2.054   9.248 -0.3153  1.3996 -1.0379
12799SOL     OW50374   2.499   8.149   7.452  0.2599  0.1242  0.0893
12799SOL    HW150375   2.586   8.111   7.463  0.0490 -0.4239 -0.1420
12799SOL    HW250376   2.494   8.217   7.519  0.9138  0.2454  0.0212
12800SOL     OW50377   7.362   5.685   7.181 -0.7083  0.1577  0.0703
12800SOL    HW150378   7.275   5.646   7.194 -1.2950  1.6068  0.8355
12800SOL    HW250379   7.388   5.657   7.093 -0.9016 -2.1989  0.6974
12801SOL     OW50380   0.300   1.929   2.298 -0.1238 -0.3277  0.7465
12801SOL    HW150381   0.246   1.912   2.220  0.0648 -0.2039  0.5895
12801SOL    HW250382   0.378   1.875   2.285 -0.5979 -1.2015  1.3946
12802SOL     OW50383   3.323   7.374   2.758  0.1801  0.1017  0.0013
12802SOL    HW150384   3.321   7.300   2.818  0.2632  1.2341  1.4411
12802SOL    HW250385   3.278   7.445   2.804  0.1632  0.9960 -1.3062
12803SOL     OW50386   1.402   4.823   1.016 -0.0690 -0.1495 -0.1828
12803SOL    HW150387   1.415   4.917   1.023  1.4372 -0.3203 -0.3966
12803SOL    HW250388   1.307   4.812   1.006 -0.2753  1.3159  0.0393
12804SOL     OW50389   6.758   1.056   3.970  0.1452  0.0576  0.0690
12804SOL    HW150390   6.787   1.130   4.025 -0.2014  0.5395 -0.3877
12804SOL    HW250391   6.834   0.998   3.967  0.2074  0.0834  0.9595
12805SOL     OW50392   6.474   3.946   2.636  0.1721  0.0518 -0.7634
12805SOL    HW150393   6.410   3.890   2.592 -0.6128  0.3006  0.0216
12805SOL    HW250394   6.421   4.012   2.681  1.0365  0.8144 -0.8384
12806SOL     OW50395   2.184   1.332   6.676  0.0438  0.3076  0.2184
12806SOL    HW150396   2.190   1.426   6.694 -2.0571  0.8720 -1.5169
12806SOL    HW250397   2.247   1.292   6.736  1.3016  2.8307  0.7437
12807SOL     OW50398   0.554   0.186   9.762 -0.0620  0.3084  0.1860
12807SOL    HW150399   0.493   0.251   9.728 -1.3209 -0.9702 -0.0495
12807SOL    HW250400   0.538   0.107   9.711 -0.1467 -0.8734  1.9423
12808SOL     OW50401   3.384   0.855  10.154  0.1348 -0.3306  0.0091
12808SOL    HW150402   3.366   0.793  10.225  1.5491  0.3590  1.0208
12808SOL    HW250403   3.353   0.810  10.075 -1.5774 -1.0777  1.0397
12809SOL     OW50404   7.470   7.115   3.104 -0.7733 -0.0605  0.0495
12809SOL    HW150405   7.465   7.186   3.167 -1.5935 -0.6898  0.7129
12809SOL    HW250406   7.423   7.043   3.145 -1.0218 -0.5953 -1.1390
12810SOL     OW50407   8.300   7.492   9.376  0.6662  0.2485 -0.4133
12810SOL    HW150408   8.272   7.577   9.343 -2.0089 -0.5097 -0.3806
12810SOL    HW250409   8.250   7.480   9.457  0.2604 -1.6816 -0.8833
12811SOL     OW50410   2.319   1.233   5.496 -0.4834  0.1747 -0.6734
12811SOL    HW150411   2.359   1.147   5.486  0.0046  0.4067 -0.7465
12811SOL    HW250412   2.392   1.292   5.516 -1.1646 -0.0752  3.5429
12812SOL     OW50413   3.270   4.843   1.821 -0.7172  0.0083  0.1621
12812SOL    HW150414   3.258   4.777   1.890  0.7594 -1.3820 -0.8372
12812SOL    HW250415   3.307   4.795   1.747  0.1306  1.8977 -0.7265
12813SOL     OW50416   4.994   9.047   1.225 -0.0527 -0.8293  0.7923
12813SOL    HW150417   4.915   9.045   1.170  1.1563 -2.5753 -1.0043
12813SOL    HW250418   4.985   9.128   1.276 -2.5504 -0.5176  0.0065
12814SOL     OW50419   2.952   5.354   5.828 -0.0252 -0.1027 -0.0105
12814SOL    HW150420   2.949   5.328   5.920  0.1417  1.1491  0.3670
12814SOL    HW250421   3.036   5.399   5.818  0.3920 -1.0660 -1.0237
12815SOL     OW50422   8.043   1.252   4.656  0.0492 -0.1089  0.2609
12815SOL    HW150423   8.077   1.248   4.567 -1.2384 -0.3923 -0.2519
12815SOL    HW250424   8.040   1.161   4.685 -1.6694 -0.2596 -0.2895
12816SOL     OW50425   0.444  10.200   6.433  0.2565 -0.0104 -0.1558
12816SOL    HW150426   0.468  10.255   6.507 -0.3914  0.8497 -0.5506
12816SOL    HW250427   0.377  10.141   6.467  0.7775 -0.3964  0.2115
12817SOL     OW50428   2.977   5.572   6.120 -0.0018  0.2096 -0.2665
12817SOL    HW150429   2.895   5.564   6.169  0.0191  0.8674 -0.1215
12817SOL    HW250430   2.957   5.632   6.048 -0.0820 -0.8794 -1.1967
12818SOL     OW50431   9.221   1.764   1.466  0.4509 -0.4516 -0.2203
12818SOL    HW150432   9.270   1.704   1.521  0.2869  0.4601  0.9561
12818SOL    HW250433   9.199   1.837   1.524  1.2569  1.0899 -1.7605
12819SOL     OW50434   9.901   6.035   8.761 -0.4120  0.5451 -0.3869
12819SOL    HW150435   9.863   6.081   8.837  0.7128  3.1072 -1.2703
12819SOL    HW250436   9.826   6.016   8.705 -0.9698  0.8828  0.2250
12820SOL     OW50437   1.037   9.356   4.469 -0.2024  0.2892 -0.2348
12820SOL    HW150438   1.031   9.450   4.482  1.0835  0.4030 -0.3652
12820SOL    HW250439   1.015   9.343   4.377 -0.4873  0.4549 -0.1892
12821SOL     OW50440   8.512   7.910   5.298 -0.2660 -0.1327  0.6526
12821SOL    HW150441   8.532   7.938   5.388  0.2875  1.0307  0.1952
12821SOL    HW250442   8.425   7.871   5.304  0.7298 -2.3171  2.1154
12822SOL     OW50443   9.006   5.184   4.801 -0.6609 -0.9719  0.0824
12822SOL    HW150444   9.065   5.170   4.727  0.0325 -0.5544  0.5419
12822SOL    HW250445   9.044   5.259   4.847 -0.9636 -1.3708  0.9823
12823SOL     OW50446   2.001   6.003   4.912  0.0486  0.3086  0.0327
12823SOL    HW150447   1.983   5.913   4.938 -1.2939  0.7788  0.8438
12823SOL    HW250448   2.024   6.048   4.993  2.0051  0.4521 -0.5456
12824SOL     OW50449   2.340   1.790   0.797 -0.1582 -0.1422 -0.8137
12824SOL    HW150450   2.264   1.835   0.761 -0.5144 -0.2100 -0.1624
12824SOL    HW250451   2.378   1.853   0.859 -1.3400 -1.1194  0.9940
12825SOL     OW50452   0.053   2.716   1.214 -0.2360  0.0107 -0.4796
12825SOL    HW150453   0.118   2.772   1.171 -0.3653  1.6193  1.2847
12825SOL    HW250454   0.082   2.627   1.195  0.7676  0.6521 -2.2373
12826SOL     OW50455   8.112   1.966   6.554  0.3060  0.2879 -0.0950
12826SOL    HW150456   8.040   1.906   6.538 -1.0354  1.4184  1.4095
12826SOL    HW250457   8.145   1.941   6.641  0.0167  1.4032  0.3523
12827SOL     OW50458   4.224   7.503   7.693  0.1532  0.6706  0.4211
12827SOL    HW150459   4.184   7.575   7.742  0.1368  0.7439  0.2999
12827SOL    HW250460   4.292   7.469   7.751 -0.3523  0.2812  0.7992
12828SOL     OW50461   6.342   2.288   6.187  0.0186  0.2898  0.1241
12828SOL    HW150462   6.285   2.214   6.168 -1.5917  1.6792 -0.7064
12828SOL    HW250463   6.287   2.365   6.174  1.6085  1.6547  1.0302
12829SOL     OW50464   1.754   9.799   0.973 -0.2568  0.4264  0.0988
12829SOL    HW150465   1.836   9.782   0.929  0.3802 -0.6732  1.6160
12829SOL    HW250466   1.702   9.848   0.910  1.3793  0.7408 -1.0537
12830SOL     OW50467   4.478   4.415   4.868 -0.3742  0.0803  0.2573
12830SOL    HW150468   4.567   4.382   4.877  0.0233  0.9366 -0.3985
12830SOL    HW250469   4.487   4.493   4.813 -1.1437  1.7568  2.3549
12831SOL     OW50470  10.137   6.769   5.593  0.5677 -0.3576  0.7063
12831SOL    HW150471  10.221   6.809   5.615 -0.3895  0.5536  2.9730
12831SOL    HW250472  10.136   6.686   5.640 -0.1430  0.0451  1.4217
12832SOL     OW50473   8.004   7.403   1.141  0.1332 -0.1849  0.4570
12832SOL    HW150474   7.926   7.358   1.108  0.9312 -0.4497 -1.2076
12832SOL    HW250475   8.022   7.470   1.075  0.9357  0.2888  1.1431
12833SOL     OW50476   5.155  10.116   9.426 -0.7110  0.3318 -0.0311
12833SOL    HW150477   5.074  10.070   9.449 -0.0440  0.2642  2.5076
12833SOL    HW250478   5.224  10.051   9.442 -0.0605  0.7721 -0.9764
12834SOL     OW50479   9.319   3.009  10.204  0.2500 -0.3268  0.5365
12834SOL    HW150480   9.276   2.994  10.120 -1.1617  1.5324  0.8518
12834SOL    HW250481   9.357   3.097  10.196  0.8067 -0.4609  1.5524
12835SOL     OW50482   5.074   6.044   5.982  0.3640  0.6393 -0.0875
12835SOL    HW150483   5.031   6.123   6.016 -0.0318 -0.2821  1.6878
12835SOL    HW250484   5.161   6.044   6.022 -0.1278 -0.4871  1.0980
12836SOL     OW50485   3.116   7.806   4.110 -1.0103 -0.2829 -0.5541
12836SOL    HW150486   3.117   7.892   4.152  0.0429 -0.6927  0.3014
12836SOL    HW250487   3.081   7.823   4.022 -1.1558  0.9556 -0.2778
12837SOL     OW50488   5.556   2.278   7.861  0.2166 -0.1256  0.0406
12837SOL    HW150489   5.612   2.217   7.909 -0.7822 -1.0970 -0.0181
12837SOL    HW250490   5.591   2.277   7.772 -0.0411 -0.9107 -0.0530
12838SOL     OW50491   5.658   6.664   3.489  0.0870 -0.2404 -0.6393
12838SOL    HW150492   5.598   6.617   3.547  0.5522  1.0706  0.9763
12838SOL    HW250493   5.742   6.621   3.502  0.0189 -0.5006 -1.0312
12839SOL     OW50494   5.507  10.006   8.660 -0.5630  0.2709  0.4452
12839SOL    HW150495   5.570   9.953   8.611 -0.5625  0.8884 -0.2520
12839SOL    HW250496   5.559  10.047   8.729 -0.6407 -0.9169  1.2274
12840SOL     OW50497   0.227   4.852   0.124 -0.2698  0.1317  0.0463
12840SOL    HW150498   0.181   4.936   0.127 -1.2796 -0.3529 -1.0465
12840SOL    HW250499   0.196   4.805   0.201 -1.0899  0.0750 -0.3107
12841SOL     OW50500   5.595   9.940  10.121 -0.4849  0.3098 -0.5680
12841SOL    HW150501   5.563   9.963  10.033  0.9337  0.6974 -1.0081
12841SOL    HW250502   5.573   9.848  10.131  0.7081 -0.1692 -1.9839
12842SOL     OW50503   0.833   1.666   9.798  0.0565 -0.3047  0.6624
12842SOL    HW150504   0.764   1.621   9.750  0.9505 -0.0693 -0.8963
12842SOL    HW250505   0.868   1.599   9.857  1.1162 -1.6251 -1.3490
12843SOL     OW50506   4.596   8.225   8.100  0.1449 -0.8133  0.1352
12843SOL    HW150507   4.669   8.194   8.047  0.0060 -0.9641  0.0315
12843SOL    HW250508   4.604   8.177   8.182  0.4080 -0.5194  0.2833
12844SOL     OW50509   4.743   0.018   3.831 -0.0571 -0.5744  0.4254
12844SOL    HW150510   4.826   0.064   3.820 -1.2198  1.6328  0.2913
12844SOL    HW250511   4.676   0.084   3.813 -1.8728 -2.6587 -1.1058
12845SOL     OW50512   2.113   1.818   4.089  0.0076  0.3543 -0.0988
12845SOL    HW150513   2.172   1.867   4.147 -0.2256 -0.5659  0.9527
12845SOL    HW250514   2.167   1.796   4.013  0.3051  1.6351 -0.2967
12846SOL     OW50515   9.417   9.761   6.337  0.3315 -0.1933  0.2331
12846SOL    HW150516   9.439   9.732   6.426  0.3249  0.7259  0.5433
12846SOL    HW250517   9.321   9.766   6.337  0.4106  2.8476  1.2010
12847SOL     OW50518   4.796   0.411   4.995 -0.9401 -0.0594  0.7979
12847SOL    HW150519   4.772   0.481   5.056 -1.3924  0.4180  0.0819
12847SOL    HW250520   4.781   0.448   4.908  0.4930 -0.4333  0.3561
12848SOL     OW50521   9.400   3.163   9.473  0.4509  0.1125 -0.1446
12848SOL    HW150522   9.344   3.241   9.466  0.1348 -0.1301 -0.3311
12848SOL    HW250523   9.378   3.111   9.396  0.0449 -0.5596  0.4134
12849SOL     OW50524   0.581   9.771   5.946 -0.1259 -0.2589 -0.8624
12849SOL    HW150525   0.522   9.708   5.902  0.0965 -1.4270  0.4377
12849SOL    HW250526   0.531   9.801   6.022  1.3341 -2.2405  0.9983
12850SOL     OW50527   1.936  10.212   6.392  1.1438  0.4158  0.6449
12850SOL    HW150528   1.946  10.117   6.404 -0.1105  0.2719  0.7414
12850SOL    HW250529   1.991  10.251   6.460  0.9112 -0.2644  1.2391
12851SOL     OW50530   0.464   8.903   5.873  0.2396  0.4506 -0.1434
12851SOL    HW150531   0.511   8.883   5.954 -0.3818  0.3882  0.2123
12851SOL    HW250532   0.527   8.949   5.819  0.0407  2.4374  1.2282
12852SOL     OW50533   8.037   1.696   3.824  0.2213  0.0942 -0.1095
12852SOL    HW150534   8.069   1.622   3.773  1.0108  1.3697 -1.5635
12852SOL    HW250535   7.976   1.658   3.887  0.5901 -1.7652 -0.8297
12853SOL     OW50536   3.362   7.628   0.400  0.1045  0.2681  0.6970
12853SOL    HW150537   3.387   7.547   0.357  1.1647  1.3267 -0.7499
12853SOL    HW250538   3.268   7.637   0.383  0.5886  0.9578 -2.0089
12854SOL     OW50539   2.166   9.619   8.797 -0.3090  0.1556 -0.0052
12854SOL    HW150540   2.225   9.677   8.748 -0.1667  1.3623  1.5292
12854SOL    HW250541   2.104   9.677   8.839  0.0022 -0.7463  1.8108
12855SOL     OW50542   9.954   9.926  10.157  0.0755 -0.6532 -0.0330
12855SOL    HW150543   9.868   9.968  10.159  0.0315 -0.7660  0.9509
12855SOL    HW250544  10.003   9.974  10.090 -0.0211  0.8836  0.9609
12856SOL     OW50545   8.088   4.943   8.963  0.1228  0.3478  0.3301
12856SOL    HW150546   8.040   5.024   8.950  0.2929  0.3487 -0.3070
12856SOL    HW250547   8.175   4.971   8.992  0.4668  0.4317 -0.7546
12857SOL     OW50548   0.600   8.728   1.373  1.0116  0.0851 -0.2430
12857SOL    HW150549   0.572   8.695   1.288  0.7123 -0.6244  0.1205
12857SOL    HW250550   0.576   8.659   1.435 -0.7456  1.4517  0.7233
12858SOL     OW50551  10.120   6.762   3.327  0.4105  0.3332 -0.3509
12858SOL    HW150552  10.037   6.729   3.359  0.7293 -1.4569 -1.2607
12858SOL    HW250553  10.151   6.821   3.396 -0.2820 -1.1337  1.2809
12859SOL     OW50554   0.772   1.555   5.906  0.2931  0.4580  0.6564
12859SOL    HW150555   0.780   1.625   5.971 -0.6228  1.1381  0.0567
12859SOL    HW250556   0.756   1.601   5.824 -0.7597 -0.4743  0.3255
12860SOL     OW50557   6.754   3.801   6.839  0.6969 -0.0635  0.0417
12860SOL    HW150558   6.823   3.867   6.846 -0.5133  1.2723 -0.0391
12860SOL    HW250559   6.770   3.759   6.755  2.4195 -0.9992  0.7973
12861SOL     OW50560   6.604   8.737  10.321 -0.3198 -0.5625 -0.5032
12861SOL    HW150561   6.570   8.690  10.245 -1.5250 -1.1037  0.3324
12861SOL    HW250562   6.556   8.820  10.321  0.4632 -0.0949 -0.9228
12862SOL     OW50563   2.131   6.844   5.571 -0.3438 -0.1422 -0.0612
12862SOL    HW150564   2.139   6.852   5.666 -1.0770 -0.1644  0.0057
12862SOL    HW250565   2.194   6.775   5.548 -2.5028 -2.5766  0.8443
12863SOL     OW50566   1.077   1.943   2.498 -0.3255 -0.7656 -0.0807
12863SOL    HW150567   1.050   2.012   2.436  0.2925 -0.0888  0.3886
12863SOL    HW250568   1.071   1.862   2.447  2.0971 -0.0324 -1.7138
12864SOL     OW50569   0.678   1.891   5.626 -0.0141 -0.1322  0.2766
12864SOL    HW150570   0.771   1.879   5.647  0.0818  0.3876  0.1571
12864SOL    HW250571   0.677   1.961   5.560 -0.4460 -0.5168 -0.1334
12865SOL     OW50572   0.425   1.630   5.713 -0.3855 -0.1656  0.0860
12865SOL    HW150573   0.396   1.539   5.723 -1.6982  0.3288  1.0679
12865SOL    HW250574   0.512   1.623   5.674 -0.3268 -1.8517  0.4330
12866SOL     OW50575   3.145   5.519   3.242 -0.3433  0.1980 -0.2251
12866SOL    HW150576   3.081   5.587   3.264 -0.2833  0.2877 -0.3280
12866SOL    HW250577   3.200   5.559   3.175  0.7992  0.6791  0.9587
12867SOL     OW50578   9.273   4.307   6.209  0.6035  0.1968  0.1254
12867SOL    HW150579   9.261   4.217   6.237 -0.9670  0.1385 -0.6297
12867SOL    HW250580   9.185   4.343   6.204  1.0995  1.3586 -0.9128
12868SOL     OW50581   9.219   3.617   7.386  0.4684  0.0056  0.3345
12868SOL    HW150582   9.138   3.584   7.346  0.5390  1.2309 -0.9177
12868SOL    HW250583   9.231   3.563   7.464  0.0106 -2.1592 -1.0015
12869SOL     OW50584   7.376   6.640   8.589  0.3201 -0.0571 -0.6247
12869SOL    HW150585   7.459   6.673   8.624 -0.3677  1.0501  0.0248
12869SOL    HW250586   7.401   6.569   8.530  1.7072  0.0616 -0.2124
12870SOL     OW50587   6.893   1.004   7.005 -1.0949  0.3122 -0.1466
12870SOL    HW150588   6.916   1.009   7.098  0.3021 -0.7772 -0.4110
12870SOL    HW250589   6.943   1.074   6.964  2.6470 -2.4350 -0.8215
12871SOL     OW50590   2.899   2.798   8.669  0.4815  0.4908  0.0216
12871SOL    HW150591   2.873   2.872   8.724 -1.1922  0.8839 -1.2010
12871SOL    HW250592   2.858   2.722   8.710  0.0657  0.6356 -0.1185
12872SOL     OW50593   8.850   7.168   8.818  0.2636  0.4024 -0.1062
12872SOL    HW150594   8.808   7.084   8.797  3.0584 -1.2073  0.1870
12872SOL    HW250595   8.840   7.175   8.913  1.6041 -0.6230  0.1498
12873SOL     OW50596   1.980   1.358  10.286 -0.2821  0.3848 -0.7354
12873SOL    HW150597   1.930   1.430  10.247 -1.8476 -0.9798 -1.3636
12873SOL    HW250598   1.996   1.298  10.213 -0.1177 -0.4952  0.0162
12874SOL     OW50599   6.787   0.911   2.360  0.1282 -0.0607  0.5832
12874SOL    HW150600   6.699   0.891   2.329  0.1009  0.2687  0.4414
12874SOL    HW250601   6.781   0.905   2.455  0.6171 -2.8158  0.5453
12875SOL     OW50602   2.065   6.435   4.030 -0.3222 -0.1777  0.5801
12875SOL    HW150603   2.123   6.359   4.018  0.2941  0.4771 -0.8592
12875SOL    HW250604   2.122   6.504   4.064 -0.6188 -0.0141  0.7523
12876SOL     OW50605   0.284   2.916   8.796  0.0349 -0.3935  0.5254
12876SOL    HW150606   0.324   2.842   8.751 -1.4279 -0.9418  0.0520
12876SOL    HW250607   0.321   2.914   8.884  2.6600  0.4568 -0.4532
12877SOL     OW50608   8.526   6.537  10.250 -0.4217 -0.8881 -0.0837
12877SOL    HW150609   8.602   6.587  10.224 -0.5605  0.8566  2.4716
12877SOL    HW250610   8.461   6.553  10.182  0.0799  1.1864 -0.1169
12878SOL     OW50611   7.445   7.912   0.026  0.2582 -0.7340  0.2719
12878SOL    HW150612   7.475   7.828   0.061  0.0293 -0.6824  0.6063
12878SOL    HW250613   7.378   7.889  -0.037  1.5607 -0.8931 -1.1053
12879SOL     OW50614   3.695   0.708   1.233  0.6461 -0.6644  0.0394
12879SOL    HW150615   3.676   0.659   1.313  0.2265  0.8433  0.9048
12879SOL    HW250616   3.617   0.698   1.180  0.5816 -0.9748  0.1919
12880SOL     OW50617   9.095   4.669   4.363  0.1989  0.0897  0.1902
12880SOL    HW150618   9.168   4.636   4.415 -0.0603  0.4981  0.8216
12880SOL    HW250619   9.039   4.592   4.348 -1.1060  0.4185  2.8029
12881SOL     OW50620   8.096   5.102   5.391  0.0744  0.2375 -0.1797
12881SOL    HW150621   8.145   5.029   5.428  2.1772  0.6605 -1.9277
12881SOL    HW250622   8.151   5.179   5.406 -1.2863  1.2054  0.1059
12882SOL     OW50623   6.157   0.775   2.458  0.7376 -0.1421 -0.3410
12882SOL    HW150624   6.121   0.691   2.486 -1.5674  0.2316 -1.8965
12882SOL    HW250625   6.181   0.820   2.540 -0.6421 -1.2085  0.7015
12883SOL     OW50626   0.486   9.456   7.904 -0.0380  0.1826  0.0127
12883SOL    HW150627   0.454   9.452   7.994 -0.0386  0.9269  0.0521
12883SOL    HW250628   0.438   9.387   7.858 -0.9482  0.6077  0.3078
12884SOL     OW50629   6.103   9.679   5.220  0.5363 -0.1919  0.0300
12884SOL    HW150630   6.125   9.681   5.127 -0.2997  0.2234 -0.1657
12884SOL    HW250631   6.018   9.635   5.224 -0.2228  1.2211  0.4075
12885SOL     OW50632   1.707   7.453   5.466 -0.4327  0.2215 -0.1046
12885SOL    HW150633   1.677   7.412   5.547  2.2306 -0.4784  0.6252
12885SOL    HW250634   1.751   7.383   5.418 -0.9974  0.8923 -1.6604
12886SOL     OW50635  10.249   6.960   2.087  0.0256  0.5680 -0.3743
12886SOL    HW150636  10.222   7.050   2.066  1.9073  1.1293 -0.5462
12886SOL    HW250637  10.262   6.961   2.182  0.3760  0.5640 -0.4238
12887SOL     OW50638   0.027   0.777   2.083  0.3544  0.0969 -0.2478
12887SOL    HW150639   0.011   0.690   2.047 -2.7208  0.3906  0.1538
12887SOL    HW250640   0.007   0.769   2.177 -1.6889  1.5211 -0.4832
12888SOL     OW50641   5.015   3.723   7.670  0.0724 -0.2455  0.2598
12888SOL    HW150642   4.957   3.772   7.727  0.3463  0.1004  0.2415
12888SOL    HW250643   5.045   3.787   7.605 -1.6208 -1.0076 -1.3588
12889SOL     OW50644   1.680   9.837   4.636 -0.3000  0.7937 -0.3652
12889SOL    HW150645   1.695   9.778   4.562  0.1175  0.9027 -0.3716
12889SOL    HW250646   1.591   9.819   4.664 -0.0346 -0.1500 -0.0925
12890SOL     OW50647   6.974   2.707   7.253 -0.1478 -0.3910  0.2471
12890SOL    HW150648   6.982   2.793   7.211 -1.7876 -1.2582 -2.0514
12890SOL    HW250649   7.063   2.671   7.250  0.2744  0.6434 -0.1281
12891SOL     OW50650   1.133   6.250   6.357 -0.1209  0.3226 -0.0326
12891SOL    HW150651   1.119   6.332   6.309 -3.2720 -0.6553 -0.9838
12891SOL    HW250652   1.080   6.259   6.436 -0.9109 -0.9657 -0.3912
12892SOL     OW50653   0.878   8.700   3.191 -0.2850  0.1410  0.2822
12892SOL    HW150654   0.808   8.635   3.195  0.6697 -1.1555 -2.0743
12892SOL    HW250655   0.846   8.767   3.131  0.0643  0.0732  0.0140
12893SOL     OW50656   1.604   2.620   6.282 -0.3143  0.4403  0.5715
12893SOL    HW150657   1.644   2.545   6.325 -1.1410  0.2994  1.1220
12893SOL    HW250658   1.600   2.687   6.350  0.5360  1.0486  0.0499
12894SOL     OW50659   8.873   9.093   1.824 -0.0150  0.0529  0.1711
12894SOL    HW150660   8.782   9.087   1.795 -0.2146  0.3032  0.7250
12894SOL    HW250661   8.916   9.144   1.756 -0.6752  1.4163  0.7287
12895SOL     OW50662   1.134   5.008   6.552 -0.0758 -0.1708 -0.1087
12895SOL    HW150663   1.146   5.000   6.646 -2.2164  1.9158  0.4454
12895SOL    HW250664   1.072   5.080   6.542  1.6518  1.1033 -3.2110
12896SOL     OW50665   9.110   1.984   6.509 -0.8532  0.0875 -0.0253
12896SOL    HW150666   9.198   2.009   6.482 -0.3968  0.0776  1.3932
12896SOL    HW250667   9.078   1.928   6.438 -0.0122  0.6854 -0.8962
12897SOL     OW50668   4.992   8.676   0.373 -0.4798  0.3378 -0.1081
12897SOL    HW150669   4.917   8.621   0.399  0.4073 -0.8628  0.0007
12897SOL    HW250670   4.976   8.696   0.281  0.4034 -2.2779 -0.9283
12898SOL     OW50671   8.955   4.894   7.749  0.4356 -0.5554  0.2945
12898SOL    HW150672   8.950   4.823   7.813  2.0531 -1.7009 -0.7956
12898SOL    HW250673   8.868   4.934   7.752  0.0677 -1.3674  2.2710
12899SOL     OW50674   7.315   6.638   1.692  0.5928 -0.4190 -0.4480
12899SOL    HW150675   7.400   6.648   1.648  0.6209  0.1671 -0.2594
12899SOL    HW250676   7.255   6.693   1.641  0.5096 -0.1606 -0.0685
12900SOL     OW50677   3.044   6.916   3.259  0.6105 -0.5209 -0.0734
12900SOL    HW150678   3.076   6.838   3.214 -1.7312 -1.0591 -0.9164
12900SOL    HW250679   2.979   6.884   3.321  1.5134  0.5461  1.4962
12901SOL     OW50680   5.991   6.364   6.181 -0.1597  0.6390 -0.5697
12901SOL    HW150681   5.917   6.422   6.200  0.0917  0.5173  0.9009
12901SOL    HW250682   6.026   6.341   6.267  1.1929  0.1641 -1.2200
12902SOL     OW50683   1.886   0.462   6.744 -0.2320 -0.5619 -0.6193
12902SOL    HW150684   1.949   0.391   6.737 -0.4279 -0.8127  0.0441
12902SOL    HW250685   1.887   0.505   6.658  0.2948 -1.0180 -0.8417
12903SOL     OW50686   4.253   7.937   7.242  0.2835  0.1990  0.2508
12903SOL    HW150687   4.241   7.846   7.269 -1.5360 -0.3328 -2.0085
12903SOL    HW250688   4.249   7.987   7.323 -0.6524 -1.5678  1.3705
12904SOL     OW50689   1.813   2.057   8.671 -0.0895 -0.0800 -0.0690
12904SOL    HW150690   1.803   1.983   8.730 -0.7533 -1.3757 -1.7380
12904SOL    HW250691   1.753   2.124   8.706 -0.3263 -0.7369  0.8136
12905SOL     OW50692   1.911   0.854   5.831 -0.0249 -0.4052  0.3050
12905SOL    HW150693   1.903   0.759   5.839  0.0209 -0.5195 -0.8812
12905SOL    HW250694   1.833   0.881   5.783 -0.9068  0.3926  2.0902
12906SOL     OW50695   8.529   6.366   1.938 -0.0339 -0.0183  0.2945
12906SOL    HW150696   8.537   6.299   2.006 -0.0188  0.0023  0.3131
12906SOL    HW250697   8.551   6.320   1.857 -0.7192 -0.2102  0.2159
12907SOL     OW50698   0.092   6.369   5.981  0.3903  0.2239  0.6574
12907SOL    HW150699   0.148   6.301   6.020  1.3225 -0.4599 -1.7017
12907SOL    HW250700   0.120   6.373   5.889 -3.3658 -0.1247 -0.6791
12908SOL     OW50701   8.200   7.864   2.539 -0.2426 -0.5899  0.1886
12908SOL    HW150702   8.244   7.859   2.624 -0.8815 -2.2488  0.4464
12908SOL    HW250703   8.258   7.818   2.479 -0.5427 -0.7825  0.0458
12909SOL     OW50704   2.245   8.770   6.418  0.6329 -0.2443  0.4885
12909SOL    HW150705   2.188   8.714   6.366 -1.5797  1.5268  0.8251
12909SOL    HW250706   2.280   8.713   6.487 -2.4405 -1.0558  1.5273
12910SOL     OW50707   9.422   8.930   3.655  0.4432 -0.3284 -0.4648
12910SOL    HW150708   9.464   8.858   3.702  0.7974  1.5773  2.3758
12910SOL    HW250709   9.491   8.993   3.641 -0.3044  0.3968 -0.9946
12911SOL     OW50710   5.976   6.353   8.213 -0.2495  0.2554 -0.1021
12911SOL    HW150711   5.987   6.308   8.129 -1.1655  4.3501 -2.6857
12911SOL    HW250712   5.884   6.343   8.235 -0.8772  2.1373 -1.6219
12912SOL     OW50713   7.932   2.454   7.808 -0.6128  0.4902  0.4566
12912SOL    HW150714   7.991   2.503   7.865  2.0401  0.8228 -2.2787
12912SOL    HW250715   7.934   2.501   7.725 -1.1655 -1.9990 -1.0945
12913SOL     OW50716   0.357   2.749   8.401 -0.1577  0.1034 -0.1076
12913SOL    HW150717   0.265   2.761   8.377  0.1087 -0.1583 -1.3352
12913SOL    HW250718   0.405   2.801   8.336  0.5859 -0.2579  0.1442
12914SOL     OW50719   5.405   3.787   4.399 -0.8427 -0.4454  0.4568
12914SOL    HW150720   5.321   3.743   4.385 -1.1869  0.5887 -0.8663
12914SOL    HW250721   5.441   3.745   4.477 -0.4927 -4.1399 -1.4589
12915SOL     OW50722   0.550   2.347   4.676  0.1597  0.4329 -0.4467
12915SOL    HW150723   0.582   2.280   4.736  0.4964  1.7883  0.9480
12915SOL    HW250724   0.627   2.399   4.654 -0.2980  1.0821 -0.5503
12916SOL     OW50725   2.247  10.264   7.922  0.4220  0.3852  0.4751
12916SOL    HW150726   2.232  10.179   7.963 -0.4416 -0.3412 -1.2192
12916SOL    HW250727   2.329  10.296   7.961  0.9087 -1.3490  0.9642
12917SOL     OW50728  10.126   7.804   5.180  0.2336 -0.4540  0.3154
12917SOL    HW150729  10.161   7.868   5.117 -0.1341  0.7763  1.3265
12917SOL    HW250730  10.131   7.848   5.264 -2.4729 -0.7210  0.6985
12918SOL     OW50731   3.325   9.439   5.821  0.0103  0.2152 -0.6454
12918SOL    HW150732   3.293   9.525   5.793  0.5201  0.6212 -0.0113
12918SOL    HW250733   3.279   9.421   5.903  2.5434  1.6008  1.2269
12919SOL     OW50734   8.904   5.393   9.272 -0.1869 -0.7100 -0.4445
12919SOL    HW150735   8.909   5.486   9.292 -0.1639 -0.8900  0.4100
12919SOL    HW250736   8.962   5.382   9.197  0.0932 -0.0965 -0.3229
12920SOL     OW50737   8.133   5.509   7.238  0.3395 -0.0686 -0.0418
12920SOL    HW150738   8.038   5.503   7.244  0.2459  1.6518  0.7346
12920SOL    HW250739   8.150   5.599   7.212  1.7769 -0.2832  0.0515
12921SOL     OW50740   8.207   6.440   0.538 -0.5754  0.5112  0.4192
12921SOL    HW150741   8.180   6.485   0.458  1.5820  0.2877 -0.5264
12921SOL    HW250742   8.287   6.393   0.512 -1.6107 -2.2770  1.8545
12922SOL     OW50743   3.529   4.257   0.595 -0.2348  0.4041 -0.5049
12922SOL    HW150744   3.618   4.287   0.610  0.0803 -1.1390  0.9704
12922SOL    HW250745   3.483   4.274   0.678 -1.1308  0.5633 -1.0185
12923SOL     OW50746   6.447   3.133   1.875 -0.1269  0.2278 -1.1882
12923SOL    HW150747   6.367   3.167   1.916 -0.2284 -0.7761 -0.5209
12923SOL    HW250748   6.466   3.195   1.805 -0.5708  1.3886 -0.3154
12924SOL     OW50749   3.150   8.355   6.911 -0.1314 -0.7397 -0.4037
12924SOL    HW150750   3.171   8.444   6.937  1.1055 -1.2044  0.2618
12924SOL    HW250751   3.231   8.306   6.922 -1.2621 -2.3971  1.2761
12925SOL     OW50752   6.165   4.909   6.751 -0.0025 -0.4128 -0.5725
12925SOL    HW150753   6.196   4.948   6.832  0.5729 -0.7068 -0.6438
12925SOL    HW250754   6.221   4.947   6.683 -0.0169 -0.6985 -0.7471
12926SOL     OW50755   1.604   4.405   4.754 -0.3330 -0.9267 -0.0336
12926SOL    HW150756   1.589   4.477   4.814  0.2134 -0.7745 -0.0797
12926SOL    HW250757   1.584   4.441   4.667 -0.5134 -0.9654 -0.0081
12927SOL     OW50758   6.194   2.971   8.923 -0.3063 -1.1617 -0.2006
12927SOL    HW150759   6.238   2.943   8.842  0.0136  1.2702 -0.9609
12927SOL    HW250760   6.265   3.000   8.980 -0.6735 -0.6144 -0.0091
12928SOL     OW50761   7.219   9.798   6.005 -0.4613 -0.0549 -0.2027
12928SOL    HW150762   7.307   9.761   5.998 -0.3457  0.1468  0.1636
12928SOL    HW250763   7.232   9.882   6.049 -0.8201  0.0443 -0.2863
12929SOL     OW50764   6.570   8.844   5.370 -0.1063 -0.1815  0.0470
12929SOL    HW150765   6.519   8.907   5.320  0.4832  1.4162  1.3578
12929SOL    HW250766   6.554   8.760   5.327  1.3651  1.2294 -3.5990
12930SOL     OW50767   8.960   8.850   4.779  0.2195 -0.0416 -0.0976
12930SOL    HW150768   9.054   8.846   4.758  0.0873  1.3203 -1.0412
12930SOL    HW250769   8.918   8.802   4.708  0.1451 -0.1258  0.0028
12931SOL     OW50770   7.551   6.425   4.439 -0.2011 -0.5221 -0.1836
12931SOL    HW150771   7.521   6.510   4.471 -0.7102 -0.1924 -1.4552
12931SOL    HW250772   7.534   6.427   4.345 -0.2443 -2.0492 -0.2440
12932SOL     OW50773   1.507   1.167   5.763  0.3183 -0.6357 -0.1227
12932SOL    HW150774   1.533   1.256   5.785  1.4612 -0.7680 -0.8109
12932SOL    HW250775   1.488   1.126   5.847  2.7981 -0.6057  0.5487
12933SOL     OW50776   6.809   3.517   5.729  0.0068  0.1178 -0.2338
12933SOL    HW150777   6.725   3.487   5.696  0.0209  1.6591 -1.8145
12933SOL    HW250778   6.813   3.483   5.819 -2.4170  0.2572 -0.0053
12934SOL     OW50779   0.498   3.555   3.648  0.5461  0.2305  0.1842
12934SOL    HW150780   0.507   3.647   3.672  0.1026 -0.2858  2.6211
12934SOL    HW250781   0.561   3.542   3.577  1.5616  2.1075  0.6863
12935SOL     OW50782   6.248   2.013   7.209  0.3540  0.0608 -0.0080
12935SOL    HW150783   6.311   2.065   7.160 -0.6837  1.3315 -0.0446
12935SOL    HW250784   6.237   1.933   7.157  0.6533  0.5637 -0.8642
12936SOL     OW50785   3.025   8.350   8.462 -0.5282 -0.4475 -0.0568
12936SOL    HW150786   3.121   8.342   8.468 -0.2691  1.3716 -1.1523
12936SOL    HW250787   3.006   8.434   8.502 -1.4812 -0.0574 -1.2803
12937SOL     OW50788   8.741   6.431   8.412  0.4154 -0.1304 -0.4984
12937SOL    HW150789   8.797   6.493   8.367 -0.0227 -0.4384 -1.4979
12937SOL    HW250790   8.772   6.345   8.383 -1.0110 -0.2924 -1.6467
12938SOL     OW50791   9.751   7.287   2.324  0.1279 -0.3331 -0.1478
12938SOL    HW150792   9.713   7.224   2.262 -1.3641 -0.3640  0.7491
12938SOL    HW250793   9.781   7.359   2.269  0.9740 -1.3832 -1.1015
12939SOL     OW50794   3.241   3.393   5.208  0.4908 -0.2783 -0.1272
12939SOL    HW150795   3.323   3.439   5.191 -0.3906  1.4576  0.0342
12939SOL    HW250796   3.189   3.455   5.260 -1.6650 -0.4808 -1.8631
12940SOL     OW50797   0.761   2.434   6.127  0.0834  0.1304  0.2750
12940SOL    HW150798   0.841   2.441   6.075 -0.6922  1.0768 -0.8417
12940SOL    HW250799   0.753   2.518   6.172 -1.6766  1.1850 -1.8010
12941SOL     OW50800   5.746  10.331   5.960 -0.3071 -0.5483  0.5610
12941SOL    HW150801   5.813  10.380   5.912  0.6364 -1.8101  0.5418
12941SOL    HW250802   5.663  10.367   5.929  0.3188  1.6414  1.1934
12942SOL     OW50803   1.574   9.252   7.358 -0.0149 -0.5683 -0.5324
12942SOL    HW150804   1.665   9.269   7.331  0.5542 -2.2751  0.1678
12942SOL    HW250805   1.565   9.157   7.353 -1.3972 -0.5260  0.5438
12943SOL     OW50806   2.559   9.767   7.750  0.7120 -0.4318  0.6165
12943SOL    HW150807   2.617   9.695   7.723  0.8741 -0.8450  1.9657
12943SOL    HW250808   2.471   9.735   7.731  0.7818 -1.0233  1.2010
12944SOL     OW50809   2.399   9.139   3.349  0.5440  0.4378  0.0585
12944SOL    HW150810   2.449   9.186   3.282  0.5173  1.8201  0.9908
12944SOL    HW250811   2.308   9.165   3.333  0.6795  1.9437  1.4988
12945SOL     OW50812   0.215  10.088   3.473  1.0430  0.1229 -0.3730
12945SOL    HW150813   0.229   9.994   3.469  1.2596  0.0898  0.8858
12945SOL    HW250814   0.176  10.103   3.559 -0.9149  0.9535 -1.3355
12946SOL     OW50815   1.571   8.279   5.135 -0.1993 -0.1704 -0.0411
12946SOL    HW150816   1.549   8.186   5.127  2.3712 -0.8824  0.2015
12946SOL    HW250817   1.659   8.286   5.097  1.4432  1.3109  3.5875
12947SOL     OW50818   0.639   1.676   8.812 -0.2718 -0.4606  0.0808
12947SOL    HW150819   0.584   1.677   8.891  0.6583 -1.8706  0.7866
12947SOL    HW250820   0.578   1.691   8.740 -1.3674 -0.5749  0.9612
12948SOL     OW50821   5.133   7.063   9.758  0.3010  0.3600  0.6475
12948SOL    HW150822   5.096   7.086   9.672  2.5348  0.0072 -0.4769
12948SOL    HW250823   5.206   7.004   9.738  1.2431  0.7208  2.7471
12949SOL     OW50824   1.498   3.393  10.204 -0.1588 -0.4857 -0.5190
12949SOL    HW150825   1.406   3.376  10.183 -0.0887  0.1221 -1.4107
12949SOL    HW250826   1.508   3.488  10.192 -0.5485  0.3796  4.2861
12950SOL     OW50827   1.534   2.820   8.846 -0.5470 -0.0057 -0.3305
12950SOL    HW150828   1.595   2.775   8.788 -0.7662  0.0141 -0.5778
12950SOL    HW250829   1.450   2.816   8.800 -0.5228  0.8531 -0.4522
12951SOL     OW50830   5.920   6.535   5.490 -0.0975  0.4514 -0.7293
12951SOL    HW150831   5.865   6.606   5.524  0.0629 -0.3882  1.3938
12951SOL    HW250832   6.004   6.577   5.470  0.5037  0.6901  1.9172
12952SOL     OW50833   2.300   8.352   1.743 -0.3925 -0.0503  0.2944
12952SOL    HW150834   2.330   8.404   1.668 -2.5688  0.8927 -0.0108
12952SOL    HW250835   2.260   8.275   1.703  0.6200 -0.7832  0.6467
12953SOL     OW50836   3.780  10.347   0.819  0.3406 -0.1307  0.2406
12953SOL    HW150837   3.864  10.318   0.784 -0.5294 -1.4106 -0.9066
12953SOL    HW250838   3.735  10.386   0.744 -0.4394 -0.2954  0.6048
12954SOL     OW50839   5.042   1.782   2.430 -0.0633 -0.8594 -0.3273
12954SOL    HW150840   5.007   1.860   2.472  2.1789 -0.9894  2.0198
12954SOL    HW250841   4.994   1.709   2.471  0.6594 -0.8793  0.5082
12955SOL     OW50842   8.228   6.939   1.034 -0.0769 -0.7042 -0.1123
12955SOL    HW150843   8.229   7.020   1.086  2.6450 -0.0797 -0.9687
12955SOL    HW250844   8.220   6.969   0.944  2.8655 -1.1629 -0.6109
12956SOL     OW50845   5.319   5.926   5.021 -0.1307  0.1601 -0.4321
12956SOL    HW150846   5.250   5.991   5.010 -2.1691 -1.7896  0.2220
12956SOL    HW250847   5.273   5.843   5.035  2.3454 -1.4006 -0.8562
12957SOL     OW50848   2.306   7.713   3.018  0.1701  0.6093  0.4125
12957SOL    HW150849   2.274   7.662   3.093  1.4929 -0.4592  0.2820
12957SOL    HW250850   2.277   7.802   3.036  0.2715  0.3360  2.0946
12958SOL     OW50851   8.094   1.541   6.508  0.3953  0.6589  0.3178
12958SOL    HW150852   8.156   1.549   6.581  0.3857 -0.6073  0.4768
12958SOL    HW250853   8.075   1.632   6.483  0.7186  1.1028  1.6150
12959SOL     OW50854   0.146   0.997   1.787 -0.0527 -0.2112  0.0008
12959SOL    HW150855   0.197   1.060   1.838 -0.2144  0.2220 -0.3658
12959SOL    HW250856   0.057   1.004   1.824  0.2798 -1.4673  1.1108
12960SOL     OW50857   3.075   3.897   7.043  0.0772 -0.2051 -0.3543
12960SOL    HW150858   3.056   3.821   7.099  1.6769  1.0012  2.0150
12960SOL    HW250859   3.127   3.862   6.971  2.2466 -1.2261  1.5806
12961SOL     OW50860   8.928   7.567   2.110  0.4899  0.1393  0.4615
12961SOL    HW150861   8.898   7.563   2.019  2.9962 -1.4389 -0.3829
12961SOL    HW250862   8.879   7.641   2.148 -1.7841 -0.1370 -1.6752
12962SOL     OW50863   0.159   5.070   0.745  0.4468  0.2458  0.5756
12962SOL    HW150864   0.065   5.064   0.758  0.5149  0.6146  1.2902
12962SOL    HW250865   0.169   5.104   0.656 -0.1080  0.6937  0.6780
12963SOL     OW50866   5.014   8.309   2.464  0.1023 -0.4360 -0.1697
12963SOL    HW150867   4.986   8.261   2.542 -0.3094 -1.9871 -1.1996
12963SOL    HW250868   4.978   8.397   2.475  0.1417 -0.5934  1.4116
12964SOL     OW50869   1.395   9.080   9.119 -0.5155 -0.3553  0.3141
12964SOL    HW150870   1.337   9.142   9.075  0.0661  0.0236  0.0688
12964SOL    HW250871   1.483   9.109   9.096 -0.1894 -0.0166  1.9239
12965SOL     OW50872  10.186   5.983   0.467 -0.2854 -0.2543  0.0194
12965SOL    HW150873  10.126   6.057   0.476 -0.8388 -0.7238  0.2936
12965SOL    HW250874  10.175   5.954   0.376 -1.0754 -0.8229  0.2794
12966SOL     OW50875   3.142   0.730  10.370  0.7319 -0.7080 -0.5506
12966SOL    HW150876   3.234   0.721  10.393  0.7773 -2.1017 -1.1938
12966SOL    HW250877   3.108   0.641  10.366 -0.0606 -0.3978 -2.5801
12967SOL     OW50878   7.924   9.514  10.320 -0.3102 -0.1425 -0.7012
12967SOL    HW150879   7.965   9.472  10.395  0.7400  0.7337 -0.7623
12967SOL    HW250880   7.894   9.442  10.265 -1.8167 -0.8031  0.9212
12968SOL     OW50881   3.670   9.209   9.225 -0.4668  0.6989 -0.0350
12968SOL    HW150882   3.759   9.238   9.247 -0.7105  1.7764 -0.4126
12968SOL    HW250883   3.666   9.218   9.129 -0.1188 -1.8858 -0.3624
12969SOL     OW50884   7.659   6.158   4.482 -0.2930  0.0071 -0.0277
12969SOL    HW150885   7.736   6.214   4.480  0.0577 -0.1130  3.4938
12969SOL    HW250886   7.585   6.218   4.487 -0.0456  0.2224  1.6136
12970SOL     OW50887   4.314   7.287   8.286  0.1595  0.4392  0.1849
12970SOL    HW150888   4.329   7.272   8.380 -0.9818  0.0754  0.3172
12970SOL    HW250889   4.256   7.216   8.259 -1.6440  1.9956 -0.2083
12971SOL     OW50890   8.780   1.351  10.382 -0.1387 -0.1303 -0.0609
12971SOL    HW150891   8.710   1.409  10.412 -0.4935  0.8725 -2.5773
12971SOL    HW250892   8.834   1.337  10.459 -0.2549  3.2369  0.7910
12972SOL     OW50893  10.032   1.036   2.680  0.0041 -0.2035 -0.1416
12972SOL    HW150894  10.089   1.045   2.603 -0.0712 -1.9814 -0.4511
12972SOL    HW250895   9.944   1.031   2.643 -0.2255  0.9271  0.2241
12973SOL     OW50896   9.690   4.569   1.949 -0.6218  0.0167 -0.4864
12973SOL    HW150897   9.624   4.512   1.988 -1.8782 -0.3213 -2.9179
12973SOL    HW250898   9.693   4.645   2.007 -1.5553 -0.9314  0.8577
12974SOL     OW50899   1.649   8.606   7.143 -0.4243 -0.0058  0.0458
12974SOL    HW150900   1.584   8.669   7.175  0.4635  0.3532  1.1919
12974SOL    HW250901   1.733   8.652   7.149  0.5393 -1.8425  2.6918
12975SOL     OW50902   2.549   2.751   2.446 -0.4915 -0.8017  0.0134
12975SOL    HW150903   2.533   2.673   2.498 -1.4594 -0.5803  0.0638
12975SOL    HW250904   2.463   2.776   2.413 -0.5858  1.4410  1.7033
12976SOL     OW50905   9.094   0.879   9.426  0.1907  0.1546 -0.0392
12976SOL    HW150906   9.060   0.841   9.345  0.6030 -1.5555  0.5515
12976SOL    HW250907   9.092   0.807   9.489  1.1703  1.0791  1.0929
12977SOL     OW50908   9.953   1.168   0.150 -0.2932 -0.3313 -0.0398
12977SOL    HW150909  10.003   1.173   0.069 -0.3408 -0.3612 -0.0707
12977SOL    HW250910   9.972   1.082   0.186 -0.8934 -0.6307 -0.4206
12978SOL     OW50911   8.229   9.898   7.325 -0.0528 -0.3271 -0.1704
12978SOL    HW150912   8.266   9.986   7.318 -2.0701  0.7080  1.2596
12978SOL    HW250913   8.184   9.897   7.409 -0.3358 -2.6448 -0.2914
12979SOL     OW50914   8.045   9.573   7.487 -0.4278  0.3017 -0.6409
12979SOL    HW150915   7.962   9.526   7.499 -1.0409  1.4780 -0.0845
12979SOL    HW250916   8.099   9.545   7.561 -0.3433 -0.4170 -0.9664
12980SOL     OW50917   3.689   8.518   2.577  0.2723 -0.2597 -0.0680
12980SOL    HW150918   3.634   8.573   2.521  0.2240  0.1532  0.3724
12980SOL    HW250919   3.702   8.437   2.528  0.6545  0.2942 -0.8855
12981SOL     OW50920   3.960   3.936   0.144 -0.1507 -0.1795  0.8405
12981SOL    HW150921   3.989   4.027   0.140  1.8172 -0.7973 -1.1150
12981SOL    HW250922   3.970   3.912   0.236  2.3420  0.7332  0.8851
12982SOL     OW50923   2.731   2.903   6.019 -0.2688  0.7481 -0.0582
12982SOL    HW150924   2.826   2.898   6.026 -0.3706 -2.1687  0.5325
12982SOL    HW250925   2.714   2.917   5.926  0.7266  0.6350 -0.2693
12983SOL     OW50926   9.978   3.505   3.016 -0.6606 -0.6432 -0.3619
12983SOL    HW150927   9.903   3.521   2.958 -1.5058 -2.1929  0.2264
12983SOL    HW250928   9.984   3.409   3.020 -0.1442 -0.5652  1.4790
12984SOL     OW50929   6.594   1.996   9.357  0.0290 -0.2939  0.1554
12984SOL    HW150930   6.514   2.027   9.315  0.5798  0.3467 -0.4694
12984SOL    HW250931   6.618   1.917   9.309  0.1336 -0.1027 -0.1123
12985SOL     OW50932   8.883   2.683   5.944  0.3281  0.2755 -0.2943
12985SOL    HW150933   8.913   2.597   5.974 -0.2681 -0.2058 -1.0403
12985SOL    HW250934   8.792   2.689   5.973 -0.0646  0.0592 -1.4279
12986SOL     OW50935   8.772   5.499   8.517 -0.4098 -0.1417 -0.4057
12986SOL    HW150936   8.849   5.463   8.473  0.1508 -0.1198  0.5225
12986SOL    HW250937   8.711   5.518   8.446  0.3671 -0.3244 -1.1498
12987SOL     OW50938   3.695   9.542   3.672  0.2802  0.3003  0.0093
12987SOL    HW150939   3.770   9.494   3.708  0.2844  1.2366  1.3698
12987SOL    HW250940   3.638   9.557   3.748 -1.0823 -0.0011 -0.9185
12988SOL     OW50941   4.947   6.413   3.915  0.3004  0.1279 -0.8355
12988SOL    HW150942   5.013   6.424   3.984 -0.9050  2.0906  0.1158
12988SOL    HW250943   4.901   6.497   3.913 -2.1443 -1.1405 -1.4778
12989SOL     OW50944   5.907   2.431   9.247 -0.0459  0.1769  0.7572
12989SOL    HW150945   5.903   2.422   9.342 -1.7822 -0.4274  0.6616
12989SOL    HW250946   5.843   2.498   9.227 -1.2308 -1.1648 -0.1280
12990SOL     OW50947   7.411   5.012   2.437  0.1347 -0.1089 -0.6581
12990SOL    HW150948   7.452   5.025   2.523  1.7275  0.1517 -1.4104
12990SOL    HW250949   7.451   5.080   2.382  0.1440 -1.1169 -1.9303
12991SOL     OW50950   7.196   0.129   6.427  0.0900 -0.0431  0.3796
12991SOL    HW150951   7.169   0.211   6.386 -1.1363 -0.8579 -0.5238
12991SOL    HW250952   7.169   0.137   6.518  0.1271  0.6161  0.3393
12992SOL     OW50953   1.626   5.477  10.330  0.3033  0.5500 -0.2749
12992SOL    HW150954   1.584   5.420  10.266 -1.7688  0.9466  0.6378
12992SOL    HW250955   1.595   5.443  10.415  1.7939  0.9358  0.4491
12993SOL     OW50956   9.106   0.100   5.941 -0.1858  0.2731 -1.0226
12993SOL    HW150957   9.014   0.114   5.917  0.2909  1.9868 -2.1184
12993SOL    HW250958   9.152   0.098   5.857  1.1031  2.4914 -0.4711
12994SOL     OW50959   6.999   6.089   8.949 -0.1930  0.5178  0.1960
12994SOL    HW150960   6.949   6.035   8.889  0.8129  0.3682 -0.5286
12994SOL    HW250961   6.938   6.110   9.020 -0.1002 -3.2922  1.6401
12995SOL     OW50962   5.291   9.399   1.087 -0.1152 -0.4249  0.3329
12995SOL    HW150963   5.348   9.402   1.010 -0.4613  0.8171  0.1018
12995SOL    HW250964   5.350   9.405   1.161  0.1168  0.0513  0.1152
12996SOL     OW50965   8.746   1.319   1.971 -0.0203  0.1056  0.3842
12996SOL    HW150966   8.807   1.336   1.899 -0.5875  1.3238  0.1766
12996SOL    HW250967   8.774   1.379   2.040 -0.6566  0.3024  0.4757
12997SOL     OW50968   0.649   8.197   8.775 -0.1443  0.4245  0.0076
12997SOL    HW150969   0.723   8.139   8.761 -0.8944 -0.8364  1.0277
12997SOL    HW250970   0.573   8.139   8.780 -0.6516  1.1214  3.4593
12998SOL     OW50971   4.417   4.543   2.253 -0.1684  0.0639  0.2186
12998SOL    HW150972   4.409   4.637   2.269 -0.7696 -0.2874  2.2469
12998SOL    HW250973   4.430   4.505   2.339  0.3904 -1.7113 -0.6006
12999SOL     OW50974   9.639   0.626   1.192  0.5826 -0.3883  0.0919
12999SOL    HW150975   9.590   0.680   1.253 -0.2022 -1.0797  0.0917
12999SOL    HW250976   9.613   0.536   1.213 -0.8579 -0.5928 -2.2104
13000SOL     OW50977   3.558   5.165   8.778 -0.0534  0.1895 -0.4223
13000SOL    HW150978   3.516   5.180   8.863 -0.0547 -0.9066 -0.2205
13000SOL    HW250979   3.510   5.222   8.717 -0.5652  0.3952  0.1665
13001SOL     OW50980   9.270   1.628   5.005  0.0273 -0.2744  0.0531
13001SOL    HW150981   9.300   1.705   5.052 -2.5611  0.2456  1.0467
13001SOL    HW250982   9.197   1.660   4.951  0.0744 -1.6967 -0.9077
13002SOL     OW50983   1.379   2.392   1.924  0.3661  0.1203  1.0161
13002SOL    HW150984   1.423   2.365   2.005  1.8075 -1.3610 -0.1899
13002SOL    HW250985   1.447   2.384   1.857 -0.8229  1.2304 -0.3754
13003SOL     OW50986   9.255   3.155   3.420  0.0191  0.2792 -0.3713
13003SOL    HW150987   9.160   3.154   3.407 -0.1728  0.2511  0.9150
13003SOL    HW250988   9.266   3.154   3.515  1.3258 -0.4938 -0.5097
13004SOL     OW50989   2.752   0.582   2.733  0.1323 -0.4171 -0.2725
13004SOL    HW150990   2.713   0.590   2.820 -0.0822  1.3042 -0.4754
13004SOL    HW250991   2.685   0.540   2.680  0.0476 -0.9671  0.2588
13005SOL     OW50992   1.172   8.880   8.214 -0.2970 -0.8055  1.3147
13005SOL    HW150993   1.159   8.857   8.121 -1.3223  4.1147 -0.0362
13005SOL    HW250994   1.260   8.918   8.217 -0.4077 -0.6118  2.2983
13006SOL     OW50995   6.537   7.157   0.220 -0.0578  0.2091  0.4356
13006SOL    HW150996   6.502   7.214   0.289  0.2864 -2.8644  3.3981
13006SOL    HW250997   6.632   7.174   0.221 -0.1019  0.4591  0.4199
13007SOL     OW50998   1.628   9.649   9.164  0.3155 -0.1425  0.4661
13007SOL    HW150999   1.666   9.736   9.151 -0.7538  0.1003 -1.5228
13007SOL    HW251000   1.534   9.666   9.178 -0.1124 -0.9654 -1.0840
13008SOL     OW51001   8.016   0.156   9.338  0.3278 -0.1598 -0.5155
13008SOL    HW151002   8.071   0.080   9.360 -0.3790 -0.7613 -0.7892
13008SOL    HW251003   8.074   0.213   9.287  0.0005 -2.0029 -3.1332
13009SOL     OW51004   0.577   0.499   1.558  0.2088 -0.0055 -0.3115
13009SOL    HW151005   0.591   0.458   1.643  2.5023  2.4529  0.6672
13009SOL    HW251006   0.548   0.588   1.579 -0.3632  0.2958 -2.1656
13010SOL     OW51007   3.241  10.089   1.240  0.0010 -0.1023  0.4180
13010SOL    HW151008   3.152  10.055   1.252  0.0121  0.2327  1.6120
13010SOL    HW251009   3.295  10.029   1.292  0.1443  1.1012  1.7260
13011SOL     OW51010   7.067   9.185   3.541  0.0535 -0.0304  0.1605
13011SOL    HW151011   7.105   9.219   3.460  0.3634  0.2202  0.4083
13011SOL    HW251012   7.012   9.256   3.573  1.3522  0.5891  1.1188
13012SOL     OW51013   6.721   1.276   5.121 -0.3930  0.4070  0.2377
13012SOL    HW151014   6.758   1.197   5.080  2.8708  2.2528 -0.7726
13012SOL    HW251015   6.669   1.242   5.193 -0.0726 -2.7154 -0.8029
13013SOL     OW51016   5.566   7.662   7.817 -0.2230  0.1338  0.0109
13013SOL    HW151017   5.611   7.743   7.794 -0.3005  0.2265  0.1817
13013SOL    HW251018   5.621   7.623   7.885 -0.1946  0.0507 -0.0591
13014SOL     OW51019   6.740   7.283   8.736  0.6412 -0.4559 -0.3630
13014SOL    HW151020   6.793   7.292   8.657  1.5684 -0.0541  0.2782
13014SOL    HW251021   6.801   7.249   8.802  0.4558  1.1923  0.7285
13015SOL     OW51022   2.876   2.552   7.746 -0.8601 -0.2603  0.2686
13015SOL    HW151023   2.788   2.571   7.780 -0.0874 -0.6427  2.6892
13015SOL    HW251024   2.932   2.616   7.789  0.5155 -2.2579  1.6051
13016SOL     OW51025   1.340   3.117   1.904  0.9512 -0.0000 -0.1521
13016SOL    HW151026   1.353   3.136   1.997  1.7222  0.5243 -0.3576
13016SOL    HW251027   1.340   3.021   1.898 -1.4115 -0.1157  0.6892
13017SOL     OW51028   6.351   2.864   7.196 -0.0060 -0.2818  0.2552
13017SOL    HW151029   6.363   2.930   7.128 -1.4471 -0.7712 -0.5143
13017SOL    HW251030   6.425   2.804   7.185  0.9536  0.8019  0.5365
13018SOL     OW51031   2.480   1.979   9.023  0.0844  0.6751  0.1018
13018SOL    HW151032   2.408   1.925   9.057  2.1164 -2.0047  0.5317
13018SOL    HW251033   2.470   2.063   9.066 -1.5376 -0.3155  1.8329
13019SOL     OW51034   8.838  10.328   0.720 -0.4988 -0.2850 -0.2655
13019SOL    HW151035   8.916  10.355   0.768 -0.6594  0.3733 -0.3767
13019SOL    HW251036   8.775  10.398   0.735 -0.1835  0.5091 -2.3732
13020SOL     OW51037   2.070   9.328   7.469 -0.3815 -0.6084  1.1406
13020SOL    HW151038   2.124   9.251   7.489  0.1224 -0.8045 -0.7763
13020SOL    HW251039   2.036   9.356   7.554  0.8511 -1.8861  2.1058
13021SOL     OW51040   3.963   7.047   4.449 -0.2426 -0.8112 -0.1868
13021SOL    HW151041   4.026   6.976   4.466 -1.1155 -1.4923  0.3437
13021SOL    HW251042   3.890   7.003   4.407 -0.9159 -0.2795  0.4096
13022SOL     OW51043   4.686   9.771   8.374  0.1340 -0.1958  0.0288
13022SOL    HW151044   4.693   9.675   8.377 -0.7161 -0.2802  3.3690
13022SOL    HW251045   4.761   9.799   8.322  0.5262 -2.6356 -0.8597
13023SOL     OW51046   7.206   7.819   6.262 -0.0421 -0.0082 -0.0547
13023SOL    HW151047   7.115   7.798   6.240 -0.3742  2.1471 -1.0514
13023SOL    HW251048   7.259   7.770   6.200 -0.5746 -0.5743 -0.0651
13024SOL     OW51049   5.806   8.385   7.221 -0.2865  0.2204  0.1001
13024SOL    HW151050   5.750   8.416   7.292 -1.2216 -1.1184 -0.0224
13024SOL    HW251051   5.854   8.311   7.258  0.0249  0.1903 -0.3519
13025SOL     OW51052   9.723   8.084   0.808  0.4852 -0.2749 -0.5055
13025SOL    HW151053   9.680   8.008   0.767  0.2942  0.6868 -2.1713
13025SOL    HW251054   9.651   8.135   0.845  0.4999 -0.3468 -0.3795
13026SOL     OW51055   0.554   6.523   7.088 -0.7501 -0.3326 -0.8025
13026SOL    HW151056   0.576   6.495   6.999 -0.6569 -1.2036 -0.5132
13026SOL    HW251057   0.502   6.602   7.075 -2.0292 -1.2668 -1.7092
13027SOL     OW51058   9.479   6.602   5.122  0.9336  0.0958  0.2009
13027SOL    HW151059   9.498   6.549   5.200  1.5529  1.6192  1.1316
13027SOL    HW251060   9.393   6.571   5.093  0.8253 -0.7162  1.3050
13028SOL     OW51061   7.153   1.643   9.820  0.1913  0.7989  0.0745
13028SOL    HW151062   7.231   1.673   9.774  0.6062 -0.2568  0.0749
13028SOL    HW251063   7.168   1.667   9.912  1.2125 -0.7120  0.3419
13029SOL     OW51064   5.996   6.356   4.859  0.0622  0.4930  0.0679
13029SOL    HW151065   6.067   6.393   4.808  0.7626 -1.5103 -0.5167
13029SOL    HW251066   6.038   6.323   4.939 -0.3586  0.1686  0.1665
13030SOL     OW51067   4.048   6.356   6.033 -0.1007  0.4394  0.7099
13030SOL    HW151068   3.979   6.303   6.073 -1.0546  1.1869  0.0985
13030SOL    HW251069   4.036   6.443   6.072  0.2690  0.6572  0.3419
13031SOL     OW51070   0.011   3.084   9.696 -0.2956 -0.2536 -0.1885
13031SOL    HW151071  -0.018   3.019   9.760 -1.2108  0.7656  0.4900
13031SOL    HW251072  -0.067   3.139   9.682 -0.4057 -0.9858 -2.9111
13032SOL     OW51073   8.013   8.962   7.567  0.3010 -0.0459 -0.1696
13032SOL    HW151074   8.032   9.052   7.541  1.7199 -0.6599 -1.4338
13032SOL    HW251075   7.930   8.967   7.615 -0.3563  1.7441 -1.4072
13033SOL     OW51076   9.132   6.133   6.609  0.3979  0.3536  0.4972
13033SOL    HW151077   9.197   6.141   6.540  1.7043  1.7384  1.8164
13033SOL    HW251078   9.062   6.081   6.570  1.3375  0.6014 -1.6645
13034SOL     OW51079   0.644   0.824   4.576  0.1957 -0.3025  0.1482
13034SOL    HW151080   0.619   0.893   4.516  1.7683 -0.6561 -0.9642
13034SOL    HW251081   0.579   0.755   4.562 -0.0628  0.0438 -0.3719
13035SOL     OW51082   5.445   4.104   8.375  0.5706 -0.2480  0.0909
13035SOL    HW151083   5.354   4.127   8.354  1.1087  0.9166 -1.1143
13035SOL    HW251084   5.463   4.152   8.456  0.2352 -0.1495  0.1087
13036SOL     OW51085   1.287   6.086   5.125 -0.1524  0.2575 -0.4951
13036SOL    HW151086   1.327   6.065   5.040 -0.6627  0.0203 -0.6788
13036SOL    HW251087   1.196   6.105   5.105 -0.6775 -1.3639  0.1796
13037SOL     OW51088   1.379   3.063   9.221  0.2652 -0.1144 -0.8100
13037SOL    HW151089   1.425   3.135   9.178 -0.4835  1.0354  0.2205
13037SOL    HW251090   1.425   2.984   9.193  0.0860  0.5995 -3.2887
13038SOL     OW51091   4.387   8.211   7.430 -0.0665 -0.4146  0.4733
13038SOL    HW151092   4.476   8.226   7.399 -0.3848  0.0542 -0.2609
13038SOL    HW251093   4.332   8.260   7.368 -0.9471 -2.0934 -0.1327
13039SOL     OW51094   8.580   8.710   6.680 -0.0229  0.3109  0.3020
13039SOL    HW151095   8.487   8.719   6.699 -0.3441  2.6132 -1.7808
13039SOL    HW251096   8.622   8.777   6.735  0.2801  0.0219  0.4257
13040SOL     OW51097   5.654   8.769   0.996 -0.7108  0.3458  0.7690
13040SOL    HW151098   5.729   8.743   0.942  1.0974  4.2350  1.0410
13040SOL    HW251099   5.583   8.779   0.933 -0.4178 -1.2315  0.1357
13041SOL     OW51100   8.697   1.493   5.168  0.5317 -0.1884  0.0025
13041SOL    HW151101   8.779   1.461   5.207  0.8410 -0.6885 -1.0248
13041SOL    HW251102   8.718   1.581   5.137  0.9519 -0.6467 -1.0513
13042SOL     OW51103   0.339   1.027   7.239  0.4188  0.5374  0.5226
13042SOL    HW151104   0.434   1.021   7.246  0.3591 -1.7374  0.1169
13042SOL    HW251105   0.306   0.947   7.279 -1.1244 -0.3227 -2.1787
13043SOL     OW51106   6.365   9.826   0.440 -0.5111 -0.0966 -0.2382
13043SOL    HW151107   6.390   9.735   0.457 -1.2379 -0.3084 -0.2496
13043SOL    HW251108   6.440   9.878   0.469 -0.5377 -0.6270  0.7986
13044SOL     OW51109   6.160   3.330   6.521  0.7972  0.4160  0.7321
13044SOL    HW151110   6.090   3.313   6.585  0.1255 -0.7667 -0.2543
13044SOL    HW251111   6.201   3.244   6.508 -1.2727 -0.2587 -2.8434
13045SOL     OW51112   4.992   9.026   4.858  0.2926  0.1269  0.3802
13045SOL    HW151113   4.942   9.107   4.868  0.1078  0.4033 -2.2813
13045SOL    HW251114   5.080   9.054   4.836  0.3279 -0.4003 -0.1622
13046SOL     OW51115   1.967   7.751   6.928  0.6746 -0.0718 -0.0622
13046SOL    HW151116   1.990   7.701   6.850 -0.2212  1.9500 -1.6827
13046SOL    HW251117   1.956   7.684   6.996 -1.4821 -2.2256 -2.3303
13047SOL     OW51118   9.958   2.591   4.645  0.7349  0.6705 -0.1364
13047SOL    HW151119   9.882   2.616   4.697  0.3355  0.3802 -0.5731
13047SOL    HW251120   9.937   2.620   4.556  0.1506 -1.3663 -0.7058
13048SOL     OW51121   5.526   1.965   5.895 -0.4806  0.2519  0.3274
13048SOL    HW151122   5.554   2.042   5.847 -0.8641  0.2330  0.0657
13048SOL    HW251123   5.513   1.898   5.828  0.1207 -0.1218  0.5828
13049SOL     OW51124   4.217   1.000   3.600 -0.4716  0.0140 -0.7190
13049SOL    HW151125   4.293   0.959   3.641 -0.1321  1.1536 -0.1549
13049SOL    HW251126   4.173   0.929   3.553  1.1276 -0.6121 -1.3536
13050SOL     OW51127   1.266   5.904   1.530 -0.3632  0.1094  0.1875
13050SOL    HW151128   1.180   5.902   1.487 -0.5835 -0.3257  0.6390
13050SOL    HW251129   1.300   5.815   1.521 -0.2921  0.0838  0.6716
13051SOL     OW51130   1.050   5.262   7.075  0.2315  0.0196  0.4928
13051SOL    HW151131   1.139   5.260   7.111  0.3014  1.0515  0.4075
13051SOL    HW251132   0.994   5.240   7.149  0.2505  3.5818  1.7806
13052SOL     OW51133   6.126   5.430   3.474 -0.1778 -0.0730 -0.0486
13052SOL    HW151134   6.054   5.382   3.516  0.5100  0.1917  1.5307
13052SOL    HW251135   6.138   5.387   3.390  0.2549 -2.5695  1.1883
13053SOL     OW51136   0.042   7.546   4.993 -0.1271 -0.5673 -0.4071
13053SOL    HW151137   0.134   7.525   5.012  0.5721  2.7831  0.6255
13053SOL    HW251138  -0.003   7.526   5.075 -0.2368 -1.6547 -0.7209
13054SOL     OW51139   5.585   9.155   1.258 -0.1728  0.4505  0.7051
13054SOL    HW151140   5.539   9.235   1.233 -2.4549 -0.6681  1.0439
13054SOL    HW251141   5.560   9.092   1.190 -1.1511 -0.8339  2.1807
13055SOL     OW51142   7.837  10.166   1.290 -0.1026 -0.0183 -0.0777
13055SOL    HW151143   7.903  10.204   1.232 -0.4334  1.1612  0.2922
13055SOL    HW251144   7.760  10.223   1.279 -1.3755 -1.8494 -1.1354
13056SOL     OW51145  10.387   4.795   3.601  0.0624 -0.1637 -0.1123
13056SOL    HW151146  10.414   4.728   3.664 -0.1881  0.3556  0.5557
13056SOL    HW251147  10.311   4.756   3.557  0.3448 -0.6009 -0.2206
13057SOL     OW51148   5.234   8.834   3.050  0.6126 -0.0292 -0.2540
13057SOL    HW151149   5.149   8.838   3.093 -0.4571 -1.1413 -2.1577
13057SOL    HW251150   5.255   8.926   3.030  0.3562  0.3435  1.0893
13058SOL     OW51151   2.100   8.183   0.470 -0.0017 -0.7119 -0.4746
13058SOL    HW151152   2.076   8.233   0.392 -0.5288  0.7017  0.5464
13058SOL    HW251153   2.167   8.122   0.439  0.5269  0.4811 -1.8425
13059SOL     OW51154  10.198   6.469   3.849 -0.1676  0.6659  0.1807
13059SOL    HW151155  10.150   6.397   3.890  1.2023 -0.2998  0.1749
13059SOL    HW251156  10.167   6.548   3.894 -0.3829 -0.1326  1.4755
13060SOL     OW51157   9.803   3.291   5.334  0.4382  0.0483  0.3928
13060SOL    HW151158   9.713   3.268   5.357 -0.1763  2.1873  0.3372
13060SOL    HW251159   9.856   3.234   5.389 -0.9680 -0.3455  1.4189
13061SOL     OW51160   1.914   6.820   1.887 -0.6388  0.0123  0.0551
13061SOL    HW151161   1.927   6.737   1.934 -1.2021  0.3709  0.8731
13061SOL    HW251162   1.948   6.886   1.947  0.3008  0.3478 -0.8148
13062SOL     OW51163   4.619   9.552   1.286 -0.1740  0.1576 -0.1424
13062SOL    HW151164   4.620   9.468   1.240 -2.8981 -0.9830  1.5973
13062SOL    HW251165   4.532   9.588   1.267  0.3492  1.8327  0.4683
13063SOL     OW51166   4.425   4.854   2.288  0.0143 -0.0263 -0.1439
13063SOL    HW151167   4.447   4.946   2.279  0.0528 -0.0851 -0.7609
13063SOL    HW251168   4.464   4.827   2.371  0.0710  0.4918 -0.0029
13064SOL     OW51169   8.474   7.314   5.453 -0.0040 -0.2210 -0.2354
13064SOL    HW151170   8.398   7.369   5.472 -0.0300 -0.1276 -0.6115
13064SOL    HW251171   8.540   7.342   5.517  0.0801  0.4512 -0.6108
13065SOL     OW51172   6.308   4.001   7.521  0.2345 -0.1025 -0.4820
13065SOL    HW151173   6.235   4.042   7.476  0.1422 -0.6884 -0.8825
13065SOL    HW251174   6.386   4.034   7.475  0.4426  2.4483  1.4569
13066SOL     OW51175   9.822   8.015   7.012  0.3141  0.1597  0.4198
13066SOL    HW151176   9.887   7.993   6.946 -0.7798 -0.9524 -0.3466
13066SOL    HW251177   9.773   7.934   7.024 -0.8993  0.9503  0.9818
13067SOL     OW51178   4.002   6.057   3.630 -0.1698  0.2396 -0.0778
13067SOL    HW151179   4.085   6.031   3.590 -0.5459 -0.8358 -0.1981
13067SOL    HW251180   4.006   6.153   3.633  1.2725  0.1971  0.3538
13068SOL     OW51181  10.365   6.249   3.795  0.1234  0.3252 -0.4528
13068SOL    HW151182  10.356   6.157   3.817  1.1149  0.2558 -0.2812
13068SOL    HW251183  10.316   6.295   3.863  0.7844 -0.0227  0.2839
13069SOL     OW51184   1.483   0.254   7.948  0.0759  0.2305 -0.1713
13069SOL    HW151185   1.423   0.221   7.880 -0.6977  1.1283  0.0578
13069SOL    HW251186   1.566   0.266   7.902 -0.5320  1.1834 -1.0869
13070SOL     OW51187   2.602   0.810   9.950 -0.2125  0.3269  0.1470
13070SOL    HW151188   2.537   0.744   9.974 -1.0679  1.7610  1.9854
13070SOL    HW251189   2.654   0.823  10.029  0.4470  1.2905 -0.4252
13071SOL     OW51190   8.360   4.339   7.911 -0.1175 -0.4901  0.2667
13071SOL    HW151191   8.445   4.373   7.939  0.6277 -3.3783  1.9675
13071SOL    HW251192   8.372   4.316   7.819  0.9325 -0.8062  0.4717
13072SOL     OW51193  10.360   6.327   8.473  0.0919 -0.5905 -0.1820
13072SOL    HW151194  10.334   6.316   8.382  1.8316  0.3470 -0.8550
13072SOL    HW251195  10.450   6.294   8.476  0.2309 -0.1662  1.0655
13073SOL     OW51196   1.246   7.201   8.133  0.4179 -0.0320 -0.4216
13073SOL    HW151197   1.333   7.240   8.128 -0.0612  0.9655 -1.3283
13073SOL    HW251198   1.218   7.218   8.223  0.0343  2.2120 -0.9038
13074SOL     OW51199   0.906   4.944  10.136  0.5679 -0.5464 -0.5570
13074SOL    HW151200   0.827   4.998  10.134 -0.2643 -1.7451 -1.3873
13074SOL    HW251201   0.927   4.929  10.044  0.8041 -1.5898 -0.3494
13075SOL     OW51202   8.245   3.859   5.998  0.0750 -0.0053  0.3962
13075SOL    HW151203   8.274   3.827   6.084  0.8089 -1.7466 -0.4413
13075SOL    HW251204   8.151   3.840   5.996  0.1553 -0.4513  0.6368
13076SOL     OW51205   1.998   5.035   2.191  0.2652  0.0561  0.1003
13076SOL    HW151206   2.087   5.006   2.170 -0.3551 -0.9481 -1.3451
13076SOL    HW251207   1.989   5.118   2.145  0.0162 -0.5296 -0.9506
13077SOL     OW51208   8.616   0.941   2.715  0.0877  0.5367  0.2442
13077SOL    HW151209   8.595   1.003   2.785  0.8758  1.4368 -0.2808
13077SOL    HW251210   8.700   0.903   2.742 -1.3106 -1.8234  1.5396
13078SOL     OW51211   9.427   4.509   3.221  0.1137  0.3289 -0.0855
13078SOL    HW151212   9.474   4.426   3.225 -1.0220 -0.3074  1.4133
13078SOL    HW251213   9.364   4.497   3.150 -2.0602 -1.3201  1.9536
13079SOL     OW51214  10.367   0.878   4.810 -0.3755 -0.2228  0.4046
13079SOL    HW151215  10.437   0.922   4.858  0.8872 -2.0870  0.3688
13079SOL    HW251216  10.389   0.892   4.717 -3.0322  3.7308  0.1068
13080SOL     OW51217   7.322   7.710   7.941  0.1447  0.3534  0.1714
13080SOL    HW151218   7.293   7.712   7.850 -0.2392  0.1971  0.2898
13080SOL    HW251219   7.267   7.644   7.982 -0.3219  1.0893  0.7452
13081SOL     OW51220   1.509   4.688   7.620  0.1771 -0.7260 -0.1278
13081SOL    HW151221   1.436   4.649   7.668  1.8825 -2.6149  1.1012
13081SOL    HW251222   1.484   4.679   7.528 -0.4136 -3.0274  0.1757
13082SOL     OW51223   1.159   0.909   2.796  0.1090  0.0942 -0.9838
13082SOL    HW151224   1.175   0.840   2.860 -1.1839 -0.3722 -1.1429
13082SOL    HW251225   1.138   0.986   2.847  2.2648  0.6228 -0.7758
13083SOL     OW51226   3.295   9.701   5.465 -0.3674 -0.2929  1.1684
13083SOL    HW151227   3.297   9.788   5.424 -1.2069  0.2116  2.1459
13083SOL    HW251228   3.383   9.687   5.498  0.7639 -1.3118 -1.9286
13084SOL     OW51229   1.316   3.352   6.308  0.3326  0.3323 -0.1096
13084SOL    HW151230   1.356   3.282   6.256  1.7116  0.0762  1.2412
13084SOL    HW251231   1.226   3.356   6.276  0.6570 -0.9709 -1.3130
13085SOL     OW51232   4.439   1.794   7.221  0.3982 -0.7038 -0.3317
13085SOL    HW151233   4.381   1.831   7.287  0.4493 -0.1208 -0.6076
13085SOL    HW251234   4.524   1.833   7.239  0.2906 -0.0973 -1.0855
13086SOL     OW51235   3.947   1.679   3.255  0.2905 -0.2010  0.2406
13086SOL    HW151236   4.034   1.665   3.217 -0.5226 -1.7133 -1.2609
13086SOL    HW251237   3.904   1.738   3.193  0.2192  0.5083  0.9590
13087SOL     OW51238   8.459   9.431   0.329  0.6492 -0.0532  0.3811
13087SOL    HW151239   8.518   9.499   0.298  1.8141 -2.0764 -2.2554
13087SOL    HW251240   8.374   9.454   0.291 -0.2512  2.4310  3.5301
13088SOL     OW51241   3.282   8.381   1.568  0.2997  0.2379 -0.0211
13088SOL    HW151242   3.370   8.416   1.578 -0.2599  1.4578  0.7922
13088SOL    HW251243   3.234   8.412   1.644 -0.8206 -0.4976 -0.3893
13089SOL     OW51244   3.556   0.879   7.349 -0.2714  0.0550 -0.2691
13089SOL    HW151245   3.550   0.973   7.364 -1.6294 -0.1088  0.3512
13089SOL    HW251246   3.478   0.858   7.298  0.7239 -0.5347 -1.6294
13090SOL     OW51247   1.530   2.030   6.392 -0.6462  0.2413  0.0661
13090SOL    HW151248   1.580   2.080   6.328  0.1609  0.7186  1.0343
13090SOL    HW251249   1.520   2.089   6.466 -1.6622 -0.2540  0.3361
13091SOL     OW51250   4.274   7.031  10.073 -0.2100 -0.5214  0.3856
13091SOL    HW151251   4.305   6.941  10.065  1.0628  0.0279 -1.5709
13091SOL    HW251252   4.223   7.046   9.993  2.6583  1.5463 -1.2418
13092SOL     OW51253   9.509   8.628   1.767 -0.3984 -0.1676  0.0022
13092SOL    HW151254   9.604   8.631   1.781 -0.1535  0.3447 -1.5992
13092SOL    HW251255   9.483   8.544   1.804  0.8116 -0.6938 -0.2752
13093SOL     OW51256   2.740   8.794   4.718  0.4653 -0.2760 -0.4967
13093SOL    HW151257   2.773   8.707   4.742  1.5896 -0.0813 -1.2510
13093SOL    HW251258   2.746   8.796   4.622  1.9903  1.1896 -0.4195
13094SOL     OW51259   3.166   0.441   3.874  0.8152  0.1431 -0.0054
13094SOL    HW151260   3.244   0.496   3.872 -0.5517  2.1882  0.5611
13094SOL    HW251261   3.094   0.501   3.891 -0.6252 -2.0008  2.0088
13095SOL     OW51262   8.585   8.972   9.544  0.3853 -0.6023 -0.4665
13095SOL    HW151263   8.548   8.885   9.530 -0.1587 -0.3894 -0.3735
13095SOL    HW251264   8.595   8.980   9.639 -0.6882 -0.1166 -0.3810
13096SOL     OW51265   1.503   1.229   8.633  0.0727 -0.1501  0.4096
13096SOL    HW151266   1.560   1.218   8.557  0.6415 -1.2075  0.9602
13096SOL    HW251267   1.545   1.177   8.702  1.6476  3.5789  2.6185
13097SOL     OW51268   3.527   3.487   1.775 -0.0766  0.1068  0.2608
13097SOL    HW151269   3.540   3.396   1.802  1.3757  0.3522  0.4824
13097SOL    HW251270   3.480   3.528   1.847  0.1517 -0.2281  0.6014
13098SOL     OW51271   1.154   5.288   7.535  0.0399 -0.1226  0.2228
13098SOL    HW151272   1.141   5.204   7.578  0.7217  0.2071  1.1007
13098SOL    HW251273   1.249   5.300   7.533 -0.0793  1.2671  1.4046
13099SOL     OW51274   3.476   5.178   2.030  0.1536 -0.6755  0.3234
13099SOL    HW151275   3.472   5.143   1.941  1.8779 -0.9396  0.3198
13099SOL    HW251276   3.505   5.105   2.084  1.1246  0.0067  0.7542
13100SOL     OW51277   7.774   4.380   9.821  0.6609 -0.0927 -0.0177
13100SOL    HW151278   7.862   4.377   9.858  1.2360  1.2424 -1.1707
13100SOL    HW251279   7.745   4.289   9.819  2.2980 -0.6264 -0.2619
13101SOL     OW51280  10.056   2.614   8.668  0.2303 -0.5272 -0.0219
13101SOL    HW151281  10.142   2.642   8.697 -0.4812 -0.0940  1.8101
13101SOL    HW251282  10.065   2.520   8.652  1.2660 -0.3039 -0.8538
13102SOL     OW51283   8.700   4.651   6.453 -0.3196 -0.4447 -0.4607
13102SOL    HW151284   8.611   4.683   6.463  0.2248  1.3870 -1.0539
13102SOL    HW251285   8.691   4.569   6.405 -1.6881 -0.3931 -0.3355
13103SOL     OW51286   6.582   5.899   4.724  0.1703 -0.3039 -0.1834
13103SOL    HW151287   6.572   5.924   4.816  1.1892 -1.6753  0.3369
13103SOL    HW251288   6.633   5.969   4.685 -0.5629  0.4606  0.1986
13104SOL     OW51289   9.569   4.288   6.877  0.1247 -0.1525 -0.0327
13104SOL    HW151290   9.571   4.222   6.808  0.4975  1.2977 -1.4766
13104SOL    HW251291   9.661   4.308   6.895  0.0297  1.5846 -1.2766
13105SOL     OW51292   6.172   4.583   1.111  0.2050 -0.0384  0.1358
13105SOL    HW151293   6.264   4.555   1.118  0.0557 -0.1992  1.7716
13105SOL    HW251294   6.177   4.669   1.070  0.8181 -1.3588 -2.9103
13106SOL     OW51295   2.358   9.705   2.316 -0.1524  0.4828  0.0137
13106SOL    HW151296   2.373   9.612   2.329 -1.4274  0.3396  0.6398
13106SOL    HW251297   2.423   9.748   2.372 -0.3616 -0.0546  0.6808
13107SOL     OW51298   6.919   5.874   9.763  0.1592  0.6260 -0.0736
13107SOL    HW151299   6.893   5.966   9.770 -2.9911 -0.0248 -1.6816
13107SOL    HW251300   7.015   5.877   9.755  0.5629  3.4632  3.3462
13108SOL     OW51301   0.805   9.022   4.514 -0.7496  0.0769 -0.1710
13108SOL    HW151302   0.795   8.965   4.590 -1.3298 -1.4426 -1.3346
13108SOL    HW251303   0.892   9.002   4.480  0.0030  1.6264  0.7377
13109SOL     OW51304   1.245   8.053   0.140  0.4640 -0.2362  0.0674
13109SOL    HW151305   1.177   8.019   0.198 -0.2249 -0.3199 -0.7598
13109SOL    HW251306   1.221   8.145   0.127 -1.1159 -0.8653 -2.3436
13110SOL     OW51307   1.749   3.391   0.817 -0.2319 -0.4146  0.2040
13110SOL    HW151308   1.675   3.342   0.780 -0.0352 -0.5168 -0.0496
13110SOL    HW251309   1.802   3.324   0.860  2.1941 -1.1259 -3.4992
13111SOL     OW51310   6.687   9.105   7.469 -0.1151 -0.0189  0.5557
13111SOL    HW151311   6.627   9.067   7.533 -0.4353 -0.6126 -0.0901
13111SOL    HW251312   6.738   9.169   7.519  0.0054 -0.8518  1.5166
13112SOL     OW51313   4.826  10.177   8.464 -0.0128 -0.3038  0.2008
13112SOL    HW151314   4.772  10.137   8.532 -0.5363 -0.6399 -0.3953
13112SOL    HW251315   4.764  10.199   8.394  0.8503 -2.6452 -1.4310
13113SOL     OW51316   6.097   9.335   5.123  0.0405 -0.5733 -0.4742
13113SOL    HW151317   6.046   9.290   5.191  1.1139 -1.3713 -0.1722
13113SOL    HW251318   6.162   9.270   5.095  2.3925  1.0917  0.7664
13114SOL     OW51319  10.188   7.511   6.912 -0.1321 -0.2453 -0.2950
13114SOL    HW151320  10.124   7.565   6.865  1.4986  0.3348 -1.9677
13114SOL    HW251321  10.162   7.421   6.890 -0.5605 -0.0310 -0.7031
13115SOL     OW51322   3.976   7.495   4.698  0.0069 -0.5189 -0.1257
13115SOL    HW151323   3.996   7.461   4.784  1.0968 -0.3216 -0.2863
13115SOL    HW251324   3.928   7.425   4.654  2.5216 -2.0538 -0.5917
13116SOL     OW51325   8.324   1.309   4.122 -0.0504 -0.0332  0.1797
13116SOL    HW151326   8.319   1.405   4.128  0.5127  0.1670 -1.7944
13116SOL    HW251327   8.414   1.292   4.096 -0.2938 -1.0641 -0.0124
13117SOL     OW51328   6.684   1.570   0.330  0.0358  0.4681  0.1630
13117SOL    HW151329   6.729   1.496   0.288  2.7901  0.7529  2.3196
13117SOL    HW251330   6.695   1.643   0.269 -0.2574 -0.2197 -0.7360
13118SOL     OW51331   9.239   8.354   1.684 -0.3014 -0.3525  0.7138
13118SOL    HW151332   9.277   8.359   1.772 -1.4933  1.0509  1.2055
13118SOL    HW251333   9.145   8.341   1.700 -0.8049  1.6489 -0.2553
13119SOL     OW51334   7.567   8.862   1.341 -1.1808  0.2859 -0.3069
13119SOL    HW151335   7.573   8.768   1.362 -4.5971 -0.8300 -3.3494
13119SOL    HW251336   7.647   8.879   1.290 -1.6616 -1.7425 -1.8862
13120SOL     OW51337   8.307   9.945   1.610  0.3567 -0.9939  0.1303
13120SOL    HW151338   8.366  10.018   1.630 -1.6000  0.6841  0.0827
13120SOL    HW251339   8.361   9.883   1.561  2.0792  0.4531  0.1134
13121SOL     OW51340   3.342   5.855   6.580  0.3631  0.2853 -0.1830
13121SOL    HW151341   3.305   5.819   6.499 -1.6151  0.9610  0.3613
13121SOL    HW251342   3.435   5.834   6.575 -0.2420 -2.7459 -1.0355
13122SOL     OW51343   3.713   4.187   8.445 -0.4478 -0.1077  0.2056
13122SOL    HW151344   3.733   4.095   8.428  1.3219  0.0412  1.1987
13122SOL    HW251345   3.766   4.235   8.382  0.8809  0.2552  1.5212
13123SOL     OW51346   8.204   7.961   7.622 -0.2094 -0.3202 -0.4474
13123SOL    HW151347   8.218   7.879   7.574  1.7446 -0.7048  0.6550
13123SOL    HW251348   8.258   8.025   7.575  1.2135 -0.5558  0.8066
13124SOL     OW51349   8.897   2.219   1.508  0.1245 -0.2637 -0.2315
13124SOL    HW151350   8.978   2.200   1.556 -0.3225 -0.0629  0.6240
13124SOL    HW251351   8.831   2.167   1.552 -0.3674  0.2232 -0.3841
13125SOL     OW51352   9.316   2.825   6.261 -0.2383  0.8544  0.4282
13125SOL    HW151353   9.271   2.897   6.217  0.7338  1.7031  0.7612
13125SOL    HW251354   9.247   2.776   6.304 -0.9311  1.5834  0.1735
13126SOL     OW51355   6.940   3.923   7.585  0.2160 -0.1861 -0.2282
13126SOL    HW151356   6.949   3.839   7.630 -0.4299  0.0398  0.3471
13126SOL    HW251357   6.874   3.908   7.518  1.2692 -0.5563 -1.2186
13127SOL     OW51358   8.557   8.417   1.306  0.1030  0.4284  0.1842
13127SOL    HW151359   8.498   8.484   1.273 -1.5920 -0.3845  1.4358
13127SOL    HW251360   8.511   8.334   1.291  1.5023 -0.3676  0.0171
13128SOL     OW51361   6.706   4.417   7.534  0.4006  0.3456  0.0291
13128SOL    HW151362   6.672   4.403   7.446  0.1634  0.3902  0.1123
13128SOL    HW251363   6.728   4.330   7.566  2.5636  0.4921 -0.8872
13129SOL     OW51364   6.521   4.560   9.694  0.1809 -0.0153 -0.6136
13129SOL    HW151365   6.493   4.614   9.621 -0.9881 -0.2354 -0.3488
13129SOL    HW251366   6.572   4.619   9.750  2.4545 -0.2288 -2.3492
13130SOL     OW51367   6.401   3.947   6.329 -0.3375  0.7303  0.5718
13130SOL    HW151368   6.327   3.932   6.387 -0.8317  0.8918 -0.0056
13130SOL    HW251369   6.362   3.960   6.243  0.4810 -1.4645 -0.1962
13131SOL     OW51370   4.532   0.345   9.049 -0.2284 -0.1511  0.2132
13131SOL    HW151371   4.623   0.374   9.061 -1.1478  2.8234  0.9279
13131SOL    HW251372   4.522   0.335   8.954  1.4453 -3.0712  0.2298
13132SOL     OW51373   9.448   5.718  10.080  0.1606  0.5884 -0.0669
13132SOL    HW151374   9.427   5.625  10.080  1.7766  0.1496  1.8518
13132SOL    HW251375   9.496   5.732   9.999 -1.0826  0.0337 -0.9273
13133SOL     OW51376   8.162   7.470   5.640 -0.0056  0.0354  0.5509
13133SOL    HW151377   8.072   7.494   5.661  0.3744  0.2143  2.1380
13133SOL    HW251378   8.155   7.408   5.568 -1.3229  0.8557 -0.0563
13134SOL     OW51379   1.529   6.377   0.379  0.2144  0.1373 -0.0004
13134SOL    HW151380   1.560   6.332   0.301 -0.5383  1.1791 -0.9197
13134SOL    HW251381   1.543   6.313   0.450 -1.6389 -1.9158 -1.3608
13135SOL     OW51382   9.858   3.510   7.426 -0.3363  0.1985  0.2726
13135SOL    HW151383   9.913   3.435   7.404  1.4799  1.4739  0.2269
13135SOL    HW251384   9.893   3.542   7.509  1.8793  3.5223 -1.7132
13136SOL     OW51385   8.189   8.144   9.905  0.5077  0.2579  0.4042
13136SOL    HW151386   8.241   8.124   9.827  1.6908  1.3855  0.8698
13136SOL    HW251387   8.184   8.061   9.952 -0.2998 -0.4565 -0.9034
13137SOL     OW51388   3.848   9.738   2.139  0.0239  0.2753 -0.1840
13137SOL    HW151389   3.917   9.674   2.122  2.0523  1.7376  1.9624
13137SOL    HW251390   3.771   9.684   2.161  1.6204 -1.5069  1.4953
13138SOL     OW51391   3.899   7.293   7.380  0.3644 -0.1563 -0.0821
13138SOL    HW151392   3.970   7.231   7.365  0.5355  0.4554 -2.1472
13138SOL    HW251393   3.825   7.259   7.329  0.2430  0.9347 -0.6708
13139SOL     OW51394   0.878   0.161   4.366  0.4954 -0.1313  0.6046
13139SOL    HW151395   0.783   0.172   4.361  0.5479  0.0777 -0.0655
13139SOL    HW251396   0.912   0.214   4.294  1.0365 -1.2368  0.0208
13140SOL     OW51397   5.217   0.108   3.464  0.1640 -0.0975 -0.5633
13140SOL    HW151398   5.266   0.187   3.441  0.7530 -0.2611  0.1026
13140SOL    HW251399   5.133   0.117   3.418  0.3812  0.7186 -0.8079
13141SOL     OW51400   6.275   8.421   7.461  0.3386 -0.1581  0.0913
13141SOL    HW151401   6.203   8.476   7.491  0.1449 -0.0442 -0.5601
13141SOL    HW251402   6.352   8.478   7.464  0.8381 -0.8501  2.7598
13142SOL     OW51403  10.386   5.649   0.834  0.7526 -0.0708  0.0132
13142SOL    HW151404  10.343   5.655   0.748  0.7110  0.4659  0.0681
13142SOL    HW251405  10.422   5.737   0.849 -0.6257  0.3154  1.2673
13143SOL     OW51406   3.436   2.952   1.770  0.0123  0.1594 -0.5627
13143SOL    HW151407   3.410   2.937   1.861 -0.4615  2.7297 -0.2137
13143SOL    HW251408   3.469   3.042   1.768  1.9983 -0.5086 -2.5397
13144SOL     OW51409   1.458   5.892   1.274  0.1243  0.6756  0.3396
13144SOL    HW151410   1.515   5.968   1.280 -0.8261  1.7789 -2.5985
13144SOL    HW251411   1.517   5.818   1.257  0.8655  1.3332  0.0004
13145SOL     OW51412   0.739   5.363   6.839 -0.2001  0.0619  0.2488
13145SOL    HW151413   0.713   5.333   6.926  0.5803  2.0609  1.2202
13145SOL    HW251414   0.830   5.389   6.848 -0.4526  1.4255 -0.8634
13146SOL     OW51415  10.191   9.946   3.423 -0.0959  0.0892 -0.4262
13146SOL    HW151416  10.117   9.998   3.455 -0.9418  0.6537 -3.0198
13146SOL    HW251417  10.223   9.900   3.500 -0.9617  2.4615  1.4965
13147SOL     OW51418   6.771   0.218   9.870  0.3598  0.1801 -0.3434
13147SOL    HW151419   6.864   0.203   9.849  0.5520  0.3608  0.3301
13147SOL    HW251420   6.757   0.168   9.951 -0.7250 -1.6669 -1.6004
13148SOL     OW51421   7.550   4.233   8.378 -0.1516 -0.2170  0.0215
13148SOL    HW151422   7.626   4.220   8.320  1.1998 -0.1496  1.6847
13148SOL    HW251423   7.478   4.254   8.319  0.9948 -0.8164 -1.6735
13149SOL     OW51424   2.177   5.891   2.171 -0.1140 -0.6668  0.4272
13149SOL    HW151425   2.265   5.860   2.193  0.1326  0.0522  0.4486
13149SOL    HW251426   2.190   5.976   2.130 -0.9076  0.1695  1.8535
13150SOL     OW51427  10.142   2.552   4.350 -0.0879  0.4760 -0.2573
13150SOL    HW151428  10.053   2.586   4.340  0.1374  1.2675  0.4136
13150SOL    HW251429  10.180   2.603   4.420  0.4476 -0.8050  0.4170
13151SOL     OW51430   3.137   8.765   4.955  0.6326 -0.3060 -0.6887
13151SOL    HW151431   3.216   8.813   4.979  0.5879 -0.2190 -0.7147
13151SOL    HW251432   3.166   8.702   4.889  0.9970 -1.3758  0.4578
13152SOL     OW51433  10.217   9.259   1.668 -0.1669  0.0662  0.4575
13152SOL    HW151434  10.217   9.304   1.583 -0.8731 -0.8552 -0.0650
13152SOL    HW251435  10.157   9.310   1.722 -0.3283  0.2221  0.1378
13153SOL     OW51436   8.750   1.722   8.140  0.1870 -0.4767 -0.3882
13153SOL    HW151437   8.671   1.698   8.091 -0.9317  0.7386  0.7120
13153SOL    HW251438   8.750   1.663   8.215  0.6671 -0.8581 -0.6810
13154SOL     OW51439   0.915   9.413   3.383 -0.0996  0.5850  0.0877
13154SOL    HW151440   0.987   9.476   3.395 -0.4667  1.1247 -0.4682
13154SOL    HW251441   0.926   9.380   3.294 -0.9708  1.2495 -0.2875
13155SOL     OW51442   7.421   1.703   8.539  0.2436  0.3409 -0.2358
13155SOL    HW151443   7.461   1.729   8.622 -0.1593 -1.3917  0.5463
13155SOL    HW251444   7.493   1.670   8.486  0.3687  0.5982 -0.2256
13156SOL     OW51445   1.757   6.361   0.193 -0.5815 -0.4483  0.4379
13156SOL    HW151446   1.842   6.333   0.226 -0.6521 -2.0521 -0.6293
13156SOL    HW251447   1.728   6.290   0.137 -1.1228  1.4775 -1.9081
13157SOL     OW51448  10.128   1.188   4.626  0.0513  0.4713 -0.6116
13157SOL    HW151449  10.187   1.159   4.557 -0.2126 -0.5657 -0.4107
13157SOL    HW251450  10.043   1.197   4.583 -0.3547 -1.2157 -0.2264
13158SOL     OW51451   4.084   6.683   8.140  0.2964 -0.6605  0.3711
13158SOL    HW151452   4.168   6.641   8.121  0.6002 -0.2730  0.8440
13158SOL    HW251453   4.088   6.766   8.093  0.7278 -0.0480  1.4613
13159SOL     OW51454   0.103   0.237   4.197  0.2778  0.6161  0.4746
13159SOL    HW151455   0.132   0.206   4.111 -0.3940  1.3144 -0.0250
13159SOL    HW251456   0.161   0.194   4.260  0.8460  0.1767 -0.3390
13160SOL     OW51457   0.690   0.973   8.553 -0.1862 -0.8084  0.3390
13160SOL    HW151458   0.659   0.912   8.487 -0.2672 -0.0809 -0.3079
13160SOL    HW251459   0.621   0.975   8.619 -0.2291 -1.3237  0.3153
13161SOL     OW51460   3.477   5.782   5.004  0.4163 -0.7980 -0.2847
13161SOL    HW151461   3.460   5.752   5.093  0.1863 -1.0202 -0.4023
13161SOL    HW251462   3.559   5.831   5.010  0.1208 -0.3481  0.1486
13162SOL     OW51463   4.289   0.429   3.778  0.0700 -0.1805  0.4476
13162SOL    HW151464   4.339   0.391   3.850  0.4850 -0.0850  0.2107
13162SOL    HW251465   4.207   0.457   3.819  0.2979 -0.1312  0.8840
13163SOL     OW51466   1.464   0.844   2.192  0.0864  0.0272 -0.1338
13163SOL    HW151467   1.495   0.769   2.243 -1.1146  0.1251  0.7649
13163SOL    HW251468   1.487   0.822   2.101 -0.0174 -1.3020  0.1475
13164SOL     OW51469   1.485   1.684   4.100  0.0469  0.3630 -0.5519
13164SOL    HW151470   1.482   1.705   4.007  0.0650 -0.2120 -0.6877
13164SOL    HW251471   1.396   1.699   4.131  0.0887  0.7540 -0.6141
13165SOL     OW51472   9.065   2.314   4.282 -0.2589  0.3960  0.0414
13165SOL    HW151473   9.114   2.386   4.322 -0.1228  0.1661  0.2942
13165SOL    HW251474   8.973   2.338   4.293 -0.2151  0.4943  0.1957
13166SOL     OW51475   3.124   5.813   7.224  0.0640  0.1130  0.3454
13166SOL    HW151476   3.079   5.744   7.272 -0.0958 -0.3596 -0.4624
13166SOL    HW251477   3.094   5.895   7.265  0.5203 -0.3025  1.5310
13167SOL     OW51478   9.596   0.361   7.939  0.4121 -0.3091  0.4995
13167SOL    HW151479   9.678   0.395   7.977  2.5220 -1.5547 -2.5325
13167SOL    HW251480   9.545   0.439   7.918  1.1226  0.5339  1.7356
13168SOL     OW51481   9.928   4.912   0.905 -0.1216  0.0706 -0.4086
13168SOL    HW151482   9.893   5.001   0.898  0.1678  0.0907 -2.2904
13168SOL    HW251483  10.020   4.924   0.925 -0.5320  0.0914  1.6903
13169SOL     OW51484   5.953   7.767   6.793  0.0592 -0.3572 -0.4858
13169SOL    HW151485   5.879   7.707   6.791  0.4859 -0.8975 -0.4029
13169SOL    HW251486   6.005   7.745   6.716  1.0373 -1.1811  0.3735
13170SOL     OW51487   0.935   0.479   3.601 -0.0799 -0.0915  0.2597
13170SOL    HW151488   0.864   0.519   3.552 -0.1686 -1.0000 -0.3891
13170SOL    HW251489   0.908   0.387   3.612  2.0799 -1.1651 -2.2621
13171SOL     OW51490   8.620   1.240   8.581  0.1771  0.2836 -0.4623
13171SOL    HW151491   8.527   1.224   8.567 -0.0181  0.3840  0.6171
13171SOL    HW251492   8.628   1.252   8.676  1.4051 -0.5052 -0.4453
13172SOL     OW51493   5.453   5.330   5.834 -0.1010 -0.0057  0.1172
13172SOL    HW151494   5.435   5.379   5.754  0.2972 -0.7772 -0.4551
13172SOL    HW251495   5.532   5.370   5.870  0.7768 -0.8046 -0.8540
13173SOL     OW51496   7.151   4.234   6.988  0.0741  0.4414 -0.3961
13173SOL    HW151497   7.188   4.300   6.929  1.0092  1.1834  0.9585
13173SOL    HW251498   7.058   4.255   6.992  0.1691  0.9856 -0.8665
13174SOL     OW51499   1.245   1.062   7.667  0.2786  0.1594  0.1746
13174SOL    HW151500   1.198   1.082   7.586 -1.2613 -1.1865  0.6788
13174SOL    HW251501   1.278   0.973   7.655 -0.9719 -0.5202  1.4158
13175SOL     OW51502   4.328   2.257   2.222  0.7801  0.0348  0.9095
13175SOL    HW151503   4.266   2.209   2.277  1.2701 -0.7876  0.7730
13175SOL    HW251504   4.405   2.199   2.216  1.5822  1.0445  1.1124
13176SOL     OW51505   6.098   9.563   7.762  0.5310  0.2145 -0.3106
13176SOL    HW151506   6.143   9.648   7.767 -0.5317  0.7882 -0.1606
13176SOL    HW251507   6.132   9.522   7.683  2.2585  0.0701  0.4691
13177SOL     OW51508   6.735   6.336   2.193 -0.2927  0.4540  0.0541
13177SOL    HW151509   6.683   6.261   2.221  1.4092 -0.1829  1.7433
13177SOL    HW251510   6.728   6.336   2.097 -0.4477 -1.8024  0.0183
13178SOL     OW51511   4.041   2.880   9.451  0.0271 -0.3401 -0.0317
13178SOL    HW151512   4.115   2.827   9.422 -0.7000 -0.4164 -1.9281
13178SOL    HW251513   3.996   2.903   9.370 -1.7846  0.0627  1.0433
13179SOL     OW51514   0.881   7.374   4.963 -0.5359 -0.2626  0.2234
13179SOL    HW151515   0.805   7.327   4.930 -0.6685  0.8886 -1.1876
13179SOL    HW251516   0.848   7.420   5.041 -1.3848  0.4425 -0.5254
13180SOL     OW51517   5.480   1.250   9.497 -0.6904 -0.1557  0.1941
13180SOL    HW151518   5.419   1.323   9.488 -2.9882 -2.1603 -1.8190
13180SOL    HW251519   5.457   1.210   9.581  1.0940  1.7154  1.6905
13181SOL     OW51520   8.612   8.080   8.193 -0.5514  1.1424 -0.0979
13181SOL    HW151521   8.690   8.117   8.152 -0.1733 -0.8269 -1.2568
13181SOL    HW251522   8.641   7.996   8.229 -2.1648  0.2923 -0.7000
13182SOL     OW51523   4.174   4.303   4.662 -0.4114 -0.3733 -0.0846
13182SOL    HW151524   4.082   4.316   4.637 -0.0726  1.6038 -0.5047
13182SOL    HW251525   4.202   4.388   4.695  1.1489 -1.0741  0.4914
13183SOL     OW51526   1.709   4.290   5.320  0.0261 -0.4286  0.0795
13183SOL    HW151527   1.709   4.198   5.292 -1.6898 -0.2552 -0.6026
13183SOL    HW251528   1.623   4.323   5.294 -0.0819  0.8910  1.9283
13184SOL     OW51529   6.698   7.670   5.089  0.4368 -0.1764 -0.3653
13184SOL    HW151530   6.638   7.694   5.159 -1.0907 -0.2671 -1.5938
13184SOL    HW251531   6.748   7.597   5.125 -2.5295 -2.3998 -0.3926
13185SOL     OW51532   4.429   0.286   3.070  0.2838  0.1598  0.3903
13185SOL    HW151533   4.437   0.211   3.011 -0.5320  0.7367 -0.4820
13185SOL    HW251534   4.506   0.280   3.127  0.4963 -1.0424  0.0035
13186SOL     OW51535   1.652   0.932   9.970  0.2773  0.4699 -0.2919
13186SOL    HW151536   1.708   1.009   9.958  0.1485  0.9276  1.6748
13186SOL    HW251537   1.598   0.952  10.046 -0.1362 -1.3545 -0.0374
13187SOL     OW51538   3.077   9.541   9.388 -0.1998  0.7261 -0.2090
13187SOL    HW151539   3.097   9.542   9.295  0.7867  0.8761 -0.0101
13187SOL    HW251540   3.057   9.450   9.408 -1.9349  0.9324 -0.8508
13188SOL     OW51541   4.130   4.897   1.775 -0.3582  0.2116  0.3571
13188SOL    HW151542   4.090   4.896   1.862 -1.0871 -0.2678  0.0234
13188SOL    HW251543   4.065   4.858   1.718  0.3185  0.0541 -0.3268
13189SOL     OW51544   5.865   2.447   1.235  0.5350  0.0841  0.0728
13189SOL    HW151545   5.942   2.395   1.257 -0.0919 -1.0020 -0.2394
13189SOL    HW251546   5.901   2.523   1.190  1.6458  1.0593  2.3927
13190SOL     OW51547   7.157   8.074   1.570 -0.1967  0.4746 -0.3899
13190SOL    HW151548   7.248   8.094   1.550  0.5558 -1.2337  1.0606
13190SOL    HW251549   7.130   8.140   1.633  1.2323 -0.9782  1.8938
13191SOL     OW51550   9.954   1.034   3.616 -0.1436  0.6428 -0.4620
13191SOL    HW151551   9.966   0.980   3.538 -1.8201  0.4743 -0.6461
13191SOL    HW251552   9.869   1.008   3.650  1.5708 -1.1689  2.9557
13192SOL     OW51553   7.856   4.690   9.937  0.1745 -0.4957 -0.3389
13192SOL    HW151554   7.768   4.681   9.901  0.3029 -1.0501 -0.5251
13192SOL    HW251555   7.913   4.699   9.860  0.2395  0.2581 -0.2077
13193SOL     OW51556   1.718   6.191   8.123  0.7074 -0.0199 -0.0590
13193SOL    HW151557   1.714   6.136   8.045  4.2833 -2.6303  1.3263
13193SOL    HW251558   1.799   6.241   8.114  0.5336  0.5876  1.4451
13194SOL     OW51559   8.763   9.279   9.917 -0.2375  0.0360 -0.0650
13194SOL    HW151560   8.853   9.280   9.885 -0.2050  0.2502  0.0313
13194SOL    HW251561   8.709   9.287   9.838 -0.2346 -2.0125 -0.3389
13195SOL     OW51562  10.357   9.842   7.008 -0.7793 -0.2008 -0.2472
13195SOL    HW151563  10.333   9.918   6.955 -1.7221 -0.6501 -0.4907
13195SOL    HW251564  10.273   9.804   7.034 -0.4126  0.7341  2.7117
13196SOL     OW51565   8.838   9.239   4.210 -0.0572 -0.4986 -0.3441
13196SOL    HW151566   8.748   9.211   4.227  0.5464 -1.3725  1.6148
13196SOL    HW251567   8.855   9.306   4.275  1.2413 -1.5219  0.4181
13197SOL     OW51568   4.783   3.250   1.650 -0.2651  0.1031 -0.2598
13197SOL    HW151569   4.856   3.197   1.620  0.1092  1.2281 -1.4327
13197SOL    HW251570   4.709   3.189   1.656 -0.1652 -0.3528 -2.7790
13198SOL     OW51571   6.440   1.360   2.440 -0.4916 -0.4450 -0.0543
13198SOL    HW151572   6.347   1.337   2.440 -0.0609 -2.4080  0.6343
13198SOL    HW251573   6.478   1.304   2.373  0.1989  0.3985 -0.3820
13199SOL     OW51574   8.669   8.069   7.725  0.1208  0.0194  0.5094
13199SOL    HW151575   8.722   8.017   7.665  0.0168 -0.8639  1.1615
13199SOL    HW251576   8.630   8.005   7.784  0.9701  0.9188  2.1186
13200SOL     OW51577   1.302   7.426   3.986 -0.1596 -0.0003 -0.4661
13200SOL    HW151578   1.257   7.343   4.002  0.4070 -0.3860 -0.8298
13200SOL    HW251579   1.234   7.493   3.993 -0.2374 -0.2487  2.0997
13201SOL     OW51580   5.981   8.651   5.002 -0.4019  0.6254  0.6595
13201SOL    HW151581   5.959   8.587   4.934 -1.2858  0.8993  0.6718
13201SOL    HW251582   5.914   8.719   4.993 -0.6818  0.5501  1.9637
13202SOL     OW51583   3.280   1.288   5.879  0.4861  0.2870 -0.2864
13202SOL    HW151584   3.304   1.217   5.940  2.3113  0.1355 -1.1320
13202SOL    HW251585   3.191   1.265   5.851  0.3941 -0.7503  0.7396
13203SOL     OW51586   7.510   2.812   2.779  0.3479 -0.3392  0.2829
13203SOL    HW151587   7.434   2.867   2.793  0.2734  0.0385 -1.3322
13203SOL    HW251588   7.557   2.813   2.862 -1.0722 -0.0740  1.1047
13204SOL     OW51589   8.330   6.644   9.077  0.1787 -0.1978  0.1102
13204SOL    HW151590   8.312   6.551   9.085 -0.6839 -0.6574 -4.5437
13204SOL    HW251591   8.245   6.682   9.052  0.8071  1.6301  0.6056
13205SOL     OW51592   4.054  10.249   1.702  0.6136 -0.4380  0.2321
13205SOL    HW151593   4.147  10.271   1.711  0.7024  0.0068 -1.3792
13205SOL    HW251594   4.037  10.256   1.608 -0.5698 -2.5099  0.2250
13206SOL     OW51595   6.539   9.911   1.995  0.1783 -0.2116 -1.1967
13206SOL    HW151596   6.601   9.860   2.048 -0.1451  1.1644  0.6205
13206SOL    HW251597   6.456   9.902   2.041  0.3212  2.7230 -0.1624
13207SOL     OW51598   4.769   7.434   3.858 -0.5796  0.0662  0.0746
13207SOL    HW151599   4.836   7.370   3.880 -0.8079 -1.3643 -2.8571
13207SOL    HW251600   4.697   7.415   3.918 -0.0967 -1.5353  0.1895
13208SOL     OW51601   2.141   5.323   7.277  0.4538 -0.4720 -0.2551
13208SOL    HW151602   2.203   5.395   7.268 -0.1565  0.5104  2.3566
13208SOL    HW251603   2.078   5.336   7.206  0.1608  1.8547  0.3337
13209SOL     OW51604   3.484   4.010   5.391 -0.6681 -0.1553 -0.1492
13209SOL    HW151605   3.488   4.016   5.487 -1.3154 -0.2646 -0.1093
13209SOL    HW251606   3.538   3.933   5.370 -0.2249  0.0880  0.0975
13210SOL     OW51607   1.280   4.720   9.855 -0.0377  0.0145 -0.3342
13210SOL    HW151608   1.207   4.684   9.905 -1.2506 -0.3583 -2.2632
13210SOL    HW251609   1.245   4.731   9.766  2.2664 -0.2247 -1.3338
13211SOL     OW51610   3.652   1.605   3.922 -0.1945  1.0428 -0.0468
13211SOL    HW151611   3.659   1.514   3.895 -1.5733  1.2439 -1.1954
13211SOL    HW251612   3.577   1.607   3.981 -0.0181  1.3972  0.1710
13212SOL     OW51613   1.845   7.317   2.607 -0.6998  0.6415  0.9739
13212SOL    HW151614   1.804   7.359   2.532 -1.4375  1.2799  1.7140
13212SOL    HW251615   1.936   7.346   2.603 -0.4718 -0.1656 -0.2438
13213SOL     OW51616   8.515   1.360   7.360  0.4031  0.1044  0.5307
13213SOL    HW151617   8.585   1.406   7.314  0.3631 -0.1208  0.2395
13213SOL    HW251618   8.559   1.316   7.433  0.4971  0.3121  0.5991
13214SOL     OW51619   3.108   6.910   2.758  0.4627 -0.2057  0.1320
13214SOL    HW151620   3.158   6.931   2.838  1.7767  0.8535 -0.9036
13214SOL    HW251621   3.037   6.975   2.757  0.8164  0.1885  0.1318
13215SOL     OW51622   8.550   5.328   4.742  0.4033  0.8356  0.0121
13215SOL    HW151623   8.457   5.308   4.748  0.5387  0.0617 -0.3763
13215SOL    HW251624   8.594   5.253   4.783  0.8482  1.3741  0.5499
13216SOL     OW51625   7.764   9.152   0.569  0.0142  0.6423 -0.4686
13216SOL    HW151626   7.714   9.120   0.645 -1.3633  1.3240 -1.0488
13216SOL    HW251627   7.802   9.234   0.598  0.2294  0.4651 -0.2440
13217SOL     OW51628   4.100   4.936   8.655  0.0940  0.1760  0.1433
13217SOL    HW151629   4.094   4.841   8.653  1.7893  0.0188  0.8975
13217SOL    HW251630   4.099   4.962   8.563 -3.0505 -0.2998 -0.0676
13218SOL     OW51631   0.134   4.718   0.346 -0.1137  0.3267  0.2648
13218SOL    HW151632   0.053   4.668   0.346  1.3331 -2.2057 -0.9117
13218SOL    HW251633   0.194   4.667   0.400  0.9987  1.6494  0.3559
13219SOL     OW51634   6.797   4.615   6.785  0.1248 -0.3417  0.3136
13219SOL    HW151635   6.745   4.659   6.717 -0.6880 -0.2705  0.9608
13219SOL    HW251636   6.735   4.556   6.828  1.1114 -1.8800 -0.2949
13220SOL     OW51637   4.759   8.903   0.659 -0.1298 -0.4056  0.1195
13220SOL    HW151638   4.737   8.887   0.567 -1.7311  0.0847  0.3824
13220SOL    HW251639   4.833   8.844   0.677 -0.2581 -1.0249 -1.2777
13221SOL     OW51640   9.364   2.196   7.653 -0.3017  0.2648  0.5271
13221SOL    HW151641   9.387   2.229   7.740  0.3794  0.1356  0.4030
13221SOL    HW251642   9.292   2.251   7.624  1.7729  2.7287 -0.3391
13222SOL     OW51643   9.916   8.388   4.612  0.6735  0.1818  0.2856
13222SOL    HW151644   9.889   8.474   4.582 -0.8969 -0.4233 -0.1720
13222SOL    HW251645  10.012   8.391   4.613  0.6454  1.9111  0.2958
13223SOL     OW51646   8.670  10.374   7.940 -0.1373 -0.4677 -0.0385
13223SOL    HW151647   8.690  10.307   8.005 -1.1265 -0.3644  0.3863
13223SOL    HW251648   8.591  10.342   7.896 -0.3745  0.2155 -0.1171
13224SOL     OW51649   9.530   4.411   3.772  0.4482  0.0816  0.1856
13224SOL    HW151650   9.576   4.341   3.817  1.3545 -0.4774 -1.5115
13224SOL    HW251651   9.469   4.366   3.714 -0.5658  0.7748  0.6841
13225SOL     OW51652   6.239   7.234   6.641  0.1385 -0.2161 -0.5429
13225SOL    HW151653   6.228   7.267   6.552 -1.8706 -1.0501 -0.6629
13225SOL    HW251654   6.315   7.177   6.636  0.6105  0.4748 -1.5053
13226SOL     OW51655   4.810   9.333   9.709 -0.4631  0.0643  0.3698
13226SOL    HW151656   4.818   9.297   9.797  1.7764 -1.7261 -0.4549
13226SOL    HW251657   4.716   9.341   9.694 -0.9220 -0.9213  2.3984
13227SOL     OW51658   0.626   1.060   3.004 -0.0313  0.4685 -0.0637
13227SOL    HW151659   0.607   1.021   2.919  2.3739 -0.6173 -0.1664
13227SOL    HW251660   0.586   1.146   3.000 -0.2141  0.3352 -2.1820
13228SOL     OW51661   6.596   8.983   7.697 -0.8467 -0.3613 -0.4983
13228SOL    HW151662   6.558   9.022   7.776  0.2654 -0.8331  0.2944
13228SOL    HW251663   6.646   8.908   7.729 -0.7263 -0.8138 -1.7039
13229SOL     OW51664   0.467   4.356   1.910 -0.1338 -0.2339  0.1281
13229SOL    HW151665   0.403   4.350   1.839 -2.2680 -0.2194  1.9419
13229SOL    HW251666   0.438   4.290   1.973 -0.9272  2.5487  2.9038
13230SOL     OW51667   7.133   7.255   8.760  0.1185 -0.0796  0.3462
13230SOL    HW151668   7.209   7.255   8.818  1.4062  0.3125 -1.2667
13230SOL    HW251669   7.080   7.328   8.790  1.3398  0.8451  0.3505
13231SOL     OW51670   6.146   6.588   5.090  0.0149 -0.1429 -0.2721
13231SOL    HW151671   6.236   6.618   5.099  0.6447 -1.9885 -0.1855
13231SOL    HW251672   6.100   6.629   5.163  0.4825  1.7517 -0.9801
13232SOL     OW51673   1.208   3.260   4.451 -0.1300  0.4289 -0.3572
13232SOL    HW151674   1.271   3.213   4.397 -0.4835 -0.9833  0.4210
13232SOL    HW251675   1.140   3.288   4.390  0.1553  0.0613 -0.8542
13233SOL     OW51676   4.132   1.032   3.916 -0.4877  0.4291 -0.1632
13233SOL    HW151677   4.131   0.989   3.831  0.3842  1.4664 -0.7111
13233SOL    HW251678   4.170   0.967   3.975 -1.3816 -0.4085 -0.4823
13234SOL     OW51679   1.913   9.250   6.627  0.0584 -0.5746 -1.0873
13234SOL    HW151680   2.003   9.271   6.652 -0.0802  0.8355 -1.7127
13234SOL    HW251681   1.922   9.200   6.546  0.3009 -1.3330 -0.6116
13235SOL     OW51682   9.115   8.749   3.597 -0.7022  0.3241  0.6815
13235SOL    HW151683   9.150   8.733   3.684 -1.6289  0.0301  1.0180
13235SOL    HW251684   9.021   8.733   3.606 -0.8324  0.4454 -0.3329
13236SOL     OW51685   5.696  10.012   3.115 -0.1095 -0.6329  0.2625
13236SOL    HW151686   5.635   9.938   3.120  1.7123 -2.3447 -1.1841
13236SOL    HW251687   5.690  10.041   3.024  0.7177 -0.3811  0.2847
13237SOL     OW51688   7.505   6.794   7.108 -0.0258  0.0328  0.2459
13237SOL    HW151689   7.440   6.861   7.085 -0.6205 -0.7573 -0.4481
13237SOL    HW251690   7.574   6.805   7.043 -0.5794 -0.6408 -0.4734
13238SOL     OW51691   1.741   6.759   8.993 -0.1556  0.3215 -0.0187
13238SOL    HW151692   1.691   6.691   8.948 -1.1973  1.3194 -0.4087
13238SOL    HW251693   1.770   6.818   8.923  0.6635  0.3523  0.3285
13239SOL     OW51694   1.729   2.961   0.211 -0.0824 -0.6432 -0.6025
13239SOL    HW151695   1.707   3.053   0.222  0.4522 -0.5563 -0.2203
13239SOL    HW251696   1.750   2.953   0.117 -0.3696 -0.4359 -0.6865
13240SOL     OW51697   0.863   3.192   3.193  0.3224  0.1381  0.3631
13240SOL    HW151698   0.955   3.210   3.211  0.8959 -0.0699 -2.0360
13240SOL    HW251699   0.836   3.262   3.134 -0.6215 -0.6205 -0.1297
13241SOL     OW51700   4.108   3.304   6.183 -0.4715 -0.0214 -0.2301
13241SOL    HW151701   4.176   3.321   6.118 -1.6283 -1.0546 -1.7890
13241SOL    HW251702   4.087   3.390   6.220  1.2537  0.3839 -0.1094
13242SOL     OW51703   3.573   4.908   0.836  0.4211  0.3266  0.4504
13242SOL    HW151704   3.555   4.922   0.929  1.6992  3.2252  0.3466
13242SOL    HW251705   3.665   4.883   0.832  0.7422  1.5595 -0.1104
13243SOL     OW51706   6.317   1.771   6.700 -0.6024 -0.2416 -0.3078
13243SOL    HW151707   6.271   1.741   6.622 -0.5071 -2.1566  0.3201
13243SOL    HW251708   6.256   1.755   6.772 -0.3732  0.7264  0.1149
13244SOL     OW51709   5.869   0.365   7.109  0.3850 -0.1781  0.2150
13244SOL    HW151710   5.831   0.441   7.065  1.5401  0.5096  0.3919
13244SOL    HW251711   5.859   0.293   7.046 -1.0021  0.0255  0.1724
13245SOL     OW51712   8.779   3.000   8.110 -0.2860  0.1359 -0.2620
13245SOL    HW151713   8.873   3.017   8.115 -0.1701  0.0698 -1.9131
13245SOL    HW251714   8.771   2.906   8.128 -0.3654  0.6029  2.7668
13246SOL     OW51715   4.320   5.088   6.526 -0.0275 -0.2398 -0.0748
13246SOL    HW151716   4.330   5.120   6.436 -0.7831  0.8562  0.2119
13246SOL    HW251717   4.402   5.041   6.544 -0.4218 -1.7401 -1.8092
13247SOL     OW51718   9.321   8.383   7.031 -0.1796  0.1895  0.1117
13247SOL    HW151719   9.359   8.405   7.116 -0.8982 -1.4248  0.8943
13247SOL    HW251720   9.396   8.380   6.971  0.6373 -0.7132  1.1427
13248SOL     OW51721   1.610   1.471   1.891 -0.1849 -0.0775 -0.4506
13248SOL    HW151722   1.673   1.496   1.959  0.6147 -0.2272 -1.1256
13248SOL    HW251723   1.591   1.379   1.910 -3.5504  0.9519  2.3704
13249SOL     OW51724   0.006   9.015   7.480  0.1501  0.6371 -0.7932
13249SOL    HW151725  -0.057   8.976   7.419  0.7096  1.7801 -2.1773
13249SOL    HW251726  -0.022   8.986   7.566 -0.7692 -0.9267 -1.5831
13250SOL     OW51727   6.022   9.278   8.680 -0.0255  0.3448 -0.0183
13250SOL    HW151728   5.941   9.283   8.731  0.6982 -0.2186  1.2306
13250SOL    HW251729   5.994   9.294   8.590 -1.2579  2.0461  0.6069
13251SOL     OW51730   3.406   1.373   7.000  0.1236  0.3078  0.2762
13251SOL    HW151731   3.439   1.283   6.998 -0.4159  0.1159 -1.0529
13251SOL    HW251732   3.436   1.411   6.918  1.5511  1.8214  1.4482
13252SOL     OW51733   1.389   6.795   6.071 -0.0266  0.2623  0.1843
13252SOL    HW151734   1.483   6.804   6.089 -0.3559  0.8220  1.8098
13252SOL    HW251735   1.384   6.732   5.999  1.6314  0.9782 -0.6223
13253SOL     OW51736   2.858   6.661   2.275  0.1542  0.0231  0.4317
13253SOL    HW151737   2.844   6.643   2.368  0.1611 -0.4736  0.3408
13253SOL    HW251738   2.925   6.598   2.249 -0.0603 -0.0328  0.0190
13254SOL     OW51739   4.702   7.637   2.087 -0.5402  0.4079  0.3936
13254SOL    HW151740   4.666   7.663   2.172 -0.3046  0.6665  0.4149
13254SOL    HW251741   4.729   7.719   2.046  0.0139  0.2217  0.3738
13255SOL     OW51742   8.880   0.816   4.039  0.4304  0.4920 -0.1785
13255SOL    HW151743   8.832   0.886   4.082 -0.0287 -0.0159  0.1497
13255SOL    HW251744   8.812   0.759   4.002  0.7833 -0.0757  0.0306
13256SOL     OW51745   1.556   7.887   5.560  0.6611  0.1584  0.5181
13256SOL    HW151746   1.568   7.873   5.654  0.4734 -1.2071  0.3472
13256SOL    HW251747   1.625   7.836   5.518  2.2310  2.5899 -0.0670
13257SOL     OW51748   7.249   3.150   8.369  0.3421 -0.5465  0.4487
13257SOL    HW151749   7.199   3.070   8.384 -0.2933 -0.4019 -0.7893
13257SOL    HW251750   7.335   3.120   8.337  0.8780 -0.7750  2.0170
13258SOL     OW51751   6.677   6.391   0.475  0.5102  0.3855  0.0716
13258SOL    HW151752   6.677   6.444   0.554  1.8135 -0.0098  0.3705
13258SOL    HW251753   6.629   6.312   0.497 -0.0156  0.7243  0.1402
13259SOL     OW51754   0.234   4.390   6.842  0.0562  0.3485 -0.4426
13259SOL    HW151755   0.188   4.448   6.782 -2.7886 -1.2402  0.0336
13259SOL    HW251756   0.236   4.437   6.925  0.3862  0.9167 -0.7691
13260SOL     OW51757   7.095   1.563   3.058 -0.0600 -0.1923  0.3174
13260SOL    HW151758   7.122   1.538   2.969 -1.9102 -0.3688 -0.2349
13260SOL    HW251759   7.064   1.481   3.097 -0.3148  0.0915  0.7085
13261SOL     OW51760   6.938   5.780   2.591 -0.3387  0.1004  0.5918
13261SOL    HW151761   6.946   5.719   2.518  1.9249  0.1612  0.7333
13261SOL    HW251762   6.893   5.730   2.659  0.1184 -0.9166  0.1699
13262SOL     OW51763   8.978   4.265   9.655  1.0215 -0.1860 -0.0325
13262SOL    HW151764   9.072   4.262   9.672  1.0368 -0.7265 -0.2130
13262SOL    HW251765   8.958   4.359   9.651  1.5305 -0.0667  0.1112
13263SOL     OW51766   8.529   9.810   3.713  0.6444  0.1730  0.1329
13263SOL    HW151767   8.477   9.839   3.638 -1.3943 -1.3752  0.8727
13263SOL    HW251768   8.548   9.718   3.694 -0.7337 -0.5279  1.8974
13264SOL     OW51769   6.421   7.835   2.133 -0.8167 -0.4500  0.0431
13264SOL    HW151770   6.422   7.882   2.049  0.0511 -0.6499 -0.0661
13264SOL    HW251771   6.355   7.766   2.121 -2.1748  0.7636  0.2337
13265SOL     OW51772   8.149   5.029   7.783 -0.5127  0.1417 -0.0103
13265SOL    HW151773   8.054   5.021   7.777 -0.4622  0.5036 -2.0072
13265SOL    HW251774   8.178   4.946   7.820 -1.5144 -0.5929 -0.8276
13266SOL     OW51775   9.059   8.133   4.878 -0.4262 -0.4155  0.2812
13266SOL    HW151776   9.087   8.216   4.918  0.5710 -1.3457  1.5894
13266SOL    HW251777   8.964   8.130   4.893 -0.4594  0.4253  0.3123
13267SOL     OW51778   8.520   0.015   8.650 -0.1650 -0.1592  0.0963
13267SOL    HW151779   8.475  -0.021   8.726  0.5095  0.5960  0.8859
13267SOL    HW251780   8.581  -0.053   8.623 -0.8871 -0.7001 -0.2140
13268SOL     OW51781   0.410   1.678   4.435  0.6561  0.1491 -0.3808
13268SOL    HW151782   0.431   1.598   4.386 -0.9873 -1.2979  1.1430
13268SOL    HW251783   0.330   1.710   4.394  0.6295  0.3045 -0.2063
13269SOL     OW51784   3.709   1.785   7.521  0.1553 -0.4047 -0.9123
13269SOL    HW151785   3.687   1.692   7.514  0.5549 -0.4386 -1.8576
13269SOL    HW251786   3.627   1.830   7.501 -0.3653 -0.5315  0.7561
13270SOL     OW51787  10.260  10.014   1.958 -0.1083 -0.0148 -0.0561
13270SOL    HW151788  10.167  10.002   1.939 -0.8445  1.9117  1.8592
13270SOL    HW251789  10.266  10.007   2.053  1.9444 -1.2331 -0.2108
13271SOL     OW51790   7.863   9.209   3.744  0.1995  0.2758 -0.3024
13271SOL    HW151791   7.949   9.246   3.766  0.5045 -0.2692 -0.5608
13271SOL    HW251792   7.881   9.143   3.677 -0.6738  1.6679 -1.9806
13272SOL     OW51793   6.808   0.626   0.499  0.1752  0.6133 -0.3806
13272SOL    HW151794   6.852   0.634   0.414 -0.2345 -0.6676 -0.7318
13272SOL    HW251795   6.770   0.538   0.498  1.4838 -0.0408  1.7469
13273SOL     OW51796   5.480   2.539   7.953 -0.2765  0.4425 -0.1975
13273SOL    HW151797   5.510   2.454   7.923  1.5931  0.2260  1.9620
13273SOL    HW251798   5.417   2.568   7.888  0.5641 -1.6783 -2.0477
13274SOL     OW51799   5.449   7.595   1.099 -0.0952  0.1474 -0.3781
13274SOL    HW151800   5.353   7.598   1.093 -0.0515 -0.2530 -1.3736
13274SOL    HW251801   5.477   7.686   1.090 -0.3443  0.1860 -0.7813
13275SOL     OW51802   0.034   0.007   9.948 -0.2054 -0.1168 -0.3787
13275SOL    HW151803   0.070   0.007  10.037  0.3728 -1.2105 -0.5924
13275SOL    HW251804   0.016   0.099   9.929 -0.9664  0.0778  1.1177
13276SOL     OW51805  10.049   2.523   2.836 -0.0815 -0.1999  0.0923
13276SOL    HW151806  10.025   2.473   2.758 -0.1759 -0.8938  0.5585
13276SOL    HW251807   9.971   2.522   2.891  0.1838 -0.2555  0.4748
13277SOL     OW51808   1.982   8.046   1.859 -0.1756  0.0531  0.3855
13277SOL    HW151809   1.993   7.967   1.806 -0.3049 -0.3140  0.8995
13277SOL    HW251810   2.065   8.056   1.905 -0.4087 -0.1977  0.8708
13278SOL     OW51811   0.416   3.051   0.857 -0.2883 -0.1596 -0.3825
13278SOL    HW151812   0.324   3.075   0.866 -0.1927  0.0638  0.0401
13278SOL    HW251813   0.421   3.006   0.773 -0.4243  1.5323 -1.3558
13279SOL     OW51814   7.220   1.867   6.560 -0.1384  0.0992 -0.3395
13279SOL    HW151815   7.269   1.947   6.541  1.6371 -0.6137  1.0140
13279SOL    HW251816   7.174   1.886   6.641 -2.5407  0.8867 -1.7709
13280SOL     OW51817   0.696   6.500   8.073  0.1763  0.3842  0.1758
13280SOL    HW151818   0.687   6.506   8.168  1.0716  0.2702  0.2779
13280SOL    HW251819   0.788   6.477   8.059 -0.6668 -3.1182 -0.5992
13281SOL     OW51820   9.513   8.522   4.354 -0.1577  0.2869  0.3906
13281SOL    HW151821   9.439   8.531   4.414  0.3558  0.0540  1.0667
13281SOL    HW251822   9.544   8.433   4.365 -0.0972  0.2142 -0.2803
13282SOL     OW51823   6.554   2.716   6.220  0.5171  0.1384 -0.4434
13282SOL    HW151824   6.595   2.761   6.294 -0.9408  0.7019  0.0565
13282SOL    HW251825   6.555   2.624   6.245 -0.1671  0.3476  0.3908
13283SOL     OW51826   7.154   1.782   5.294  0.0300  0.4340 -0.1037
13283SOL    HW151827   7.216   1.757   5.362  1.4734 -1.4718 -1.9802
13283SOL    HW251828   7.207   1.828   5.229 -0.5787 -0.8041 -1.5344
13284SOL     OW51829   5.377   4.355   9.211  0.2844  0.7862  0.0763
13284SOL    HW151830   5.427   4.280   9.177  1.3037  1.7091 -0.5126
13284SOL    HW251831   5.441   4.407   9.260 -0.7123  0.6001  1.6466
13285SOL     OW51832   0.229   3.473   9.719  0.4562 -0.1063  0.7226
13285SOL    HW151833   0.246   3.390   9.764 -0.4560  0.2054  1.6921
13285SOL    HW251834   0.190   3.447   9.635  1.2750 -0.6733  0.5047
13286SOL     OW51835   0.827   1.933   8.284 -0.3601 -0.0943 -0.1999
13286SOL    HW151836   0.816   1.967   8.195  1.9938  0.5446 -0.3093
13286SOL    HW251837   0.878   1.853   8.273  0.9660  0.6128  0.6451
13287SOL     OW51838   8.862   8.372   6.409  0.3863  0.4452 -0.2362
13287SOL    HW151839   8.949   8.412   6.405  0.8022 -0.1324  1.8550
13287SOL    HW251840   8.812   8.430   6.467  0.0263 -0.3673  0.2681
13288SOL     OW51841   5.013   7.916   6.615 -0.1042  0.1545  0.1798
13288SOL    HW151842   5.100   7.905   6.578 -0.9369  2.2539 -2.6990
13288SOL    HW251843   5.027   7.974   6.690  0.8756  1.5152 -1.0001
13289SOL     OW51844   0.269   1.393   6.476 -0.2999  0.6830  0.0472
13289SOL    HW151845   0.247   1.421   6.387 -0.1837 -0.1815 -0.2563
13289SOL    HW251846   0.209   1.322   6.495  0.9806 -0.4892 -0.1049
13290SOL     OW51847   0.117   1.750   9.644  0.3479 -0.2552 -0.0725
13290SOL    HW151848   0.147   1.747   9.553  0.2684 -0.1053 -0.1046
13290SOL    HW251849   0.023   1.764   9.637  0.5135  1.0498  0.0430
13291SOL     OW51850   9.366   0.389   6.013 -0.4251 -0.1381 -0.0717
13291SOL    HW151851   9.326   0.460   5.963 -0.3559 -0.3071 -0.3676
13291SOL    HW251852   9.293   0.347   6.058 -0.5535 -0.3010 -0.4286
13292SOL     OW51853   4.996   9.615   0.798  0.1297 -0.7199  0.6812
13292SOL    HW151854   4.980   9.522   0.814  0.8582 -0.6504  1.9727
13292SOL    HW251855   4.929   9.641   0.734 -2.4734 -1.2532  3.0268
13293SOL     OW51856   8.411   9.948   3.472  0.4081  0.0641  0.3820
13293SOL    HW151857   8.334   9.942   3.529 -0.0040  1.3206 -0.0147
13293SOL    HW251858   8.388   9.896   3.395  0.7501 -1.1826  1.0962
13294SOL     OW51859   5.888   2.041   6.236  0.1159 -0.8900 -0.5395
13294SOL    HW151860   5.797   2.070   6.239  0.7089  1.1139 -0.0279
13294SOL    HW251861   5.903   2.019   6.145 -0.9248 -1.4528 -0.5925
13295SOL     OW51862   0.669   4.672   1.854 -0.2161  0.0775  0.1976
13295SOL    HW151863   0.656   4.738   1.786  0.6458  2.2651  2.0260
13295SOL    HW251864   0.723   4.716   1.919  1.5152 -2.9033  0.9361
13296SOL     OW51865   9.620   6.988   8.052  0.6464 -0.3584  0.5254
13296SOL    HW151866   9.544   7.045   8.042  1.0401  0.3087  1.2778
13296SOL    HW251867   9.583   6.900   8.061 -0.0255 -0.0555  0.7477
13297SOL     OW51868   5.992   3.644   2.982  0.1216  0.7134 -0.5034
13297SOL    HW151869   5.924   3.581   2.959  1.0582 -0.0643 -1.2316
13297SOL    HW251870   5.959   3.688   3.060 -1.7624  1.2330 -1.5340
13298SOL     OW51871   5.280   2.983   2.848 -0.2315  0.2145 -0.3629
13298SOL    HW151872   5.348   2.921   2.821 -0.8370 -0.8557  0.4809
13298SOL    HW251873   5.214   2.929   2.892 -1.0112  1.4032 -0.0108
13299SOL     OW51874   3.936   5.799   7.321  0.6985  0.1312  0.1918
13299SOL    HW151875   3.987   5.751   7.386 -0.0378  0.0717  0.7335
13299SOL    HW251876   3.850   5.812   7.361 -0.3001 -1.2389 -1.3467
13300SOL     OW51877   4.711   2.257   2.104  0.1943  0.6416  0.6996
13300SOL    HW151878   4.669   2.271   2.189  0.2964  3.2323  0.4047
13300SOL    HW251879   4.801   2.233   2.125 -0.1147 -0.0036  1.3139
13301SOL     OW51880   3.312   8.290   8.416  0.3601  0.2034 -0.6630
13301SOL    HW151881   3.330   8.199   8.439  0.0673  1.0336  3.6379
13301SOL    HW251882   3.370   8.341   8.473 -1.6716  2.7315 -0.6997
13302SOL     OW51883   9.993   3.947   3.197  0.0977  0.4667  0.7799
13302SOL    HW151884   9.995   3.851   3.195  0.3756  0.4381 -2.1440
13302SOL    HW251885  10.068   3.971   3.251  0.8227 -0.9972  0.4961
13303SOL     OW51886   7.038   0.060   8.215  1.0857 -0.5786 -0.3101
13303SOL    HW151887   6.979   0.003   8.265  0.8094 -0.3876 -0.4165
13303SOL    HW251888   7.004   0.148   8.229  1.9701 -0.3495  0.4905
13304SOL     OW51889  10.098   7.020  10.223 -0.0158  0.0682 -0.1575
13304SOL    HW151890  10.019   7.025  10.277  0.2412 -1.5555  0.4131
13304SOL    HW251891  10.094   6.934  10.182  0.6644  0.6052 -1.4034
13305SOL     OW51892  10.171   1.118   7.973 -0.2326 -0.1896  0.2837
13305SOL    HW151893  10.162   1.072   7.890  0.2790  0.2141 -0.0052
13305SOL    HW251894  10.227   1.062   8.026 -1.5035 -1.0135  0.8000
13306SOL     OW51895   4.394   6.613   3.381  0.6516  0.4716  0.0030
13306SOL    HW151896   4.450   6.655   3.446  0.6560  1.3349 -0.5439
13306SOL    HW251897   4.378   6.681   3.316  0.3050 -0.2547 -0.6831
13307SOL     OW51898   9.161  10.309  10.081 -0.7257  0.0322 -0.5843
13307SOL    HW151899   9.082  10.362  10.091  0.4434  1.4920  2.0261
13307SOL    HW251900   9.153  10.241  10.148  0.0120 -0.0555 -0.5771
13308SOL     OW51901   8.964   9.867   3.801  0.0239 -0.2469  0.0590
13308SOL    HW151902   8.953   9.833   3.712 -1.2692 -2.2752  0.9372
13308SOL    HW251903   8.897   9.935   3.809 -2.4703 -2.6119  0.6159
13309SOL     OW51904   4.455   9.706   4.089  0.4482  0.0927 -0.3488
13309SOL    HW151905   4.441   9.727   4.181 -0.8435 -0.0143 -0.5069
13309SOL    HW251906   4.543   9.739   4.070  1.3708 -1.2358  1.3028
13310SOL     OW51907   0.488   9.462   0.335  0.0706 -0.1098  0.0743
13310SOL    HW151908   0.560   9.402   0.316  0.4222  0.0813  0.7901
13310SOL    HW251909   0.433   9.414   0.398 -0.3701 -0.2080 -0.3756
13311SOL     OW51910   3.725   8.350   1.585  0.1467  0.3630  0.0008
13311SOL    HW151911   3.679   8.433   1.587  2.3022  1.6281  1.1484
13311SOL    HW251912   3.767   8.347   1.499  0.9796  1.0296  0.3724
13312SOL     OW51913   7.014  10.315   7.815  0.0060 -0.2890  0.1185
13312SOL    HW151914   7.069  10.272   7.750 -0.5885 -0.4207 -0.2983
13312SOL    HW251915   7.073  10.379   7.857  0.3156  0.0111 -0.7533
13313SOL     OW51916   3.468   3.737   8.769  0.0560  0.2518 -0.1104
13313SOL    HW151917   3.431   3.763   8.685 -1.4426 -0.3964  0.2975
13313SOL    HW251918   3.524   3.662   8.749  1.0801  1.1634 -0.7323
13314SOL     OW51919   7.775   4.813   5.740 -0.2505 -0.3184  0.0064
13314SOL    HW151920   7.779   4.718   5.731 -0.5275 -0.3516  0.2299
13314SOL    HW251921   7.863   4.839   5.768  0.0420 -0.4282 -0.7781
13315SOL     OW51922   0.235   1.795   7.282  0.2448  0.1182  0.4619
13315SOL    HW151923   0.184   1.841   7.216  2.2365  1.8618  0.0482
13315SOL    HW251924   0.200   1.826   7.365  0.3060  0.9419  0.1885
13316SOL     OW51925   6.624   4.978   3.125 -0.1496 -0.1262  0.1599
13316SOL    HW151926   6.578   5.058   3.150 -0.2528 -0.1363  0.0053
13316SOL    HW251927   6.569   4.939   3.057 -0.2800 -0.5112  0.4828
13317SOL     OW51928   6.981   0.980   1.408 -0.2632 -0.3100  0.3518
13317SOL    HW151929   7.023   1.043   1.466  1.7669 -2.2044  1.0771
13317SOL    HW251930   6.949   0.911   1.466  0.3264 -1.4356 -0.6110
13318SOL     OW51931   2.264   9.993   8.477  0.1646 -0.7053  0.5216
13318SOL    HW151932   2.315  10.066   8.512 -0.5878 -0.1212  0.4137
13318SOL    HW251933   2.330   9.931   8.446  0.8269  0.8458 -1.3286
13319SOL     OW51934   6.755  10.307   7.838 -0.6985  0.6287 -0.1344
13319SOL    HW151935   6.850  10.298   7.827 -0.8282 -0.2365 -0.6052
13319SOL    HW251936   6.745  10.358   7.918  0.1514 -0.2525  0.5543
13320SOL     OW51937   9.253   5.469   3.008  0.2179 -0.4862  0.3694
13320SOL    HW151938   9.287   5.534   2.947  0.5989 -0.1572  0.9312
13320SOL    HW251939   9.286   5.386   2.975 -4.3848 -1.2177 -3.4543
13321SOL     OW51940   1.052   6.984   5.156 -0.1278 -0.0227 -0.6335
13321SOL    HW151941   0.989   6.927   5.112 -0.2279 -1.7505  1.5680
13321SOL    HW251942   1.012   7.005   5.240  1.9920 -0.9299  0.7155
13322SOL     OW51943   8.047   7.691   8.087  0.1668  0.4183 -0.2923
13322SOL    HW151944   7.952   7.698   8.085  0.1523  0.2718 -2.5219
13322SOL    HW251945   8.075   7.764   8.142 -1.1633  1.7527 -1.2947
13323SOL     OW51946   2.061   1.621   4.264  0.0602 -0.4655 -0.0436
13323SOL    HW151947   2.084   1.696   4.209  1.7802 -0.7592  0.2347
13323SOL    HW251948   2.015   1.659   4.339  0.8937  0.3125  0.0848
13324SOL     OW51949   0.852   6.691   6.016  0.1400  0.0951 -0.5901
13324SOL    HW151950   0.807   6.754   5.960 -0.4440 -0.0047 -0.2481
13324SOL    HW251951   0.941   6.687   5.983  0.4571  1.8216 -0.0140
13325SOL     OW51952   9.991   5.706   8.293  0.2671  0.3906  0.3963
13325SOL    HW151953   9.987   5.647   8.368 -0.9013  0.1213  0.1399
13325SOL    HW251954  10.038   5.656   8.226 -1.2335 -0.5226 -0.0216
13326SOL     OW51955   8.465   4.445   5.486  0.3171  0.1714 -0.3891
13326SOL    HW151956   8.437   4.409   5.402  0.2233  0.7051 -0.5909
13326SOL    HW251957   8.471   4.539   5.471  1.0022  0.1936  0.0081
13327SOL     OW51958   0.310   4.112   6.101 -0.0269  0.0409 -1.1331
13327SOL    HW151959   0.232   4.164   6.124  1.0516  1.2287  0.0077
13327SOL    HW251960   0.352   4.094   6.185 -0.4907 -2.9993 -1.4482
13328SOL     OW51961   0.969   1.127   7.990  0.3412  0.2422 -0.1278
13328SOL    HW151962   0.877   1.101   7.988  0.2203 -0.1100  3.4786
13328SOL    HW251963   0.974   1.191   8.060  2.9336 -0.0737  0.0589
13329SOL     OW51964   6.016   2.350   0.922 -0.1512 -0.1440  0.3054
13329SOL    HW151965   6.005   2.260   0.951  0.5887 -0.8952 -1.5753
13329SOL    HW251966   6.111   2.363   0.919 -0.2056  0.0760 -1.1393
13330SOL     OW51967   2.611   9.343   4.165  0.6372 -0.1622 -0.1135
13330SOL    HW151968   2.615   9.347   4.070 -0.3853 -0.2993 -0.1741
13330SOL    HW251969   2.570   9.259   4.185  3.4785 -1.5144  0.5696
13331SOL     OW51970   2.286   4.451   7.766 -0.0240 -0.4108  0.6742
13331SOL    HW151971   2.328   4.484   7.845  1.1910  0.9889 -0.4715
13331SOL    HW251972   2.193   4.446   7.788  0.2383  0.3096  2.0702
13332SOL     OW51973   3.877   7.765   6.980 -0.1225 -0.4434  0.4500
13332SOL    HW151974   3.938   7.768   6.906  0.3309 -2.4230  0.6910
13332SOL    HW251975   3.934   7.764   7.057 -0.4232 -2.0778  0.6860
13333SOL     OW51976   3.187   0.063   3.644  0.5363  0.0413 -0.3572
13333SOL    HW151977   3.163   0.155   3.651 -1.7663 -0.5741  1.4245
13333SOL    HW251978   3.211   0.037   3.733 -0.3501 -1.3785 -0.4864
13334SOL     OW51979   6.857   9.245   8.342  0.1441 -0.5729 -0.6437
13334SOL    HW151980   6.794   9.308   8.376  0.7468 -0.0159 -0.5272
13334SOL    HW251981   6.860   9.262   8.248  0.1157 -0.6066 -0.6506
13335SOL     OW51982   2.120   7.257   4.012  0.0501 -0.1338  0.5391
13335SOL    HW151983   2.089   7.172   3.979 -0.5701  0.7392 -1.3020
13335SOL    HW251984   2.106   7.253   4.106 -2.0197 -1.2947  0.2539
13336SOL     OW51985   0.499   4.666   2.715 -0.5621 -0.6572  0.2602
13336SOL    HW151986   0.418   4.636   2.757 -0.5073 -1.9707 -0.5268
13336SOL    HW251987   0.526   4.742   2.767 -1.0410 -1.6002  1.9700
13337SOL     OW51988   2.469  10.058   3.855  0.8450  0.3819  0.3753
13337SOL    HW151989   2.394  10.002   3.876  1.1430  0.1610  0.8744
13337SOL    HW251990   2.505  10.020   3.775 -0.6322  1.5616 -0.9178
13338SOL     OW51991   5.314   9.467   3.889 -0.8560 -0.2812 -0.0096
13338SOL    HW151992   5.284   9.548   3.929 -0.3272 -0.1831  0.1855
13338SOL    HW251993   5.258   9.399   3.928  0.6203 -0.3886  2.0388
13339SOL     OW51994   5.390   0.216   7.315  0.1557  0.1808 -0.2383
13339SOL    HW151995   5.340   0.292   7.285 -0.1621 -0.0761 -0.3616
13339SOL    HW251996   5.459   0.205   7.249 -1.0055 -0.8563 -1.3429
13340SOL     OW51997   4.633   8.248   7.264 -0.1671 -0.2310 -0.1278
13340SOL    HW151998   4.601   8.305   7.194 -0.3655 -0.4133 -0.1852
13340SOL    HW251999   4.672   8.174   7.218 -2.2247 -1.4176 -0.0348
13341SOL     OW52000   2.246   5.450   9.647  0.5107 -0.4445 -0.1632
13341SOL    HW152001   2.273   5.444   9.556  1.1682  1.1054 -0.1129
13341SOL    HW252002   2.285   5.373   9.689  0.6583 -0.8790 -1.0832
13342SOL     OW52003   7.453  10.257   5.032  0.0280 -0.2612 -0.0568
13342SOL    HW152004   7.428  10.201   4.958  1.9472 -2.4060  0.7967
13342SOL    HW252005   7.545  10.276   5.018  0.7512 -1.6570  2.2664
13343SOL     OW52006   6.938   6.629   0.203  0.3487  0.0972  0.3557
13343SOL    HW152007   6.876   6.580   0.256  1.2507 -0.5783  0.8272
13343SOL    HW252008   6.960   6.706   0.255  0.7459 -0.2374  0.6898
13344SOL     OW52009   1.510   4.072   9.592  0.5147  0.1736  0.0535
13344SOL    HW152010   1.425   4.063   9.635 -0.4882  1.5593 -1.5122
13344SOL    HW252011   1.551   4.147   9.635 -0.2792  1.2519 -1.0098
13345SOL     OW52012   2.353   5.887   7.787  0.1245 -0.1212  0.1504
13345SOL    HW152013   2.372   5.892   7.693 -0.1478  0.9312  0.1439
13345SOL    HW252014   2.277   5.944   7.799  1.5831  1.6537  1.3899
13346SOL     OW52015   8.044   9.761  10.272 -0.0529  0.3715  0.3471
13346SOL    HW152016   7.994   9.680  10.281  2.5259 -1.4520 -0.4071
13346SOL    HW252017   8.028   9.808  10.354 -1.8294 -0.7387  0.7072
13347SOL     OW52018   5.840   8.691   1.193 -0.5386 -0.0798 -0.5372
13347SOL    HW152019   5.786   8.716   1.118 -0.9754  0.0963 -0.1611
13347SOL    HW252020   5.924   8.667   1.154  0.0136  2.2081 -0.9095
13348SOL     OW52021   3.889   2.485   4.796  0.3066  0.1584 -0.5762
13348SOL    HW152022   3.854   2.430   4.726  0.4043 -0.7726  0.0718
13348SOL    HW252023   3.812   2.516   4.843  0.2696 -0.4827 -0.1876
13349SOL     OW52024   5.472   2.667   1.546 -0.2504 -0.2983  0.5341
13349SOL    HW152025   5.544   2.665   1.485 -1.0735 -0.5773 -0.4544
13349SOL    HW252026   5.513   2.659   1.632  1.0429  1.5723  0.1516
13350SOL     OW52027   2.075   2.943   6.872 -1.0113  0.0362 -0.0164
13350SOL    HW152028   2.070   3.038   6.864  1.0160  0.2348  0.4834
13350SOL    HW252029   2.073   2.911   6.782 -0.8820  0.6310 -0.2377
13351SOL     OW52030   8.559   9.500   5.041  0.4024 -0.4968  0.4484
13351SOL    HW152031   8.587   9.544   5.121  0.9394  0.2486 -0.1208
13351SOL    HW252032   8.641   9.476   4.997  0.1119 -1.4068  0.3897
13352SOL     OW52033   1.564   7.436   6.998 -0.9882  0.0653 -0.5001
13352SOL    HW152034   1.529   7.447   6.910  2.0400  1.1631 -1.6730
13352SOL    HW252035   1.581   7.524   7.030 -0.1198 -0.3779  0.3413
13353SOL     OW52036   1.303   5.910   4.107 -0.0669 -0.2591  0.2774
13353SOL    HW152037   1.379   5.858   4.133 -0.9833 -2.0453 -0.4285
13353SOL    HW252038   1.229   5.869   4.152 -1.0787 -0.7868 -1.7431
13354SOL     OW52039  10.165   9.216   2.844 -0.1441 -0.0147 -0.5232
13354SOL    HW152040  10.167   9.288   2.907 -0.0335 -0.8574  0.4612
13354SOL    HW252041  10.073   9.210   2.818  0.0161  1.1882 -1.4841
13355SOL     OW52042   8.652   7.137   9.543 -0.2946  0.5303  0.1608
13355SOL    HW152043   8.575   7.168   9.590 -0.0062  0.8312  0.4435
13355SOL    HW252044   8.725   7.182   9.584 -0.1313  1.8028 -1.4135
13356SOL     OW52045   8.255   9.835   2.794 -0.1603  0.4604 -0.2540
13356SOL    HW152046   8.237   9.916   2.747 -0.7271  0.1434 -0.6081
13356SOL    HW252047   8.218   9.766   2.737  0.4527 -0.0538 -0.0376
13357SOL     OW52048   8.494   8.367   2.894  0.4275  0.4400  0.0956
13357SOL    HW152049   8.571   8.321   2.927  0.1708 -0.8689 -1.0705
13357SOL    HW252050   8.433   8.369   2.969  1.5573  1.5048  1.0298
13358SOL     OW52051   9.476   3.329   7.749 -0.0387 -0.3321 -0.2566
13358SOL    HW152052   9.535   3.277   7.695  0.7199  1.4058 -1.1853
13358SOL    HW252053   9.489   3.295   7.838  2.0156 -0.3709 -0.5143
13359SOL     OW52054   8.272   2.596   9.532  0.2248  0.9731  0.6822
13359SOL    HW152055   8.353   2.647   9.521 -0.7801  2.2878 -1.1658
13359SOL    HW252056   8.284   2.550   9.616  2.0905  2.5826  1.3861
13360SOL     OW52057   4.848   5.654   0.597 -0.4412  0.1324  0.1788
13360SOL    HW152058   4.813   5.590   0.534  0.9471 -0.1287 -0.3713
13360SOL    HW252059   4.780   5.720   0.606 -0.2753  0.7604 -2.4713
13361SOL     OW52060   9.103   3.745   6.295  0.5301  0.7188 -0.3003
13361SOL    HW152061   9.102   3.658   6.256  0.9399  0.3519  0.4991
13361SOL    HW252062   9.194   3.774   6.290  0.9553 -0.0352  1.8630
13362SOL     OW52063   1.206   9.685   0.367  0.2460  0.3960  0.2407
13362SOL    HW152064   1.122   9.657   0.402 -0.1937  1.9532  0.4805
13362SOL    HW252065   1.185   9.722   0.281  0.7222  0.5653  0.1937
13363SOL     OW52066   2.032   6.650  10.300  0.3765 -0.0438  0.0751
13363SOL    HW152067   2.019   6.555  10.304 -0.2029 -0.0315 -1.1107
13363SOL    HW252068   1.992   6.683  10.380 -2.0412 -0.5527 -0.8443
13364SOL     OW52069   3.895   6.819   9.761 -0.2470 -0.1429 -0.0738
13364SOL    HW152070   3.868   6.730   9.738  1.8050 -0.9332  0.3709
13364SOL    HW252071   3.980   6.830   9.719  0.9091  0.4895  2.2549
13365SOL     OW52072   5.871   5.890   5.821 -0.1437  0.3677 -0.1060
13365SOL    HW152073   5.873   5.918   5.913  1.1922 -1.1044  0.3847
13365SOL    HW252074   5.813   5.813   5.821  1.8989 -1.2797  0.1206
13366SOL     OW52075   4.352   5.637   8.851  0.5258  0.0825 -0.0245
13366SOL    HW152076   4.379   5.557   8.807  0.1625 -0.0430 -0.0241
13366SOL    HW252077   4.339   5.700   8.780  1.0907  0.2300 -0.0044
13367SOL     OW52078   9.531   4.331   0.386  0.2966  0.3076 -0.1345
13367SOL    HW152079   9.453   4.385   0.392 -0.3524 -0.5926 -0.3486
13367SOL    HW252080   9.550   4.325   0.293  2.8266  3.5756  0.0133
13368SOL     OW52081   1.623   4.331   6.924  0.2188 -0.1591 -0.2279
13368SOL    HW152082   1.649   4.282   7.002 -0.6150  1.9137  1.4287
13368SOL    HW252083   1.538   4.369   6.946  1.0010  2.3767 -1.2346
13369SOL     OW52084  10.162   4.731   9.980  0.0313 -0.2184 -0.1563
13369SOL    HW152085  10.124   4.682   9.907 -2.1520 -0.1867  0.8685
13369SOL    HW252086  10.218   4.796   9.939 -1.1306 -0.2092 -1.8274
13370SOL     OW52087   3.468   0.101   5.536 -0.1523 -0.3649  0.8665
13370SOL    HW152088   3.476   0.006   5.545  2.2213 -0.1942  1.2413
13370SOL    HW252089   3.556   0.134   5.554 -1.0232  1.9543  1.2107
13371SOL     OW52090   6.520   0.451   6.598 -0.4322 -0.7185 -0.2401
13371SOL    HW152091   6.556   0.538   6.580  1.3591 -1.3856 -0.0248
13371SOL    HW252092   6.528   0.405   6.515 -4.1384  0.1393 -1.2704
13372SOL     OW52093   2.571   0.858   7.864 -0.2375 -0.0683 -0.9293
13372SOL    HW152094   2.591   0.882   7.954 -0.2061  0.8142 -1.1607
13372SOL    HW252095   2.481   0.885   7.851 -0.5040 -0.9234 -0.9302
13373SOL     OW52096   7.895   8.408   3.541 -0.7345  0.1604  0.0610
13373SOL    HW152097   7.866   8.497   3.558 -0.7395  0.1499  0.1060
13373SOL    HW252098   7.959   8.390   3.610  0.4806  0.7031 -0.8794
13374SOL     OW52099   5.316   5.266   7.899  0.4550  0.0840 -0.1445
13374SOL    HW152100   5.239   5.223   7.863  0.0545  0.3141  0.4210
13374SOL    HW252101   5.374   5.195   7.926 -0.4140 -0.1245  1.2421
13375SOL     OW52102   4.135   1.870   9.575  0.0468  0.4150  0.0907
13375SOL    HW152103   4.076   1.839   9.643  1.0342 -2.2681 -0.1673
13375SOL    HW252104   4.083   1.866   9.494 -0.2002  0.6161  0.2396
13376SOL     OW52105   0.988   6.751   0.213 -0.5125  0.3712 -0.1965
13376SOL    HW152106   1.061   6.723   0.156 -0.0091 -0.1073  0.6649
13376SOL    HW252107   1.005   6.843   0.230 -0.7865  0.5808 -0.9825
13377SOL     OW52108   5.951   4.821   0.867  0.0397  0.1457  0.1197
13377SOL    HW152109   5.965   4.736   0.824  1.3138  0.2427  0.2892
13377SOL    HW252110   5.872   4.856   0.827  0.1195 -0.6383 -0.7511
13378SOL     OW52111   7.328   5.164   8.648  0.3179  0.5301  0.0258
13378SOL    HW152112   7.244   5.206   8.664  0.0404  0.1804 -0.5027
13378SOL    HW252113   7.343   5.109   8.725 -0.7333 -0.6876 -0.5942
13379SOL     OW52114   3.782   9.024   1.137  0.3300 -0.0817  1.0162
13379SOL    HW152115   3.795   8.931   1.120  0.2396  0.0608  0.1291
13379SOL    HW252116   3.691   9.031   1.167 -0.0841 -0.1275 -0.1815
13380SOL     OW52117   0.984   5.082   7.858 -0.2619  0.3645  0.0455
13380SOL    HW152118   1.034   5.002   7.868  0.7048  0.6927 -1.8146
13380SOL    HW252119   0.991   5.125   7.943  2.3663  0.2434 -0.0281
13381SOL     OW52120  10.164   2.856   3.235 -0.0719  0.4429 -0.0244
13381SOL    HW152121  10.247   2.811   3.225  0.0805  1.1659 -2.9029
13381SOL    HW252122  10.098   2.792   3.209 -0.1033  0.8856 -1.0832
13382SOL     OW52123   4.113   6.022   8.147  0.5280  0.1658 -0.4344
13382SOL    HW152124   4.203   6.001   8.124  0.7749  0.5917  0.1349
13382SOL    HW252125   4.060   5.967   8.089  1.1505 -2.2853  1.1762
13383SOL     OW52126   7.998   1.224   0.028 -0.5767  0.2056  0.2703
13383SOL    HW152127   7.927   1.285   0.006  0.0526  0.2667 -1.7572
13383SOL    HW252128   8.019   1.180  -0.054  1.9207  0.3740  0.7407
13384SOL     OW52129   4.524   1.070   6.867 -0.6449  0.1841  0.2659
13384SOL    HW152130   4.443   1.121   6.868 -0.3122  0.7173  0.4490
13384SOL    HW252131   4.496   0.980   6.883 -1.2561  0.2782 -0.2381
13385SOL     OW52132   5.167   6.426   6.956 -0.4275 -0.1635  0.6709
13385SOL    HW152133   5.080   6.454   6.983 -1.2952 -2.3552  0.2845
13385SOL    HW252134   5.153   6.374   6.877  1.4717  1.2855 -0.7386
13386SOL     OW52135   0.444   9.911   7.382  0.5128  0.1745  0.6561
13386SOL    HW152136   0.386   9.851   7.430 -0.0501  0.9543  0.9736
13386SOL    HW252137   0.385   9.978   7.349  1.0615  0.2369 -0.1954
13387SOL     OW52138   4.488   7.092   6.169  0.2308  0.2864 -0.1622
13387SOL    HW152139   4.442   7.176   6.175 -2.0332 -0.5458 -3.4051
13387SOL    HW252140   4.420   7.029   6.146  2.0275 -2.3521  1.2297
13388SOL     OW52141   6.153   5.288   1.929  0.4832  0.0344 -0.1108
13388SOL    HW152142   6.149   5.237   1.849  3.8832 -0.7055  0.0661
13388SOL    HW252143   6.157   5.224   1.999 -0.6655  0.6718  0.5859
13389SOL     OW52144   2.316   6.445   4.884  0.4875  0.0490 -0.3261
13389SOL    HW152145   2.233   6.493   4.878  0.5605  0.7229  2.5167
13389SOL    HW252146   2.330   6.410   4.797 -2.5446  0.3189 -1.0225
13390SOL     OW52147   4.725   7.661   4.391  0.6592 -0.5782 -0.4721
13390SOL    HW152148   4.737   7.566   4.399  0.6999 -0.3821  4.3951
13390SOL    HW252149   4.781   7.699   4.458 -0.3263  2.8779 -1.3857
13391SOL     OW52150   4.569  10.009   8.469  0.3106  0.2260  0.1233
13391SOL    HW152151   4.611   9.923   8.470 -0.1164 -0.0014 -0.6617
13391SOL    HW252152   4.534  10.020   8.557 -0.2943 -0.7452  0.0181
13392SOL     OW52153   9.746   7.889   9.037 -0.0635  0.7143 -0.0721
13392SOL    HW152154   9.683   7.960   9.037 -2.3311 -1.1432  0.7484
13392SOL    HW252155   9.807   7.911   9.108 -0.7783  1.7742  0.2380
13393SOL     OW52156   0.984   6.337   9.533 -0.5333 -0.1564  0.1064
13393SOL    HW152157   0.931   6.319   9.455 -0.6924 -1.0294  0.4019
13393SOL    HW252158   0.995   6.251   9.575 -0.3830  0.2840  1.0007
13394SOL     OW52159   7.815   8.517   7.933  0.0771  0.3502  0.2543
13394SOL    HW152160   7.882   8.578   7.966  1.2562 -1.8959  2.3627
13394SOL    HW252161   7.773   8.483   8.012 -0.5696 -1.4875 -0.8218
13395SOL     OW52162   8.576   1.291   4.454  0.1901  0.4660 -0.0197
13395SOL    HW152163   8.551   1.384   4.452  0.1086  0.4271 -1.0137
13395SOL    HW252164   8.493   1.245   4.461  0.3206  0.5071  3.1659
13396SOL     OW52165   7.922   7.355   5.949 -0.0834  0.1078 -0.3550
13396SOL    HW152166   7.832   7.379   5.969 -0.2752 -1.1148  0.3607
13396SOL    HW252167   7.937   7.389   5.861 -0.7227  1.6675  0.0927
13397SOL     OW52168   5.304   3.143   5.761  0.4201 -0.4158 -0.0778
13397SOL    HW152169   5.383   3.144   5.816  0.8885  1.0270 -0.7291
13397SOL    HW252170   5.332   3.181   5.678 -1.0867  0.6599 -0.1347
13398SOL     OW52171   4.242   9.942   2.994 -0.1996  0.0879  0.6309
13398SOL    HW152172   4.189   9.863   2.981 -2.0473  1.4320 -0.5370
13398SOL    HW252173   4.326   9.910   3.024 -1.2688 -2.2611  1.3614
13399SOL     OW52174   4.087   9.398   9.635  0.3489  0.2896  0.5387
13399SOL    HW152175   3.994   9.391   9.658  0.0521  0.2319 -0.6162
13399SOL    HW252176   4.089   9.463   9.564  0.9763 -0.9191 -0.5937
13400SOL     OW52177   6.767   2.033   3.813  0.0938  0.3282 -0.7323
13400SOL    HW152178   6.852   2.000   3.787  0.6538  2.0307 -1.2144
13400SOL    HW252179   6.756   2.004   3.904  1.5735  0.7818 -0.3851
13401SOL     OW52180   8.551  10.337   2.131  0.4515  0.4995  0.1595
13401SOL    HW152181   8.608  10.265   2.159  1.5343  1.3134  0.1040
13401SOL    HW252182   8.514  10.307   2.048  0.6296 -0.1311  0.3021
13402SOL     OW52183   4.775   9.225   7.100  0.4353  0.6128  0.1479
13402SOL    HW152184   4.731   9.174   7.167 -0.6791  0.4097 -0.7163
13402SOL    HW252185   4.865   9.191   7.098  0.6524  0.9790  1.8694
13403SOL     OW52186  10.256   2.964   6.727  0.4842  0.1065 -0.1233
13403SOL    HW152187  10.332   2.928   6.681  0.9564 -0.6939  1.2119
13403SOL    HW252188  10.212   2.887   6.763  0.4912  0.7185  1.2633
13404SOL     OW52189   6.005   8.873   4.248 -0.1896 -0.1662  0.7649
13404SOL    HW152190   6.004   8.815   4.172 -1.1733 -0.4183  0.9583
13404SOL    HW252191   5.913   8.894   4.264  0.1270  1.2737  0.8433
13405SOL     OW52192   5.692   3.806   4.924  0.2551  0.3255 -0.8279
13405SOL    HW152193   5.631   3.825   4.994 -1.2493 -3.2023 -0.9904
13405SOL    HW252194   5.642   3.818   4.843  0.1911 -1.1183 -1.0261
13406SOL     OW52195   5.843   2.397  10.251 -0.2968  0.7727 -0.0097
13406SOL    HW152196   5.767   2.388  10.194  0.5069  0.7113 -1.1038
13406SOL    HW252197   5.916   2.413  10.191  0.9176 -1.2579  0.8280
13407SOL     OW52198   8.796   7.768   3.617 -0.2238  0.4571 -0.6211
13407SOL    HW152199   8.779   7.769   3.711 -0.8223 -0.0514 -0.7203
13407SOL    HW252200   8.881   7.811   3.607  1.6441 -2.6666  0.5296
13408SOL     OW52201   1.727   4.756   8.103  0.3039 -0.4798  0.1828
13408SOL    HW152202   1.804   4.699   8.100  0.6238 -0.0574 -2.4147
13408SOL    HW252203   1.656   4.701   8.071  0.5735  0.3791 -2.1378
13409SOL     OW52204   1.854   3.800   3.887 -0.1483  0.5433  0.0663
13409SOL    HW152205   1.910   3.728   3.915 -0.8367  0.2408  0.7204
13409SOL    HW252206   1.782   3.799   3.951 -1.2737  0.4464 -1.1712
13410SOL     OW52207   3.364   7.090   9.623 -0.1813 -0.1469  0.4260
13410SOL    HW152208   3.320   7.152   9.564  0.8756 -0.3177 -0.5712
13410SOL    HW252209   3.456   7.115   9.620  0.0806 -1.0052  0.9783
13411SOL     OW52210   1.977   7.309   5.135 -0.2025 -0.4084 -0.4079
13411SOL    HW152211   1.933   7.237   5.180  0.1067  0.5237  1.4832
13411SOL    HW252212   1.910   7.347   5.078 -1.8799  0.8561  2.2483
13412SOL     OW52213   9.363   0.735   4.105  0.1489 -0.9324 -0.4524
13412SOL    HW152214   9.276   0.774   4.117  0.4347 -0.5694  0.5798
13412SOL    HW252215   9.406   0.790   4.040 -0.6526 -1.5651 -1.5402
13413SOL     OW52216   8.909   1.349   1.768 -0.1635  0.0722 -0.0028
13413SOL    HW152217   8.870   1.413   1.708  2.6457  2.2668  0.3254
13413SOL    HW252218   8.939   1.278   1.712 -0.1672  0.7316 -0.8542
13414SOL     OW52219   2.197   7.625   2.768 -0.5200  0.0486  0.4543
13414SOL    HW152220   2.116   7.581   2.794 -0.7370  0.2730  0.1751
13414SOL    HW252221   2.240   7.648   2.850  0.0141 -1.4310  0.6022
13415SOL     OW52222   9.718   2.824   3.162 -0.1970 -0.7794  0.2424
13415SOL    HW152223   9.677   2.738   3.163  0.9582 -1.3386  1.6436
13415SOL    HW252224   9.740   2.842   3.253  0.3735  0.6192 -0.1376
13416SOL     OW52225   7.365   3.024   2.533 -0.0393  0.2218 -0.4261
13416SOL    HW152226   7.330   3.037   2.621  0.5170  1.0219 -0.3119
13416SOL    HW252227   7.460   3.029   2.544  0.0313  0.4344 -1.0832
13417SOL     OW52228   9.674   0.565   8.463 -0.1907 -0.0603  0.0762
13417SOL    HW152229   9.665   0.518   8.546 -2.3841 -0.5705 -0.3920
13417SOL    HW252230   9.594   0.544   8.414  1.2781 -0.2384 -2.4313
13418SOL     OW52231   4.727   1.014   7.495  0.4990  0.1608  0.0132
13418SOL    HW152232   4.737   1.102   7.532 -1.0679 -0.8859  3.3426
13418SOL    HW252233   4.736   0.956   7.570  1.7724 -2.6231 -2.1319
13419SOL     OW52234   8.011   7.527  10.075  0.3583  0.1670 -0.4981
13419SOL    HW152235   7.943   7.589  10.047 -0.0015 -0.3744 -0.8732
13419SOL    HW252236   8.064   7.575  10.138 -1.1167  0.2332  0.7441
13420SOL     OW52237   2.885   7.455  10.344 -0.6073 -0.2290  0.1514
13420SOL    HW152238   2.927   7.540  10.327 -1.1809 -0.1242 -0.8208
13420SOL    HW252239   2.821   7.446  10.273 -1.6162 -0.7795  1.1065
13421SOL     OW52240   2.149   2.699   4.308 -0.7604  0.3471 -0.3911
13421SOL    HW152241   2.089   2.758   4.263 -0.4141 -0.0493 -1.3945
13421SOL    HW252242   2.147   2.618   4.257 -0.5245 -0.2014  0.4372
13422SOL     OW52243   9.485   6.552   7.217 -0.1701  0.2617 -0.5475
13422SOL    HW152244   9.486   6.469   7.265  1.2707  0.5907  0.0634
13422SOL    HW252245   9.398   6.557   7.179 -0.7360 -0.8966  0.5187
13423SOL     OW52246   0.233   3.446   5.893  0.0842 -0.1348  0.4707
13423SOL    HW152247   0.154   3.435   5.841  0.5099 -0.3485 -0.1472
13423SOL    HW252248   0.203   3.448   5.984 -0.6780  0.3211  0.2162
13424SOL     OW52249   1.079   4.213   1.002 -0.3715 -0.4692 -0.1298
13424SOL    HW152250   1.053   4.137   1.054 -1.7428 -0.6368 -0.9896
13424SOL    HW252251   1.136   4.178   0.934  0.0359 -0.5243  0.2424
13425SOL     OW52252   1.912   0.849   3.505 -0.0337  0.0410  0.0359
13425SOL    HW152253   1.904   0.862   3.410  1.0479 -1.0399 -0.2309
13425SOL    HW252254   1.823   0.860   3.538 -0.3121  1.1132 -1.0036
13426SOL     OW52255   5.525   3.590  10.384 -0.4620  0.1320 -0.4475
13426SOL    HW152256   5.529   3.561  10.293 -1.5434 -1.6063  0.0061
13426SOL    HW252257   5.613   3.576  10.418  0.0744  1.2461 -1.3378
13427SOL     OW52258   2.466   9.498   4.606  0.3128 -0.0456 -0.6553
13427SOL    HW152259   2.530   9.464   4.544  1.8156  3.7697 -1.5088
13427SOL    HW252260   2.519   9.541   4.674 -1.3590 -0.8429  1.2350
13428SOL     OW52261   9.022   2.737   9.142 -0.8142 -0.5942 -0.2646
13428SOL    HW152262   8.934   2.723   9.107 -1.7041  2.5106  0.4333
13428SOL    HW252263   9.057   2.810   9.090  0.4671 -0.3263  0.9103
13429SOL     OW52264   3.727   9.441   2.123  0.0749  0.3262  0.8324
13429SOL    HW152265   3.662   9.455   2.054  0.1068 -0.0175  0.7284
13429SOL    HW252266   3.806   9.413   2.076  0.2231  0.4996  0.9769
13430SOL     OW52267   9.016   2.902   1.910  0.0448 -0.9695 -0.2762
13430SOL    HW152268   9.092   2.893   1.967 -0.1201 -1.6049 -0.1470
13430SOL    HW252269   9.037   2.851   1.832  1.5201  2.2520 -2.1795
13431SOL     OW52270   1.422   8.436   2.015 -0.1756 -0.3402 -0.4579
13431SOL    HW152271   1.412   8.344   1.991  0.1635 -0.2991 -0.7614
13431SOL    HW252272   1.513   8.444   2.044 -1.0766 -0.8706  2.9598
13432SOL     OW52273   2.792   2.446   7.285  0.5633  0.3017 -0.0858
13432SOL    HW152274   2.843   2.516   7.325 -1.5469  0.8073  1.9235
13432SOL    HW252275   2.734   2.491   7.223  0.9500 -0.0157 -0.6987
13433SOL     OW52276   6.970   7.328   8.263  0.9923 -0.3876 -0.4820
13433SOL    HW152277   7.065   7.315   8.258  0.9520 -0.4597 -1.2124
13433SOL    HW252278   6.945   7.353   8.174  0.6554  1.9655  0.2204
13434SOL     OW52279   4.158   8.445   0.366  0.2073 -0.1362  0.0493
13434SOL    HW152280   4.170   8.517   0.304  1.1924 -1.0684 -0.8939
13434SOL    HW252281   4.246   8.409   0.378 -0.3588 -1.6352 -0.0845
13435SOL     OW52282  10.203   8.873   7.313  0.7301  0.0534  0.2657
13435SOL    HW152283  10.160   8.903   7.233 -0.1292 -0.9780  0.3167
13435SOL    HW252284  10.132   8.835   7.365  1.5086 -0.5620  0.9032
13436SOL     OW52285   5.671   7.655   9.075 -0.4671  0.1046 -0.0767
13436SOL    HW152286   5.713   7.586   9.024 -0.7184 -1.7103  2.0504
13436SOL    HW252287   5.578   7.633   9.074 -0.7781  1.3085 -0.6085
13437SOL     OW52288   6.214   3.209   8.459  0.5816 -0.2347 -0.1028
13437SOL    HW152289   6.122   3.189   8.473  0.2816  0.2672 -1.2416
13437SOL    HW252290   6.217   3.305   8.456  0.9652 -0.2673 -1.1167
13438SOL     OW52291   6.117   3.383   9.391  0.3353 -0.0966 -0.6475
13438SOL    HW152292   6.154   3.352   9.308  0.4578 -1.7397 -0.0226
13438SOL    HW252293   6.145   3.474   9.397  2.9098 -0.7812 -1.0227
13439SOL     OW52294   6.147   6.815   0.214  0.1914  0.0012 -0.0006
13439SOL    HW152295   6.087   6.741   0.208  0.0625  0.1831 -1.4000
13439SOL    HW252296   6.203   6.807   0.136 -0.1933  1.6733 -0.4962
13440SOL     OW52297   4.769   0.714   5.026 -0.2018 -0.3803 -0.2283
13440SOL    HW152298   4.711   0.765   5.082 -2.0253 -0.7127 -1.7375
13440SOL    HW252299   4.853   0.760   5.031  0.0514 -0.9120  3.4378
13441SOL     OW52300   5.250   1.686   3.808 -0.7286  0.2696 -0.1698
13441SOL    HW152301   5.237   1.763   3.752 -1.9000  0.7379  0.6950
13441SOL    HW252302   5.319   1.636   3.765 -1.8880  0.3642 -2.3018
13442SOL     OW52303   7.612   4.867   4.158  0.2175  0.1339 -0.2628
13442SOL    HW152304   7.518   4.883   4.169  0.2690  0.3003 -0.0661
13442SOL    HW252305   7.617   4.799   4.091 -0.0925 -0.8618  0.7034
13443SOL     OW52306   4.947   0.475   3.483 -0.2354 -0.5463  0.2951
13443SOL    HW152307   4.904   0.541   3.429  0.6951 -0.2563 -0.1171
13443SOL    HW252308   4.876   0.422   3.519 -1.2229  1.9361  2.3405
13444SOL     OW52309   2.120   8.532   4.885 -0.0042  0.1057  0.7620
13444SOL    HW152310   2.167   8.470   4.829  0.9564  1.0659  0.4543
13444SOL    HW252311   2.163   8.524   4.971 -0.8399 -0.6759  1.1213
13445SOL     OW52312   8.728   7.839   9.540  0.0366 -0.8084  0.2650
13445SOL    HW152313   8.795   7.800   9.483 -0.2030 -0.6237 -0.1453
13445SOL    HW252314   8.675   7.893   9.481 -0.8111 -1.3728  0.4898
13446SOL     OW52315   2.614   5.113   5.386 -0.5698  0.3997  0.1166
13446SOL    HW152316   2.636   5.062   5.308  0.0103  0.4367  0.2446
13446SOL    HW252317   2.565   5.052   5.442 -1.1457  0.4315 -0.3534
13447SOL     OW52318   0.732   5.031   5.631  0.2401  0.6822 -0.2774
13447SOL    HW152319   0.776   5.091   5.691  0.3872  1.1541 -0.8505
13447SOL    HW252320   0.781   4.949   5.640  1.7286  1.3834 -1.4148
13448SOL     OW52321   0.354   5.473   0.545 -0.1333  0.1316  0.3650
13448SOL    HW152322   0.278   5.462   0.487  0.0401  0.8387 -0.0142
13448SOL    HW252323   0.393   5.386   0.551 -1.0227 -0.2567  0.6281
13449SOL     OW52324   9.435   9.940   1.798 -0.1149 -0.1563  0.2865
13449SOL    HW152325   9.386  10.016   1.830 -0.5462 -0.1292 -0.3990
13449SOL    HW252326   9.373   9.867   1.803 -0.2795 -0.1032 -0.6767
13450SOL     OW52327   3.678   8.490   0.989  0.1583 -0.1571  0.4376
13450SOL    HW152328   3.695   8.468   0.897 -0.4991  0.2058  0.2218
13450SOL    HW252329   3.595   8.446   1.009 -1.3814  2.3276 -0.1059
13451SOL     OW52330   5.725   8.177   8.861 -0.2404  0.3043  0.4221
13451SOL    HW152331   5.700   8.086   8.847 -0.3887  0.2872  0.7693
13451SOL    HW252332   5.713   8.219   8.776 -0.8768  0.1544  0.4286
13452SOL     OW52333   8.273   2.228   7.385  0.1814 -0.0017 -0.4651
13452SOL    HW152334   8.255   2.212   7.293  2.3688 -0.4778 -0.8819
13452SOL    HW252335   8.259   2.322   7.396  0.4131  0.1591 -1.4290
13453SOL     OW52336   5.914   7.140   6.006  0.2395  0.0503  0.3648
13453SOL    HW152337   5.843   7.082   5.979  0.8180 -0.6826  0.3672
13453SOL    HW252338   5.945   7.102   6.088  1.3750 -0.3233 -0.2157
13454SOL     OW52339   5.610   0.548   5.817 -0.5027  0.2693  0.1028
13454SOL    HW152340   5.580   0.469   5.862  1.3016 -1.6438 -1.8110
13454SOL    HW252341   5.548   0.616   5.843 -0.9686 -1.2386  3.4581
13455SOL     OW52342   9.607   6.169   6.782  0.3318 -0.3689 -0.2797
13455SOL    HW152343   9.564   6.200   6.703  0.6431 -0.1684 -0.3707
13455SOL    HW252344   9.692   6.137   6.752  0.4555 -0.2826 -0.0250
13456SOL     OW52345   7.036   9.290   9.936 -0.1225 -0.3167  0.0974
13456SOL    HW152346   7.060   9.360   9.997 -0.5307  1.4141 -1.6362
13456SOL    HW252347   7.113   9.282   9.879 -0.8478  0.1985 -0.9872
13457SOL     OW52348   2.558   4.414   6.411 -0.7315 -0.6306  0.3562
13457SOL    HW152349   2.512   4.330   6.417 -0.4370 -0.7471  1.0375
13457SOL    HW252350   2.524   4.466   6.483 -0.3360 -0.4520  0.4184
13458SOL     OW52351   0.834   2.690  10.094 -0.3183  0.2921  0.6379
13458SOL    HW152352   0.798   2.646  10.017  1.9053  0.7731 -0.7694
13458SOL    HW252353   0.833   2.623  10.162 -0.8094 -0.6671 -0.2853
13459SOL     OW52354   3.874   7.269   4.620 -0.7706  0.0728  0.8850
13459SOL    HW152355   3.911   7.196   4.571  1.2364  0.8832  1.1028
13459SOL    HW252356   3.857   7.234   4.707 -1.0833 -0.4600  0.6155
13460SOL     OW52357   7.441   3.086   8.903 -0.1088 -0.4142  0.7173
13460SOL    HW152358   7.401   2.999   8.896  0.5218 -0.6254 -0.8816
13460SOL    HW252359   7.535   3.068   8.910  0.0689  0.1261 -0.0968
13461SOL     OW52360   1.900   0.610   4.791  0.3006  0.6079  0.5417
13461SOL    HW152361   1.833   0.596   4.724 -1.0495 -0.2617  2.0070
13461SOL    HW252362   1.955   0.532   4.786  0.3447  0.6513  0.3085
13462SOL     OW52363   5.291   6.629   9.559 -0.9586 -0.2421 -0.2260
13462SOL    HW152364   5.285   6.721   9.533  0.2087 -0.3498 -0.9930
13462SOL    HW252365   5.262   6.627   9.650 -0.1273  1.0468  0.0980
13463SOL     OW52366   5.259   5.733   1.922  0.0652  0.2377 -0.4016
13463SOL    HW152367   5.236   5.713   2.013  0.5999 -1.1110 -0.5285
13463SOL    HW252368   5.175   5.752   1.879 -0.3466 -0.3801  0.1016
13464SOL     OW52369   3.806   0.585   1.886  0.0297  0.1660 -0.5676
13464SOL    HW152370   3.741   0.515   1.878 -0.2214  0.1539  1.0922
13464SOL    HW252371   3.756   0.661   1.916  0.1801  1.3213 -3.0677
13465SOL     OW52372  10.250   5.325   3.186  0.2118 -0.2799  0.0139
13465SOL    HW152373  10.156   5.312   3.169  0.4741 -0.4926 -1.3233
13465SOL    HW252374  10.260   5.303   3.279 -1.2058  0.5805  0.3967
13466SOL     OW52375   6.995  10.308   8.690  0.3185  0.0187  0.4255
13466SOL    HW152376   7.067  10.336   8.633 -0.0462  1.6613  0.7261
13466SOL    HW252377   6.980  10.383   8.748 -1.5411 -0.3585  0.4755
13467SOL     OW52378  10.392   1.998   6.638 -0.1770  0.0124 -0.3235
13467SOL    HW152379  10.316   1.976   6.584  0.3219  1.8941 -1.8793
13467SOL    HW252380  10.415   1.915   6.682 -1.4235 -1.2617 -1.9561
13468SOL     OW52381   9.401   7.006   5.690 -0.1846 -0.8623 -0.8141
13468SOL    HW152382   9.482   6.990   5.641 -0.1176 -1.1415 -0.6136
13468SOL    HW252383   9.431   7.049   5.771 -0.5148  2.4584 -2.2838
13469SOL     OW52384   2.017   9.297   7.998 -0.6916  0.0775 -0.2613
13469SOL    HW152385   2.097   9.342   8.025  0.1053 -0.7167 -1.2630
13469SOL    HW252386   2.007   9.319   7.906 -2.0889  0.8201  0.0389
13470SOL     OW52387   4.910   9.835   2.588  0.2313  0.3284 -0.5277
13470SOL    HW152388   4.841   9.794   2.640  0.8028  1.3053  1.0895
13470SOL    HW252389   4.898   9.800   2.500 -1.2619 -0.8127  0.0824
13471SOL     OW52390   2.510   6.900   9.880 -0.9142  0.2840  0.2964
13471SOL    HW152391   2.473   6.969   9.934 -0.8499  0.8342 -0.3434
13471SOL    HW252392   2.603   6.901   9.899 -0.8225  0.7797 -0.1385
13472SOL     OW52393   4.896   1.291   5.290  0.4809 -0.2941  0.0505
13472SOL    HW152394   4.932   1.292   5.378  1.3714  1.7481 -0.2734
13472SOL    HW252395   4.807   1.325   5.300  0.9206  0.8942  0.0681
13473SOL     OW52396   9.161   7.646   4.731 -0.1243  0.3410 -0.4608
13473SOL    HW152397   9.109   7.725   4.749 -0.5214 -0.0858  0.3016
13473SOL    HW252398   9.098   7.575   4.733  0.5200 -0.2246  0.7707
13474SOL     OW52399   9.258   4.223   1.242  0.0716  0.1750  0.0480
13474SOL    HW152400   9.247   4.220   1.337  0.1025  1.8815  0.1326
13474SOL    HW252401   9.343   4.183   1.226  0.1629  0.0772  0.7527
13475SOL     OW52402   8.415   5.855   8.633  0.5961 -0.0783 -0.1419
13475SOL    HW152403   8.477   5.882   8.701  1.9338 -1.3346 -0.8236
13475SOL    HW252404   8.468   5.848   8.553 -0.3972 -1.2838 -0.7269
13476SOL     OW52405   9.342   0.474   4.286 -0.5155 -0.1969 -0.0445
13476SOL    HW152406   9.420   0.425   4.312  0.2066  1.3199  0.7525
13476SOL    HW252407   9.330   0.452   4.193 -1.4239 -3.3955  0.6815
13477SOL     OW52408  10.201   0.187   3.138  0.0951  0.1177  0.3470
13477SOL    HW152409  10.280   0.151   3.096  0.4189 -0.4684  1.4277
13477SOL    HW252410  10.229   0.210   3.226 -0.1522  2.8784 -0.1990
13478SOL     OW52411   5.643   2.248   5.397 -0.1566  0.2412  0.2827
13478SOL    HW152412   5.738   2.236   5.394 -0.1548 -0.4673  1.8546
13478SOL    HW252413   5.611   2.211   5.315  0.8842 -0.1157  0.0261
13479SOL     OW52414   1.108   2.669   8.842 -0.0283 -0.2204 -0.3584
13479SOL    HW152415   1.072   2.727   8.909  1.1015  0.6941 -0.5090
13479SOL    HW252416   1.141   2.729   8.775 -1.0329 -1.1114 -1.7046
13480SOL     OW52417   7.242   3.423   8.413  0.7030 -0.3219  0.1528
13480SOL    HW152418   7.214   3.334   8.389 -0.0562  0.0334 -0.3118
13480SOL    HW252419   7.234   3.473   8.332 -1.4842  0.7965  0.9915
13481SOL     OW52420   0.960   9.213   0.796 -0.1183  0.5430 -0.4385
13481SOL    HW152421   0.865   9.217   0.786 -0.1531  0.9325  0.0612
13481SOL    HW252422   0.994   9.227   0.707 -0.4618  2.8485 -0.2687
13482SOL     OW52423   7.513   6.003   3.159  0.4021 -0.3077  0.0545
13482SOL    HW152424   7.515   6.015   3.064 -1.7545 -1.3187 -0.1760
13482SOL    HW252425   7.542   6.088   3.194 -0.8194  0.8226 -1.5064
13483SOL     OW52426   8.492   7.813   3.530  0.7156 -0.0173  0.3938
13483SOL    HW152427   8.588   7.807   3.526  0.6648 -3.0817  1.2769
13483SOL    HW252428   8.475   7.850   3.616  1.0911  0.2590  0.3549
13484SOL     OW52429   5.684   1.610   9.725 -0.2251 -0.0242 -0.0518
13484SOL    HW152430   5.754   1.581   9.666  0.8906  0.3409  1.0501
13484SOL    HW252431   5.607   1.561   9.697  0.6852 -1.1303 -0.7053
13485SOL     OW52432   9.766   7.438   8.278 -0.2003 -0.2590 -0.3901
13485SOL    HW152433   9.769   7.344   8.260  1.8594 -0.2895 -0.0899
13485SOL    HW252434   9.702   7.446   8.349  1.6322 -1.8305  1.5793
13486SOL     OW52435   7.348   8.749   9.704  0.4045  0.3714 -0.3977
13486SOL    HW152436   7.252   8.750   9.708  0.4245 -1.1164  1.0455
13486SOL    HW252437   7.369   8.676   9.646  0.6811 -0.2352  0.4584
13487SOL     OW52438   7.100   8.694   4.300  0.0867  0.1745  0.2816
13487SOL    HW152439   7.183   8.697   4.348  0.3765 -1.5852 -0.0450
13487SOL    HW252440   7.033   8.713   4.367  0.7598  2.9709  0.2883
13488SOL     OW52441   4.798   4.214   5.856 -0.1248 -0.2125 -0.1543
13488SOL    HW152442   4.836   4.296   5.825 -0.8048  0.7457  1.3999
13488SOL    HW252443   4.852   4.188   5.930  0.3510 -1.4407 -0.8980
13489SOL     OW52444   2.471   5.836   4.379  0.1096 -0.1803 -0.0238
13489SOL    HW152445   2.490   5.832   4.473 -0.2876 -2.2665  0.0170
13489SOL    HW252446   2.557   5.849   4.339  0.4631 -0.5690  0.5769
13490SOL     OW52447   9.768   2.044   6.018 -0.3729 -0.4183  0.2220
13490SOL    HW152448   9.677   2.014   6.020  0.0819 -2.2490 -2.4996
13490SOL    HW252449   9.762   2.135   5.989 -1.3183 -0.6271 -0.2705
13491SOL     OW52450   4.502   9.915   5.216 -0.1488  0.3880  0.2150
13491SOL    HW152451   4.539   9.827   5.219 -2.4772 -0.8506 -2.7324
13491SOL    HW252452   4.498   9.942   5.308  0.3610 -2.6891  1.2612
13492SOL     OW52453   6.773   3.679   7.136 -0.5071 -0.1193  0.1550
13492SOL    HW152454   6.859   3.700   7.171  0.4701 -1.3882 -1.3641
13492SOL    HW252455   6.744   3.759   7.092 -0.6248  0.6551  1.5708
13493SOL     OW52456   3.707   7.317   4.879  0.3387  0.1437 -0.0647
13493SOL    HW152457   3.613   7.302   4.880  0.3117  0.0149 -1.8195
13493SOL    HW252458   3.746   7.231   4.894  0.1740 -0.0006 -0.4678
13494SOL     OW52459   8.474   6.567   7.901 -0.6228  0.2525 -0.0995
13494SOL    HW152460   8.493   6.528   7.987  0.8791 -1.0916 -1.0034
13494SOL    HW252461   8.428   6.498   7.853 -0.5360  0.6230 -0.7259
13495SOL     OW52462   1.473   0.414   6.726 -0.2267  0.6104 -0.0515
13495SOL    HW152463   1.532   0.424   6.800 -1.6734  2.1932  0.9665
13495SOL    HW252464   1.463   0.320   6.715  0.9916  0.3467  0.9491
13496SOL     OW52465   2.604   2.471   6.302  0.0804  0.2521 -0.1855
13496SOL    HW152466   2.665   2.441   6.234 -1.5306  0.0529 -1.6258
13496SOL    HW252467   2.651   2.460   6.384  1.2450 -1.8614 -1.0643
13497SOL     OW52468   2.142   8.942   9.769 -0.3780  0.2107  0.6481
13497SOL    HW152469   2.220   8.989   9.741  0.0209  0.0890  1.5300
13497SOL    HW252470   2.175   8.874   9.829 -0.9798 -0.9183 -0.2541
13498SOL     OW52471   9.890   3.505   2.223  0.2712 -0.2726 -0.2408
13498SOL    HW152472   9.958   3.466   2.167  0.9857  0.3462  0.1780
13498SOL    HW252473   9.878   3.441   2.293 -0.8508 -1.1976 -1.2307
13499SOL     OW52474   7.643   5.073   0.962 -0.4520 -0.0902 -0.1606
13499SOL    HW152475   7.566   5.018   0.947 -0.3735 -0.2978  0.1761
13499SOL    HW252476   7.665   5.058   1.054 -1.5401  1.9213  0.4654
13500SOL     OW52477   2.802   5.014   2.525 -0.0065 -0.0612 -0.8998
13500SOL    HW152478   2.849   4.965   2.457 -0.3941 -0.5267 -0.8409
13500SOL    HW252479   2.716   4.972   2.529 -0.0499  0.0789 -0.2521
13501SOL     OW52480   9.155   1.912   8.827  0.0909 -0.1532  0.0589
13501SOL    HW152481   9.129   1.936   8.738  0.9570 -0.4682 -0.2877
13501SOL    HW252482   9.250   1.918   8.827  0.0604  0.7223  1.2312
13502SOL     OW52483   1.855   5.919   9.831 -0.0205  0.2346  0.1874
13502SOL    HW152484   1.908   5.996   9.810 -0.1940  0.1624 -0.5301
13502SOL    HW252485   1.845   5.923   9.926  1.8712 -0.1470  0.4375
13503SOL     OW52486   1.212   9.415   8.769  0.0749  0.5893  0.3923
13503SOL    HW152487   1.210   9.505   8.801 -0.6830  0.3642  1.0098
13503SOL    HW252488   1.240   9.364   8.845 -0.5414  0.1812  0.3487
13504SOL     OW52489   5.619   2.204   6.169  0.1237  0.2934  0.4442
13504SOL    HW152490   5.543   2.150   6.185 -0.8445  1.0360 -1.2964
13504SOL    HW252491   5.593   2.262   6.097  2.9753 -0.8306 -1.7094
13505SOL     OW52492   2.824   5.057  10.053  0.4081 -0.3811 -0.1113
13505SOL    HW152493   2.893   5.102  10.004 -0.1702 -0.6963 -1.2530
13505SOL    HW252494   2.862   4.971  10.074  1.5883  0.6324  2.2516
13506SOL     OW52495   5.329   7.477   6.797  0.3601 -0.0078  0.5886
13506SOL    HW152496   5.276   7.493   6.875 -1.0302 -0.5509 -0.1929
13506SOL    HW252497   5.338   7.564   6.757 -0.8382 -0.0262  0.2177
13507SOL     OW52498   7.259   6.124   5.596 -0.2125 -0.0631 -0.1825
13507SOL    HW152499   7.342   6.173   5.592 -0.8603  1.0790 -0.0428
13507SOL    HW252500   7.230   6.135   5.687  1.2418 -3.5220  0.8658
13508SOL     OW52501   2.584   1.963   3.649 -0.5682  0.3034 -0.4474
13508SOL    HW152502   2.522   1.960   3.722  0.0715 -0.4195  0.0689
13508SOL    HW252503   2.614   1.873   3.638 -1.3653  0.2051 -2.2317
13509SOL     OW52504   5.682   3.340   1.730 -0.0726 -0.3098 -0.2733
13509SOL    HW152505   5.672   3.370   1.820 -0.8127  0.0302 -0.4642
13509SOL    HW252506   5.761   3.285   1.732  0.6761  0.7364  0.3097
13510SOL     OW52507  10.229   0.036   0.443 -0.1537 -0.2351 -0.7944
13510SOL    HW152508  10.146   0.064   0.404 -0.5739 -1.0851 -0.5368
13510SOL    HW252509  10.211  -0.051   0.479  1.1986 -1.0656 -1.9628
13511SOL     OW52510   8.290   2.509   5.121  0.1097 -0.6370  0.3258
13511SOL    HW152511   8.218   2.496   5.060  0.4967  1.0978 -0.5561
13511SOL    HW252512   8.266   2.587   5.171  1.6868  0.4758 -0.5502
13512SOL     OW52513   0.274   4.054   2.776  0.3504 -0.3628 -0.1760
13512SOL    HW152514   0.332   3.992   2.732 -0.1156 -0.6939 -0.3355
13512SOL    HW252515   0.265   4.019   2.865  0.8504  0.0066  0.0300
13513SOL     OW52516   8.697   0.436   7.574 -0.5242  0.4517 -0.1371
13513SOL    HW152517   8.616   0.410   7.530 -1.2133 -0.2948  1.4734
13513SOL    HW252518   8.742   0.354   7.593 -0.3161  0.7331  0.6431
13514SOL     OW52519   1.812   8.662   1.888 -0.3236 -0.8776 -0.7286
13514SOL    HW152520   1.722   8.692   1.880 -0.2425 -0.8939 -2.0513
13514SOL    HW252521   1.851   8.718   1.955 -1.3246 -0.8975 -0.1216
13515SOL     OW52522   7.955   0.995   3.552 -0.1541 -0.4171  0.3288
13515SOL    HW152523   8.001   1.075   3.579 -2.3929  0.5723  1.4183
13515SOL    HW252524   7.961   0.997   3.456  0.2255  0.8144  0.3523
13516SOL     OW52525   9.500   0.946   1.744  0.3611  0.3232  0.1272
13516SOL    HW152526   9.491   0.995   1.662 -1.6378  0.0125  0.1159
13516SOL    HW252527   9.444   0.992   1.806  0.8995 -0.1599  0.9909
13517SOL     OW52528   9.650   2.605   2.644 -0.3346 -0.2534  0.0741
13517SOL    HW152529   9.596   2.564   2.576 -0.0666 -0.9979  0.2967
13517SOL    HW252530   9.595   2.601   2.723 -0.8342  1.0370 -0.1790
13518SOL     OW52531   4.970   9.488   8.805 -0.4064 -0.0890 -0.7549
13518SOL    HW152532   4.927   9.415   8.850 -0.3207 -0.3406 -1.0771
13518SOL    HW252533   5.038   9.446   8.751  0.5693  0.3285  0.1110
13519SOL     OW52534   4.375   4.979   8.707  0.3915  0.3135  0.7339
13519SOL    HW152535   4.291   5.009   8.675  0.6845  0.7373  0.3449
13519SOL    HW252536   4.361   4.888   8.732 -0.0726  0.2591  0.2836
13520SOL     OW52537   7.855   9.755   0.588 -0.7262  0.6978  0.5294
13520SOL    HW152538   7.865   9.850   0.583 -2.5077  0.8948 -0.3160
13520SOL    HW252539   7.812   9.731   0.506  1.8602 -1.2213 -0.4045
13521SOL     OW52540   5.968   2.719  10.004 -0.2260 -0.2796 -0.2253
13521SOL    HW152541   5.897   2.658   9.986  0.0912 -1.2249  1.4940
13521SOL    HW252542   5.962   2.785   9.935 -0.0926 -2.6358 -2.6481
13522SOL     OW52543   3.092   8.133   4.858 -0.2128 -0.1490 -0.2555
13522SOL    HW152544   3.174   8.153   4.904 -0.9503 -0.1020  1.0830
13522SOL    HW252545   3.073   8.042   4.881 -0.5425 -0.1639 -0.5753
13523SOL     OW52546   0.596   8.348   9.841 -0.0533 -0.1754  0.5039
13523SOL    HW152547   0.536   8.386   9.905 -1.0592 -0.0606 -0.4747
13523SOL    HW252548   0.578   8.396   9.760 -1.3433 -2.6740 -0.7847
13524SOL     OW52549   4.803   8.896   1.440 -0.0268  0.2567  0.0137
13524SOL    HW152550   4.878   8.840   1.416 -1.2428 -1.7762  0.7130
13524SOL    HW252551   4.831   8.938   1.521  1.0094  0.8949 -0.6464
13525SOL     OW52552   0.691   2.272   0.914  0.4883 -0.4373 -0.1168
13525SOL    HW152553   0.655   2.196   0.959  1.1522 -1.0837 -0.6476
13525SOL    HW252554   0.750   2.235   0.848 -0.2042  0.4799 -1.2979
13526SOL     OW52555   2.957   0.735   4.410  0.3882 -0.5103  0.2381
13526SOL    HW152556   3.027   0.729   4.345  0.9521  1.9675  0.4960
13526SOL    HW252557   2.995   0.788   4.481 -1.0340 -1.0023  1.4113
13527SOL     OW52558   7.524   9.338   3.534  0.0588  0.4721  0.0285
13527SOL    HW152559   7.517   9.427   3.497  0.9400  0.4543 -0.2015
13527SOL    HW252560   7.513   9.280   3.458 -0.6701  0.3698  0.2018
13528SOL     OW52561   8.093   7.980   7.269  0.0713  0.0980 -0.4341
13528SOL    HW152562   8.079   8.053   7.330 -0.1576 -0.2821 -0.0272
13528SOL    HW252563   8.152   8.016   7.202  0.2262  0.5577 -0.0583
13529SOL     OW52564   2.816   6.917   3.376  1.2535 -0.1713 -0.5636
13529SOL    HW152565   2.730   6.935   3.339  0.0230  1.0842  2.5653
13529SOL    HW252566   2.856   7.003   3.386  2.8144 -0.7239 -1.7332
13530SOL     OW52567   4.504   8.554   6.247 -0.3750  0.4120 -0.0391
13530SOL    HW152568   4.457   8.476   6.217  1.6104 -0.2798 -1.6140
13530SOL    HW252569   4.495   8.617   6.176  1.1537  0.1864 -0.4793
13531SOL     OW52570   2.116   8.425  10.166  0.2832 -0.3001 -0.0077
13531SOL    HW152571   2.103   8.500  10.108 -0.3315  0.7905  1.4698
13531SOL    HW252572   2.134   8.464  10.251 -1.3762 -1.7902  1.0969
13532SOL     OW52573   3.960   6.290   8.857  0.2213 -0.0878 -0.4760
13532SOL    HW152574   4.044   6.284   8.903 -0.3639  1.2232  0.8347
13532SOL    HW252575   3.912   6.213   8.887  0.3054  0.1030  0.1661
13533SOL     OW52576  10.294   1.194   7.666  0.2106  0.1323  0.1103
13533SOL    HW152577  10.364   1.153   7.717 -1.7154 -1.8020  1.4174
13533SOL    HW252578  10.233   1.122   7.648 -1.5347  1.7432 -0.8069
13534SOL     OW52579   0.567   1.070   6.968  1.1340 -0.1412  0.0603
13534SOL    HW152580   0.650   1.111   6.943  0.4729  0.4422 -1.3113
13534SOL    HW252581   0.509   1.087   6.893 -0.4417  0.1081  1.2887
13535SOL     OW52582   8.706   6.764   0.709  0.0439  0.5058  0.1616
13535SOL    HW152583   8.615   6.759   0.679  0.4985 -0.4735 -1.1428
13535SOL    HW252584   8.709   6.843   0.764 -1.4936  0.7678 -0.0874
13536SOL     OW52585   2.287   7.525   5.731  0.1907  0.0963  0.4610
13536SOL    HW152586   2.195   7.503   5.745  0.2089  0.0218  0.4622
13536SOL    HW252587   2.285   7.608   5.683  0.1102 -0.3593 -0.3361
13537SOL     OW52588   1.627   6.086   0.341  0.2920  0.1956  0.5291
13537SOL    HW152589   1.540   6.047   0.345  0.8072 -0.8773  2.3746
13537SOL    HW252590   1.687   6.012   0.337  1.1918  0.8722  1.0881
13538SOL     OW52591   3.558   1.746   2.707  0.0216  0.0672 -0.3372
13538SOL    HW152592   3.632   1.804   2.693 -0.6662  0.6484 -1.6802
13538SOL    HW252593   3.544   1.703   2.623 -1.8644  0.8167 -0.4735
13539SOL     OW52594   7.568   8.064   2.334  0.2422 -0.4137  0.1565
13539SOL    HW152595   7.503   7.998   2.360 -0.4733  0.9573  2.0994
13539SOL    HW252596   7.519   8.124   2.278 -0.0040  0.2593  1.0834
13540SOL     OW52597   4.214   9.104   0.170  0.0864 -0.3649 -0.5476
13540SOL    HW152598   4.290   9.060   0.208  1.3776  2.4011  0.3908
13540SOL    HW252599   4.149   9.104   0.240  0.6647  0.5193  0.0096
13541SOL     OW52600   7.983   9.960   4.834 -0.5921 -0.1721  0.3822
13541SOL    HW152601   7.943   9.887   4.881 -1.5454  0.4401  0.5585
13541SOL    HW252602   8.006   9.924   4.748 -0.5768 -0.8058  0.6487
13542SOL     OW52603   7.709   5.722   0.095 -0.0466  0.5179  0.0972
13542SOL    HW152604   7.724   5.631   0.121 -1.7275  0.2784  0.3630
13542SOL    HW252605   7.797   5.760   0.090  0.6984 -1.1185 -0.0831
13543SOL     OW52606   4.167   7.115   6.236  0.8504 -0.2765 -0.0775
13543SOL    HW152607   4.072   7.126   6.245  0.7885 -0.5691 -0.3366
13543SOL    HW252608   4.177   7.056   6.161  1.2850  1.3916 -1.4169
13544SOL     OW52609   4.783   0.372   8.030  0.4699 -0.0516 -0.2072
13544SOL    HW152610   4.839   0.439   8.070  0.7182 -1.0097  1.1054
13544SOL    HW252611   4.754   0.411   7.947 -0.4005  2.1861  1.0763
13545SOL     OW52612   0.549   2.150   8.455 -0.4264 -0.3676  0.2852
13545SOL    HW152613   0.557   2.062   8.418 -1.4231 -0.0042 -0.8687
13545SOL    HW252614   0.535   2.136   8.548 -0.0204 -1.4031  0.2062
13546SOL     OW52615   2.182   0.603  10.349 -0.0734  0.1078  0.3327
13546SOL    HW152616   2.133   0.522  10.364 -1.5313  1.1690  1.5378
13546SOL    HW252617   2.130   0.650  10.283  0.8083  0.0403 -0.4211
13547SOL     OW52618   5.763   4.907   3.926  0.3583 -0.1371  1.1867
13547SOL    HW152619   5.808   4.970   3.870 -0.6033 -0.7338 -0.3470
13547SOL    HW252620   5.672   4.938   3.928 -0.3388 -1.8726 -0.3419
13548SOL     OW52621   1.383   3.679   7.542 -0.0640  0.4809 -0.3545
13548SOL    HW152622   1.386   3.614   7.612  2.3101  0.0282 -0.7875
13548SOL    HW252623   1.338   3.754   7.580  0.9275  0.1504  1.5756
13549SOL     OW52624   9.623   1.152   8.327 -0.2915 -0.2980  0.3833
13549SOL    HW152625   9.586   1.064   8.329  1.8297 -1.2387  0.8943
13549SOL    HW252626   9.669   1.158   8.244  0.9754 -0.2977  1.0688
13550SOL     OW52627   8.083  10.275   9.914  0.1414 -0.2170 -0.0415
13550SOL    HW152628   8.068  10.341   9.846 -0.3936  0.1774  0.4367
13550SOL    HW252629   8.175  10.286   9.939  0.1820  0.0297 -0.2977
13551SOL     OW52630   8.492   7.064   2.939  0.2974 -0.3748 -0.3587
13551SOL    HW152631   8.470   7.060   3.032 -2.4582  1.2456 -0.8341
13551SOL    HW252632   8.505   7.157   2.921 -1.2651 -0.4159 -1.9637
13552SOL     OW52633   3.165   8.884   5.908  0.1315  0.2774 -0.1474
13552SOL    HW152634   3.114   8.959   5.938  1.9133  0.9769  1.3567
13552SOL    HW252635   3.207   8.850   5.987  2.6526  0.3118 -1.3466
13553SOL     OW52636   3.052   4.598   8.222  0.0577  0.1046 -0.1573
13553SOL    HW152637   3.058   4.676   8.276 -0.5217  2.0828 -2.7255
13553SOL    HW252638   2.958   4.582   8.211  0.1619 -0.3357 -0.4775
13554SOL     OW52639   2.026   4.408   7.810  0.1264 -0.8177 -0.3226
13554SOL    HW152640   1.979   4.437   7.888  1.0372 -0.8257  0.2455
13554SOL    HW252641   1.985   4.325   7.786 -1.5031  0.1617 -1.0670
13555SOL     OW52642   2.475   8.692   1.021  0.1359 -0.3126  0.1518
13555SOL    HW152643   2.456   8.631   1.092  1.6935  1.0781  1.8634
13555SOL    HW252644   2.397   8.689   0.966 -1.1970 -1.3730  1.9651
13556SOL     OW52645   6.178   9.798   6.914 -0.1457 -0.8923  0.1641
13556SOL    HW152646   6.262   9.754   6.898  0.6118 -0.1368  1.8024
13556SOL    HW252647   6.201   9.874   6.968 -1.8112 -0.2545  0.0327
13557SOL     OW52648   6.894   3.276   7.079  0.3367  0.7103  0.3562
13557SOL    HW152649   6.974   3.326   7.066 -0.4213  1.4277 -2.0935
13557SOL    HW252650   6.823   3.339   7.067 -0.6115 -0.3138  0.3377
13558SOL     OW52651   8.737   7.022   4.577  0.0424  0.2607 -0.0425
13558SOL    HW152652   8.749   7.068   4.660 -1.0400 -1.3670  1.0759
13558SOL    HW252653   8.738   7.091   4.511  0.5145  1.6434  1.3546
13559SOL     OW52654   6.203   6.291   5.044 -0.1572 -0.0394  0.3819
13559SOL    HW152655   6.209   6.385   5.063 -0.0381 -0.0967  0.6358
13559SOL    HW252656   6.257   6.279   4.966 -1.2789  0.3301 -0.4818
13560SOL     OW52657   3.406   1.004   8.340 -0.1394 -0.4991 -0.7404
13560SOL    HW152658   3.349   0.945   8.390  1.1025 -2.3441 -1.3872
13560SOL    HW252659   3.398   0.974   8.249  0.0904  0.7255 -1.1819
13561SOL     OW52660   9.288   9.728   9.635 -0.8013  0.4973 -0.0832
13561SOL    HW152661   9.216   9.673   9.666 -2.0899  1.0103 -2.0101
13561SOL    HW252662   9.276   9.812   9.679 -1.2021  0.4864 -0.1755
13562SOL     OW52663   5.442   4.929   8.696  0.8825  0.1451 -0.1875
13562SOL    HW152664   5.382   5.003   8.704  0.5453 -0.2383  1.1096
13562SOL    HW252665   5.463   4.925   8.603 -2.9359 -1.1242 -1.1500
13563SOL     OW52666   1.673   7.244   4.442  0.0013  0.2348  0.2226
13563SOL    HW152667   1.584   7.209   4.442  0.3709 -0.7516  1.3095
13563SOL    HW252668   1.720   7.189   4.379 -0.4210  1.5554 -1.3171
13564SOL     OW52669  10.375   0.467   6.600  0.4096  0.2883  0.0724
13564SOL    HW152670  10.329   0.549   6.613  2.3021  1.3983  0.1137
13564SOL    HW252671  10.419   0.450   6.683  1.6215  0.3024 -0.5406
13565SOL     OW52672   6.650   1.982   6.773  0.4215  0.0177  0.4501
13565SOL    HW152673   6.571   2.025   6.742  1.0077  0.2445 -0.8055
13565SOL    HW252674   6.624   1.891   6.786  0.1645 -0.1199 -0.8787
13566SOL     OW52675   0.234  10.032   6.521  0.0172 -0.4025 -0.0059
13566SOL    HW152676   0.191  10.060   6.440  0.0570  0.8657  0.3942
13566SOL    HW252677   0.173  10.055   6.590 -0.1089 -1.6726  0.3415
13567SOL     OW52678   4.392   0.066   6.384 -0.0384  0.4093 -0.1014
13567SOL    HW152679   4.361  -0.000   6.446  0.5723 -0.5489 -0.7806
13567SOL    HW252680   4.460   0.113   6.432 -0.3871  0.4558  0.3501
13568SOL     OW52681   1.507   8.716   3.012 -0.3565 -0.0870  0.6919
13568SOL    HW152682   1.487   8.780   2.943 -2.2284  0.0030  1.2649
13568SOL    HW252683   1.515   8.633   2.965 -0.2142  0.1990  0.1991
13569SOL     OW52684   5.670   8.664   5.135 -0.8881 -0.1737 -0.1272
13569SOL    HW152685   5.586   8.709   5.136 -0.7474  0.1274  1.8718
13569SOL    HW252686   5.721   8.709   5.068 -2.1082 -0.0110 -0.9844
13570SOL     OW52687   7.331   7.051   1.916  0.0044 -0.5389 -0.3662
13570SOL    HW152688   7.404   7.055   1.854 -0.0830 -1.3186 -0.5337
13570SOL    HW252689   7.258   7.090   1.869  0.2214 -0.0747 -0.3264
13571SOL     OW52690   1.610   1.385   2.470  0.5301 -0.0377 -0.4080
13571SOL    HW152691   1.568   1.398   2.555  0.0080  0.3203 -0.7156
13571SOL    HW252692   1.551   1.326   2.424  0.0455  0.9273 -1.0596
13572SOL     OW52693   1.527   4.103   2.418  0.1923 -0.1705 -0.2744
13572SOL    HW152694   1.494   4.024   2.461  0.4226 -0.9623 -1.5174
13572SOL    HW252695   1.449   4.158   2.407  0.0022 -0.2817  0.4416
13573SOL     OW52696   5.023   0.344   4.299  0.0329  0.7367 -0.4180
13573SOL    HW152697   4.998   0.352   4.391 -1.0333  0.5066 -0.6693
13573SOL    HW252698   4.975   0.416   4.256  1.9471  2.0037 -0.5455
13574SOL     OW52699   0.110   8.887   1.970 -0.1945  0.8781  0.5740
13574SOL    HW152700   0.073   8.811   1.925 -0.5286  1.5117 -0.2446
13574SOL    HW252701   0.037   8.924   2.019 -0.6833  2.0401 -0.9227
13575SOL     OW52702   4.036   0.684   7.820  0.2926  0.1343  0.1625
13575SOL    HW152703   3.957   0.680   7.766 -0.0123  1.7555  0.4334
13575SOL    HW252704   4.101   0.634   7.771 -0.7933 -0.9637 -0.2250
13576SOL     OW52705   0.531   3.982   2.315 -0.0936  0.1330 -0.6675
13576SOL    HW152706   0.621   4.004   2.340  0.2384 -1.8625  0.1558
13576SOL    HW252707   0.477   4.021   2.383  0.1532  1.1073 -1.0112
13577SOL     OW52708   8.190   7.552   7.327 -0.1070  0.1691  0.2858
13577SOL    HW152709   8.104   7.523   7.295  0.4708 -1.1806 -0.1137
13577SOL    HW252710   8.246   7.552   7.249  0.1396  1.6054  0.4332
13578SOL     OW52711   8.074   4.141   8.854  0.5843  0.2239 -0.6786
13578SOL    HW152712   8.110   4.072   8.910  0.2340  0.3551 -0.2896
13578SOL    HW252713   8.015   4.095   8.794  2.1761 -0.1554 -2.0442
13579SOL     OW52714   6.132   3.663   8.156  0.3698  0.4073  0.2017
13579SOL    HW152715   6.125   3.627   8.068 -0.9770  0.6161  0.2073
13579SOL    HW252716   6.145   3.757   8.143  0.9807  0.3311  0.2265
13580SOL     OW52717   8.947   2.382   6.791 -0.2750  0.0333 -0.2602
13580SOL    HW152718   8.948   2.286   6.790  0.7022  0.0118  0.6922
13580SOL    HW252719   8.854   2.404   6.801 -0.7337 -0.7420 -2.3919
13581SOL     OW52720  10.017   2.875   1.843  0.1028 -0.2206 -0.4204
13581SOL    HW152721   9.996   2.823   1.765 -1.0269 -0.8912  0.3011
13581SOL    HW252722  10.096   2.834   1.878 -0.2187 -0.8518 -0.4088
13582SOL     OW52723   5.259   5.974   8.976 -0.2796  0.0596  0.2505
13582SOL    HW152724   5.263   6.043   9.042  1.7143  0.1862  0.0534
13582SOL    HW252725   5.308   5.902   9.014  1.6185  0.4170 -1.3440
13583SOL     OW52726   2.689   7.037   2.388  0.0324 -0.7015  0.1681
13583SOL    HW152727   2.601   7.038   2.424  0.1045 -0.4588  0.3357
13583SOL    HW252728   2.731   7.116   2.422  0.2234 -0.6682 -0.1370
13584SOL     OW52729   2.483   9.626   2.928  0.2144 -0.5234 -0.1149
13584SOL    HW152730   2.473   9.532   2.916  1.6986 -0.7611  0.3115
13584SOL    HW252731   2.507   9.659   2.841 -0.6974 -0.4670 -0.3526
13585SOL     OW52732   1.133   6.008   6.222  0.4769  0.8572  0.1610
13585SOL    HW152733   1.120   6.103   6.221 -0.2825  0.7587  0.4759
13585SOL    HW252734   1.129   5.984   6.314  0.7395  0.5231  0.0860
13586SOL     OW52735   6.152   6.679   4.821  0.6311 -0.1362 -0.1868
13586SOL    HW152736   6.225   6.728   4.858  0.0113  0.8261 -0.2068
13586SOL    HW252737   6.114   6.632   4.896  0.9108 -0.1814 -0.0720
13587SOL     OW52738   2.704   9.004   1.765  0.1243  0.2455  0.0271
13587SOL    HW152739   2.649   8.981   1.690  1.5415 -0.9821 -0.6640
13587SOL    HW252740   2.697   8.929   1.824 -1.5448  1.4859  1.5372
13588SOL     OW52741   0.899   6.498   5.136  0.5382  0.1018 -0.4146
13588SOL    HW152742   0.899   6.580   5.186  1.1767  0.1920 -0.5557
13588SOL    HW252743   0.932   6.433   5.198  0.3592  0.0160 -0.4088
13589SOL     OW52744   1.781   4.724   0.819 -0.2986 -0.8642 -0.3252
13589SOL    HW152745   1.792   4.736   0.724 -2.8975  1.2269 -0.4636
13589SOL    HW252746   1.704   4.669   0.827 -0.2540 -0.8029  0.5785
13590SOL     OW52747   0.394   0.017   1.627  0.4552  0.0905 -0.3825
13590SOL    HW152748   0.358  -0.071   1.619 -0.9357  0.6527 -0.4609
13590SOL    HW252749   0.319   0.076   1.619  1.1783  1.2613  0.8782
13591SOL     OW52750   8.548   9.012   3.453  0.2578 -0.0047 -0.2908
13591SOL    HW152751   8.498   9.035   3.375 -0.1548  2.1723  0.5435
13591SOL    HW252752   8.484   9.009   3.524  0.8800 -0.1070  0.2828
13592SOL     OW52753   5.332  10.347   1.342  0.3715 -0.2496 -0.4257
13592SOL    HW152754   5.414  10.352   1.293  0.7307  1.1711  0.2559
13592SOL    HW252755   5.357  10.325   1.431  0.5036  3.6223  0.6752
13593SOL     OW52756   8.408   8.629   8.698 -0.2522 -0.8034 -0.1027
13593SOL    HW152757   8.471   8.594   8.761 -0.3793 -0.4378  0.2253
13593SOL    HW252758   8.344   8.559   8.687 -1.0185 -0.3288  1.2588
13594SOL     OW52759   6.064   7.424   8.020  0.8939 -0.5338 -0.0916
13594SOL    HW152760   6.040   7.371   7.944 -2.0188 -0.4889  0.6751
13594SOL    HW252761   6.070   7.513   7.986 -1.0800 -0.4047 -0.2584
13595SOL     OW52762   0.080   7.877   6.639  0.1127  0.7315 -0.7593
13595SOL    HW152763  -0.014   7.897   6.631  0.0078  0.0383 -1.3478
13595SOL    HW252764   0.119   7.957   6.673 -0.7132  0.9967 -0.4177
13596SOL     OW52765   7.955   6.986   2.840 -0.0452 -0.4730 -0.4047
13596SOL    HW152766   7.930   7.027   2.922  2.6381 -1.1979  0.8947
13596SOL    HW252767   7.952   7.057   2.775  1.6392  1.1439  1.1721
13597SOL     OW52768   7.073   8.965   2.659  0.1868  0.4281  0.5624
13597SOL    HW152769   7.087   8.870   2.661 -1.1615  0.1692 -0.8582
13597SOL    HW252770   7.155   9.000   2.623  0.9730 -0.1000  1.7725
13598SOL     OW52771   8.749   9.080   3.862  0.5197  0.2841 -0.3253
13598SOL    HW152772   8.824   9.127   3.825  0.0624  0.6923 -0.7559
13598SOL    HW252773   8.686   9.149   3.883 -0.2544 -0.1345 -1.1828
13599SOL     OW52774   5.212   9.865   2.261 -0.1872  0.3264 -0.6974
13599SOL    HW152775   5.156   9.911   2.324  1.6811  0.5835  0.8726
13599SOL    HW252776   5.239   9.933   2.199 -1.9920  0.0843 -1.8065
13600SOL     OW52777   4.428   2.060   7.364 -0.3297 -0.1306 -0.2136
13600SOL    HW152778   4.519   2.042   7.340 -0.4808  0.5107 -1.3418
13600SOL    HW252779   4.434   2.122   7.436  0.1480  1.5617 -1.6495
13601SOL     OW52780   0.200   1.474   9.268  0.3391 -0.1719 -0.3106
13601SOL    HW152781   0.268   1.412   9.296 -0.5834 -0.9737  0.2305
13601SOL    HW252782   0.128   1.459   9.329  0.1084  1.4977 -0.1348
13602SOL     OW52783   9.878   7.822   0.707 -1.0079  0.4210  0.1120
13602SOL    HW152784   9.906   7.777   0.627 -0.3091  0.2971  0.4266
13602SOL    HW252785   9.953   7.875   0.733 -0.9938 -0.0361  1.0418
13603SOL     OW52786   2.783   4.736   5.446  0.3106 -0.3485 -0.5669
13603SOL    HW152787   2.757   4.683   5.522  1.0420 -1.3519 -0.9976
13603SOL    HW252788   2.779   4.675   5.372  2.1386 -0.0780 -0.9253
13604SOL     OW52789   0.604   2.240   7.570  0.1511  0.3817  0.1459
13604SOL    HW152790   0.694   2.270   7.584 -0.6075  2.6467  0.5690
13604SOL    HW252791   0.583   2.191   7.649  1.5138 -1.6363 -0.6686
13605SOL     OW52792   1.794   4.350   9.376 -0.4351 -0.1976 -0.2810
13605SOL    HW152793   1.822   4.394   9.456  0.2646  0.6226 -0.9607
13605SOL    HW252794   1.825   4.406   9.305  2.4412 -2.8269 -1.2881
13606SOL     OW52795   0.860   2.081   3.798  0.2767  0.5728 -0.3781
13606SOL    HW152796   0.821   2.132   3.727 -1.9353 -0.1315  0.2354
13606SOL    HW252797   0.803   2.098   3.873 -1.0009 -3.1915 -0.3004
13607SOL     OW52798   0.623   9.108   5.009 -0.0524  0.1864 -0.0067
13607SOL    HW152799   0.610   9.154   4.926  1.1082  0.5184 -0.0207
13607SOL    HW252800   0.706   9.061   4.998 -1.0655 -1.7303  0.0988
13608SOL     OW52801   6.293   2.339   6.831  0.2819  0.0998 -0.7571
13608SOL    HW152802   6.222   2.387   6.789  0.4135  0.6123 -0.4066
13608SOL    HW252803   6.359   2.330   6.762 -0.4949 -1.2173 -1.3635
13609SOL     OW52804   3.864   8.395   1.989  0.4214 -0.0824  0.1492
13609SOL    HW152805   3.918   8.365   2.062  0.7049  0.5746  0.2218
13609SOL    HW252806   3.774   8.383   2.018  0.5131 -1.4550 -0.0817
13610SOL     OW52807   2.944   9.282   9.485 -0.6504  0.5246  0.5718
13610SOL    HW152808   2.903   9.275   9.398  1.6156 -0.0288 -0.5318
13610SOL    HW252809   3.035   9.256   9.470 -0.1532  0.6101  3.1098
13611SOL     OW52810   5.751   0.475   6.113 -0.0344  0.1269  0.2423
13611SOL    HW152811   5.672   0.431   6.081 -0.0499  0.9037 -0.8318
13611SOL    HW252812   5.821   0.411   6.100 -0.3019 -0.1442  0.1239
13612SOL     OW52813   8.701   0.688   9.991 -0.2395  0.4780  0.3291
13612SOL    HW152814   8.736   0.612   9.944  1.4202  0.7496  1.0370
13612SOL    HW252815   8.739   0.680  10.079  0.1856  2.2634  0.3323
13613SOL     OW52816   5.767   8.206   4.457  0.2361  0.0577  0.3523
13613SOL    HW152817   5.831   8.222   4.526  1.5188 -1.2836 -0.4636
13613SOL    HW252818   5.754   8.291   4.415  1.1749  0.4309  0.8072
13614SOL     OW52819   2.898   1.383   4.101 -0.3532 -0.4392 -0.0457
13614SOL    HW152820   2.813   1.423   4.119  0.1306 -0.0204  1.4836
13614SOL    HW252821   2.886   1.337   4.018 -1.2430  1.9556 -1.3291
13615SOL     OW52822   8.624   5.561   2.092 -0.6146 -0.6771  0.2001
13615SOL    HW152823   8.624   5.551   2.187  0.9611  0.5452  0.3843
13615SOL    HW252824   8.601   5.653   2.078 -0.2009 -0.6787 -0.5548
13616SOL     OW52825   6.787   0.915   2.641 -0.4500 -0.0545  0.0631
13616SOL    HW152826   6.870   0.868   2.643 -0.3568  0.0474 -1.1163
13616SOL    HW252827   6.740   0.881   2.718  0.7614  0.0816  0.9009
13617SOL     OW52828   7.407   7.743   4.558  0.0950 -0.7171 -0.1493
13617SOL    HW152829   7.457   7.820   4.586 -0.9471 -0.3169  0.6654
13617SOL    HW252830   7.355   7.719   4.634 -0.0304 -1.8900 -0.5856
13618SOL     OW52831   3.332   0.353   4.816  0.5765 -0.6581  0.3978
13618SOL    HW152832   3.238   0.335   4.813  0.2692  0.8863 -0.8438
13618SOL    HW252833   3.339   0.434   4.866  1.1363 -0.2490 -0.3273
13619SOL     OW52834   2.189   0.811   6.458  0.4169  0.7686 -0.5052
13619SOL    HW152835   2.214   0.898   6.427  0.3278  1.2021  0.5868
13619SOL    HW252836   2.142   0.827   6.540 -0.1422 -0.2730 -0.5987
13620SOL     OW52837   5.282  10.052   3.282  0.2891 -0.4729  0.5127
13620SOL    HW152838   5.350   9.994   3.316 -2.1833 -2.8907  1.7810
13620SOL    HW252839   5.264  10.112   3.355  0.8198 -0.0074  0.2719
13621SOL     OW52840   5.865   5.605   7.816 -0.2274  0.5768  0.7136
13621SOL    HW152841   5.815   5.675   7.858  1.1426  0.9029  1.8455
13621SOL    HW252842   5.854   5.621   7.722 -0.0751  2.2095  0.9512
13622SOL     OW52843   6.642   1.663   4.726  0.5440  0.5937 -0.3960
13622SOL    HW152844   6.558   1.625   4.699 -1.6828  2.7632  2.7966
13622SOL    HW252845   6.695   1.588   4.754 -1.8692 -0.6169  1.2536
13623SOL     OW52846   3.832   5.350   9.725  0.4898  0.5732  0.5604
13623SOL    HW152847   3.784   5.321   9.648  3.5823 -2.9958 -0.3255
13623SOL    HW252848   3.858   5.440   9.706  0.3170  0.1082 -2.1647
13624SOL     OW52849   0.525   1.167   5.270  0.5497 -0.3173  1.0965
13624SOL    HW152850   0.555   1.099   5.210 -2.0839 -0.4112 -0.2701
13624SOL    HW252851   0.465   1.122   5.329  1.0964  0.2783  2.1267
13625SOL     OW52852   3.957   7.438   8.677  0.0718 -0.3563 -0.0732
13625SOL    HW152853   3.879   7.387   8.695 -0.6872  0.7319 -0.1788
13625SOL    HW252854   3.941   7.476   8.591  0.9033 -0.4559 -0.2793
13626SOL     OW52855   9.039   5.575   0.039 -0.0588  0.0168 -0.1704
13626SOL    HW152856   9.101   5.524   0.090 -1.9847 -1.7005  0.6221
13626SOL    HW252857   8.995   5.510  -0.016 -0.6604  1.2671 -1.2246
13627SOL     OW52858   2.792   5.009   8.726 -0.6798 -0.0861  0.0249
13627SOL    HW152859   2.769   5.073   8.793 -0.5575 -0.5299  0.4984
13627SOL    HW252860   2.885   5.024   8.711 -0.7504  0.1446 -0.1904
13628SOL     OW52861   9.561   2.345   2.493 -0.1183  0.4750 -0.3630
13628SOL    HW152862   9.597   2.374   2.409  2.0983 -0.2875  0.2433
13628SOL    HW252863   9.622   2.278   2.523 -1.2735  0.1898  1.5167
13629SOL     OW52864   8.234   0.246   3.769  0.3068  0.0228 -0.2685
13629SOL    HW152865   8.199   0.334   3.781  1.7480  0.4467  1.4230
13629SOL    HW252866   8.306   0.241   3.833  0.0331 -2.5030 -0.0685
13630SOL     OW52867   8.125   4.400   8.905 -0.4234  0.1241 -0.3855
13630SOL    HW152868   8.133   4.305   8.892 -0.4667  0.1678 -0.7373
13630SOL    HW252869   8.200   4.437   8.859  0.2931  0.1813  0.8054
13631SOL     OW52870   3.048   9.694   3.729 -0.6802 -0.1708  0.2326
13631SOL    HW152871   2.977   9.660   3.782  0.6043  0.5378  2.5277
13631SOL    HW252872   3.116   9.627   3.733  0.2212  0.7541  1.2680
13632SOL     OW52873   3.315   4.752   1.076 -0.0961  0.6159  0.6042
13632SOL    HW152874   3.253   4.776   1.006  0.5281 -2.9729 -1.4752
13632SOL    HW252875   3.388   4.812   1.065 -0.1581  0.3727 -1.7480
13633SOL     OW52876   1.300   4.073   3.537 -0.3607 -0.2634  0.2163
13633SOL    HW152877   1.346   4.036   3.462 -0.2456  0.7969 -0.2591
13633SOL    HW252878   1.302   4.004   3.603 -1.5142 -1.6911 -1.1447
13634SOL     OW52879   2.074   9.425   5.296  0.2212 -0.3220  0.3344
13634SOL    HW152880   2.123   9.347   5.324 -0.9067 -1.5209 -0.9061
13634SOL    HW252881   2.140   9.495   5.293  1.3099 -1.2690  1.2163
13635SOL     OW52882   3.510   6.923   8.136 -0.3436 -0.4248 -0.2233
13635SOL    HW152883   3.434   6.980   8.148  0.1321  0.5972 -1.7102
13635SOL    HW252884   3.581   6.983   8.111  1.1984 -1.2526  1.8791
13636SOL     OW52885   8.376   9.358   6.639  0.5278  0.0989 -0.3431
13636SOL    HW152886   8.446   9.304   6.676 -0.7763  0.2132  2.5355
13636SOL    HW252887   8.406   9.448   6.653 -1.2297  0.2909  3.7052
13637SOL     OW52888   9.645   4.017   8.974  0.6249 -0.1144  0.1417
13637SOL    HW152889   9.561   4.059   8.960  0.5027 -0.6497 -0.8124
13637SOL    HW252890   9.699   4.084   9.016  0.1500  0.6804 -0.4957
13638SOL     OW52891   7.872   4.356   5.195 -0.2413  0.5256  0.6376
13638SOL    HW152892   7.968   4.350   5.201 -0.3495 -0.6501  1.5906
13638SOL    HW252893   7.850   4.436   5.241  0.2193  0.2318  1.3842
13639SOL     OW52894   0.048   1.913   5.286  0.0215 -0.2278  0.1797
13639SOL    HW152895   0.012   1.896   5.199 -0.2830 -2.8765  0.7360
13639SOL    HW252896   0.105   1.838   5.304  0.6519  0.6179  1.9818
13640SOL     OW52897   2.130   7.584   3.291 -0.0204  0.3730  0.0681
13640SOL    HW152898   2.192   7.646   3.330 -1.5497  0.0588  3.3559
13640SOL    HW252899   2.185   7.517   3.250  1.6968  2.0084 -0.4268
13641SOL     OW52900   3.287   9.198   8.151  0.2597  0.1248  0.6132
13641SOL    HW152901   3.240   9.175   8.230 -0.1374 -2.5810 -0.3198
13641SOL    HW252902   3.242   9.276   8.118 -0.1435  0.7394  2.4819
13642SOL     OW52903   7.350   4.537   6.608 -0.1771  0.2290  0.1440
13642SOL    HW152904   7.419   4.529   6.675 -0.7699 -0.2625  0.7066
13642SOL    HW252905   7.316   4.448   6.599  1.2647 -0.1786 -2.3104
13643SOL     OW52906   5.041   0.133   6.724  0.0183  0.1744 -0.2002
13643SOL    HW152907   5.116   0.127   6.665  0.2865 -0.2306  0.1753
13643SOL    HW252908   5.020   0.042   6.745 -0.5108  0.2896 -0.2188
13644SOL     OW52909   5.703   1.119   3.404  0.2132 -0.0121 -0.1674
13644SOL    HW152910   5.782   1.138   3.453  0.9335 -2.2600 -0.3540
13644SOL    HW252911   5.645   1.077   3.467 -0.3940  0.5919 -0.3099
13645SOL     OW52912   1.426   4.965   9.830  0.4490  0.1480  0.5019
13645SOL    HW152913   1.367   4.896   9.861 -2.4973  1.6542 -1.2980
13645SOL    HW252914   1.472   4.925   9.756 -2.1462  0.2906 -1.3366
13646SOL     OW52915   6.103   6.119   3.263 -0.3037  0.0625  0.3871
13646SOL    HW152916   6.108   6.160   3.176  0.5445  0.3642  0.5636
13646SOL    HW252917   6.171   6.051   3.261  0.7708  1.0609  1.3011
13647SOL     OW52918   3.718   9.139   6.793 -0.3085  0.4411 -0.1147
13647SOL    HW152919   3.702   9.064   6.735 -0.3561 -0.3240  0.8530
13647SOL    HW252920   3.810   9.130   6.819 -0.5575  0.1863  0.7166
13648SOL     OW52921   2.699   7.783   8.167 -0.2869  0.2998 -1.0945
13648SOL    HW152922   2.760   7.715   8.139  0.5105  1.8090 -3.4206
13648SOL    HW252923   2.755   7.851   8.205 -0.6545  1.0882 -1.9251
13649SOL     OW52924   8.361   1.738   8.874 -0.3409  0.1411  0.0687
13649SOL    HW152925   8.445   1.717   8.836 -0.7755 -0.5644 -0.5172
13649SOL    HW252926   8.304   1.757   8.799 -0.9037 -0.1501  0.4128
13650SOL     OW52927   5.211   0.126   5.767  0.3975  0.0571  0.6725
13650SOL    HW152928   5.174   0.086   5.846 -1.6954  0.3182 -0.0890
13650SOL    HW252929   5.214   0.219   5.787 -1.5063  0.3049  0.0054
13651SOL     OW52930   0.805   2.355   7.020  0.2758  0.0530  0.2994
13651SOL    HW152931   0.791   2.264   6.991 -1.3998  0.7139 -1.1785
13651SOL    HW252932   0.759   2.361   7.103 -1.7444  0.1064 -0.7466
13652SOL     OW52933   8.860   7.242   5.501 -0.1648 -0.5556  0.1278
13652SOL    HW152934   8.918   7.167   5.491  0.8389  0.1320  0.6016
13652SOL    HW252935   8.882   7.299   5.428  0.2249  0.0007  0.6694
13653SOL     OW52936   9.436   2.156   8.947  0.1811  0.3512  0.5599
13653SOL    HW152937   9.474   2.079   8.904  0.6176  0.7231  0.2621
13653SOL    HW252938   9.416   2.126   9.035  1.7480  0.2873  0.9337
13654SOL     OW52939   0.964   4.131   2.639 -0.6461 -0.0491 -0.6128
13654SOL    HW152940   0.950   4.208   2.695  0.3028  0.3197 -0.8553
13654SOL    HW252941   1.059   4.119   2.639 -0.6243 -0.0487 -2.1198
13655SOL     OW52942   7.911   0.971   5.195 -0.0180 -0.2828 -0.0666
13655SOL    HW152943   7.922   1.036   5.125  1.6029 -0.1517  0.2697
13655SOL    HW252944   7.894   0.889   5.150 -2.6506  0.3839 -0.4990
13656SOL     OW52945   6.360   2.390   0.062 -0.0000 -0.4872 -0.2093
13656SOL    HW152946   6.300   2.355  -0.004  0.2773  1.0854 -1.3608
13656SOL    HW252947   6.311   2.460   0.105  0.3349 -0.5100  0.2153
13657SOL     OW52948   3.857   0.934   4.868 -0.3007 -0.2126  0.4449
13657SOL    HW152949   3.932   0.925   4.927  0.3861 -2.3392 -0.6438
13657SOL    HW252950   3.791   0.979   4.920  1.7916  2.0842  1.3352
13658SOL     OW52951   9.072   8.571   5.853 -1.0830 -0.4814 -0.3877
13658SOL    HW152952   9.157   8.601   5.823  0.0826 -0.3756  2.6369
13658SOL    HW252953   9.012   8.642   5.830 -0.2234 -0.2072 -1.8652
13659SOL     OW52954   7.219   1.488   1.108 -0.3374 -0.2956  0.0907
13659SOL    HW152955   7.307   1.450   1.112 -1.0277 -1.9096  0.9525
13659SOL    HW252956   7.203   1.523   1.195 -0.6389 -0.2606  0.0245
13660SOL     OW52957   2.447   4.162   4.382  0.0807 -0.5091 -0.1806
13660SOL    HW152958   2.355   4.138   4.385  0.1149 -1.0621 -2.1770
13660SOL    HW252959   2.492   4.088   4.423 -0.2176 -1.3561 -1.3418
13661SOL     OW52960  10.048   7.545   5.771 -0.4056  0.2393 -0.0090
13661SOL    HW152961  10.032   7.521   5.680 -0.4164  1.0758 -0.2322
13661SOL    HW252962  10.116   7.484   5.800 -0.6646 -0.2718 -0.4607
13662SOL     OW52963   4.908   4.281   8.333  0.1005 -0.0344  0.5080
13662SOL    HW152964   4.880   4.288   8.425 -0.8765  0.3209  0.1997
13662SOL    HW252965   4.973   4.350   8.322  0.2894 -0.1397  0.9614
13663SOL     OW52966   5.714   3.372   3.386 -0.4133  0.1515  0.2490
13663SOL    HW152967   5.802   3.340   3.368  0.2346  1.8305  0.3177
13663SOL    HW252968   5.724   3.425   3.466 -1.7384 -0.7019  1.0165
13664SOL     OW52969   7.646   0.893  10.378  0.1451 -0.0637  0.7624
13664SOL    HW152970   7.593   0.951  10.433  0.4323  3.0446 -1.8568
13664SOL    HW252971   7.593   0.882  10.298  2.3753  1.2900 -1.0143
13665SOL     OW52972   0.879   9.192   2.296  0.8931 -0.1227  0.2550
13665SOL    HW152973   0.920   9.125   2.241 -0.8288  0.7470 -2.2787
13665SOL    HW252974   0.854   9.261   2.234 -1.2167  0.9231  2.1459
13666SOL     OW52975   7.814   8.228   7.826  0.0868  0.0741  0.1867
13666SOL    HW152976   7.754   8.283   7.775 -0.3511 -0.4337  0.1481
13666SOL    HW252977   7.857   8.172   7.762 -0.4709 -0.5715  0.3630
13667SOL     OW52978   8.452   2.915   0.191 -0.2695  0.2870  0.1822
13667SOL    HW152979   8.411   2.841   0.236 -2.4395  0.0667 -1.9347
13667SOL    HW252980   8.469   2.882   0.102  3.6126  0.7564  0.5747
13668SOL     OW52981   1.757   3.484   3.847 -0.2371  0.0780  0.2965
13668SOL    HW152982   1.708   3.561   3.877  1.2360  0.6414  1.4318
13668SOL    HW252983   1.774   3.501   3.755 -4.5121 -1.4763 -0.9916
13669SOL     OW52984   2.583   3.263   3.795  0.2408  0.1224  0.2176
13669SOL    HW152985   2.581   3.240   3.702  0.9201 -2.3487  0.7554
13669SOL    HW252986   2.510   3.216   3.834 -0.2350  1.3853  0.9334
13670SOL     OW52987   6.313   4.537   2.770  0.0162  0.7327 -0.2499
13670SOL    HW152988   6.403   4.563   2.789  0.3323  0.2117 -1.0317
13670SOL    HW252989   6.320   4.471   2.701 -1.0094  1.3032 -0.9327
13671SOL     OW52990   5.210   4.881   7.903 -0.7132  0.0165  0.2237
13671SOL    HW152991   5.174   4.799   7.869 -0.3399  0.0308 -0.2150
13671SOL    HW252992   5.271   4.854   7.972 -0.1582 -0.1084 -0.3107
13672SOL     OW52993   1.038   4.563   7.831  0.2676 -0.2423  0.1358
13672SOL    HW152994   0.960   4.520   7.794  0.3926  0.7193 -1.3070
13672SOL    HW252995   1.035   4.540   7.924 -1.4022 -0.7433  0.0047
13673SOL     OW52996   1.489   2.735   2.665 -0.3668 -0.5694  0.8079
13673SOL    HW152997   1.567   2.687   2.636 -0.8521 -0.1826 -1.3421
13673SOL    HW252998   1.453   2.772   2.584 -1.1385  1.7548  2.1331
13674SOL     OW52999   2.717   0.234   6.562 -0.1225  0.1043  0.4945
13674SOL    HW153000   2.721   0.302   6.496  0.0702  0.1749  0.5769
13674SOL    HW253001   2.781   0.262   6.629 -0.8279  0.4047  1.0580
13675SOL     OW53002   4.986   7.291   3.916 -0.4030  0.7507  0.3435
13675SOL    HW153003   5.006   7.210   3.963 -0.4964  0.1874 -0.5511
13675SOL    HW253004   5.057   7.299   3.852 -0.6318  1.1413  0.1388
13676SOL     OW53005   4.393   1.687   2.895  0.3064 -0.1065 -0.0237
13676SOL    HW153006   4.305   1.725   2.887  0.2222 -0.3394 -0.2213
13676SOL    HW253007   4.378   1.592   2.894  0.4233 -0.1685  1.3861
13677SOL     OW53008   4.955   2.592   2.578  0.2662  0.1306  0.2359
13677SOL    HW153009   5.028   2.555   2.627  0.2128 -0.5581 -0.2070
13677SOL    HW253010   4.916   2.518   2.532  0.9384  0.9204 -1.6796
13678SOL     OW53011   2.242   5.261   8.288 -0.2746  0.4926 -0.4670
13678SOL    HW153012   2.215   5.347   8.318 -0.4538 -0.4619  2.4568
13678SOL    HW253013   2.161   5.218   8.263 -0.6572  0.1492  1.1944
13679SOL     OW53014   3.813   8.428   5.219  0.5415 -1.0369 -0.3132
13679SOL    HW153015   3.730   8.458   5.256  1.0637  0.2548 -0.1328
13679SOL    HW253016   3.789   8.388   5.136 -0.1344  0.8166 -1.0673
13680SOL     OW53017   1.411   2.771   4.935 -0.2723  0.6294  0.2021
13680SOL    HW153018   1.371   2.700   4.884 -0.2135  2.0311 -1.9458
13680SOL    HW253019   1.459   2.727   5.004 -4.2435 -1.2325  2.0999
13681SOL     OW53020   0.590   9.804   1.713 -0.2981 -0.0796 -0.4871
13681SOL    HW153021   0.563   9.764   1.631  1.8135  1.2758 -1.9458
13681SOL    HW253022   0.664   9.751   1.743  0.6215  0.9494 -0.8812
13682SOL     OW53023   4.602   1.548   8.272 -0.0681  0.2447  0.1342
13682SOL    HW153024   4.622   1.641   8.266  0.6594  0.0888 -0.0019
13682SOL    HW253025   4.687   1.507   8.290 -0.0511 -0.5714 -1.6209
13683SOL     OW53026   3.634   9.493   0.523  0.3858  0.2149  0.8555
13683SOL    HW153027   3.672   9.580   0.530  0.8352 -0.0729  2.6297
13683SOL    HW253028   3.585   9.482   0.605 -0.6517 -0.7475  0.1373
13684SOL     OW53029   4.723   0.574   4.744 -0.1890  0.5080 -0.1385
13684SOL    HW153030   4.711   0.653   4.797 -1.2166  1.1540 -1.2693
13684SOL    HW253031   4.634   0.552   4.716  0.1990 -0.5543 -0.5503
13685SOL     OW53032  10.123   6.046   9.745 -0.9313  0.2479  0.2142
13685SOL    HW153033  10.100   5.967   9.793 -1.8238  0.7371  0.6215
13685SOL    HW253034  10.076   6.038   9.662 -0.6955  0.1599  0.0902
13686SOL     OW53035   1.653   0.243  10.226 -0.2924  0.8521 -0.1921
13686SOL    HW153036   1.712   0.318  10.235  0.3406  0.1199  2.5716
13686SOL    HW253037   1.571   0.281  10.196  1.0424  2.0939 -2.6482
13687SOL     OW53038   8.337   7.974   0.154  0.4649 -0.1043  0.0466
13687SOL    HW153039   8.262   8.002   0.207  0.1614  0.0338 -0.4536
13687SOL    HW253040   8.388   8.054   0.139  0.1502 -0.0045 -0.5037
13688SOL     OW53041  10.277   2.001   0.709 -0.1528 -0.1763 -0.2109
13688SOL    HW153042  10.231   1.927   0.749  0.1957 -1.2543 -1.7264
13688SOL    HW253043  10.359   1.964   0.676  0.1832  0.9540 -0.7112
13689SOL     OW53044   8.144   3.281   4.859  0.0970  0.2143 -0.3475
13689SOL    HW153045   8.146   3.280   4.763 -0.1851 -1.4173 -0.3648
13689SOL    HW253046   8.193   3.359   4.883 -0.6945  1.2009 -1.8314
13690SOL     OW53047   6.910   8.653   3.177  0.4749 -0.5822 -0.0869
13690SOL    HW153048   6.920   8.645   3.272  0.0971  0.4357  0.0459
13690SOL    HW253049   6.825   8.613   3.159  0.7112 -1.1101 -0.0490
13691SOL     OW53050   0.960   6.292   6.949  0.2760  0.1177  0.1256
13691SOL    HW153051   0.955   6.385   6.926  0.6906  0.4818  1.3839
13691SOL    HW253052   1.037   6.259   6.902  0.6203  0.6212  0.3255
13692SOL     OW53053   1.684   1.369   7.368  0.0695  0.2551 -0.3734
13692SOL    HW153054   1.744   1.425   7.320 -0.8670  0.3570 -1.4649
13692SOL    HW253055   1.599   1.382   7.326 -0.2699 -1.5987 -0.3439
13693SOL     OW53056   2.843   4.777   1.032 -0.4086 -0.4674  0.0796
13693SOL    HW153057   2.930   4.790   0.994 -0.3184 -0.4133  0.3028
13693SOL    HW253058   2.860   4.728   1.113 -0.7501 -2.2956 -0.8901
13694SOL     OW53059   5.250   0.480   2.545 -0.4939  0.1843 -0.4308
13694SOL    HW153060   5.339   0.499   2.515 -1.2603  2.2464 -1.6511
13694SOL    HW253061   5.241   0.385   2.537  1.2947  0.0491 -1.1898
13695SOL     OW53062   5.562   5.974   9.685 -0.2977 -0.0590  0.2889
13695SOL    HW153063   5.490   5.998   9.627 -0.5090 -1.7068 -0.1719
13695SOL    HW253064   5.557   5.879   9.692  0.6311 -0.0323  1.8478
13696SOL     OW53065   8.768   1.428   4.153 -0.0046 -0.1925 -0.0259
13696SOL    HW153066   8.839   1.382   4.109 -0.7126 -0.0557 -1.3707
13696SOL    HW253067   8.688   1.388   4.118 -0.6212  1.1829 -0.2716
13697SOL     OW53068   1.940   7.614   3.997 -0.5009  0.5268 -0.3380
13697SOL    HW153069   1.884   7.554   3.949  0.1882 -1.1709  0.8664
13697SOL    HW253070   1.881   7.684   4.026 -1.4711  0.0829 -1.1813
13698SOL     OW53071   7.852   9.812   8.983 -0.4899  0.2992  0.2389
13698SOL    HW153072   7.791   9.848   8.919 -1.3562  0.0115  0.8841
13698SOL    HW253073   7.908   9.886   9.007 -0.3043  0.4638 -0.6619
13699SOL     OW53074   5.979  10.246   3.845 -0.0090 -0.0576  1.0078
13699SOL    HW153075   5.982  10.325   3.791  1.4124  0.7089  2.1370
13699SOL    HW253076   5.944  10.178   3.787 -1.6714  1.4651  0.1298
13700SOL     OW53077   7.499   0.108   7.477  0.2043  0.0383  0.6769
13700SOL    HW153078   7.523   0.032   7.424  0.9758  0.0453  0.9963
13700SOL    HW253079   7.433   0.154   7.426  0.1432 -0.5431  0.2230
13701SOL     OW53080   5.795   0.199   5.013  0.1829 -0.2011 -0.1675
13701SOL    HW153081   5.746   0.263   4.962  1.5210 -0.5542 -2.0039
13701SOL    HW253082   5.735   0.126   5.025  0.0315 -0.4029 -1.8969
13702SOL     OW53083   8.720   0.124   7.338  0.1014 -0.2478 -0.0559
13702SOL    HW153084   8.718   0.172   7.420 -0.3807 -0.7782  0.2492
13702SOL    HW253085   8.781   0.053   7.353 -0.3968 -0.6655  0.0315
13703SOL     OW53086   5.987   1.026   6.352  0.2848 -0.2984  0.4053
13703SOL    HW153087   5.955   0.994   6.267  1.4031  0.4012 -0.3040
13703SOL    HW253088   5.957   0.961   6.415  0.0002 -1.1770 -0.6080
13704SOL     OW53089   3.720   4.672  10.166 -0.1268  0.0263 -0.0397
13704SOL    HW153090   3.683   4.714  10.244  0.7308  0.3800  0.1884
13704SOL    HW253091   3.663   4.597  10.150  0.2494 -0.6338  1.5250
13705SOL     OW53092   6.648   2.968   3.869 -0.7872  0.1995  0.5717
13705SOL    HW153093   6.685   3.056   3.869 -0.4860  0.0764  0.7852
13705SOL    HW253094   6.579   2.971   3.934 -2.6607  1.0343 -1.3246
13706SOL     OW53095   0.015   1.461   5.619  0.2544 -0.5489  0.2527
13706SOL    HW153096   0.015   1.551   5.653 -0.5408 -0.4912  0.1056
13706SOL    HW253097   0.078   1.463   5.546  0.9342 -0.3431  0.8292
13707SOL     OW53098   8.722   1.690   4.285 -0.0773  0.1338  0.2491
13707SOL    HW153099   8.735   1.597   4.305 -0.0901 -0.0957 -0.7535
13707SOL    HW253100   8.681   1.691   4.199 -1.0546  1.0536  0.6979
13708SOL     OW53101   0.128   1.979   4.159 -0.0642  0.3133 -0.1346
13708SOL    HW153102   0.048   1.935   4.185 -0.2296  0.4172 -0.4753
13708SOL    HW253103   0.164   1.925   4.089 -0.7039  1.1631 -1.1386
13709SOL     OW53104   2.113   2.832   7.774  0.6292  0.0872  0.6890
13709SOL    HW153105   2.169   2.901   7.808  0.8910 -0.4619  1.3913
13709SOL    HW253106   2.130   2.757   7.831 -0.3285 -0.2816  0.5061
13710SOL     OW53107   6.362   9.592   6.551 -0.0555  0.0449  0.2953
13710SOL    HW153108   6.277   9.565   6.585  0.0129 -0.1618  0.2989
13710SOL    HW253109   6.341   9.638   6.469  0.0215 -2.9510 -1.5564
13711SOL     OW53110   5.393   7.559   5.726  0.0424  0.5222 -0.5330
13711SOL    HW153111   5.310   7.570   5.680 -1.1003 -1.6485  0.8551
13711SOL    HW253112   5.431   7.480   5.688  1.5995  1.5784 -1.2568
13712SOL     OW53113   1.746   5.266   9.976  0.4088 -0.0910  0.6132
13712SOL    HW153114   1.801   5.189   9.960 -0.2512 -0.7424  1.4016
13712SOL    HW253115   1.682   5.266   9.905 -0.2797 -0.9207  1.2113
13713SOL     OW53116   6.748   3.009   8.162 -0.4012 -0.0082 -0.3459
13713SOL    HW153117   6.664   3.054   8.156 -0.8079  0.0544  3.4126
13713SOL    HW253118   6.808   3.074   8.200  0.1180 -1.3301  1.2038
13714SOL     OW53119   7.469   1.753   4.494  0.2093 -0.0376  0.9778
13714SOL    HW153120   7.554   1.719   4.468  0.4520 -0.1260  1.8800
13714SOL    HW253121   7.483   1.794   4.579 -0.4917  0.6070  0.8013
13715SOL     OW53122   7.502   9.382  10.337  0.6316 -0.0756  0.0198
13715SOL    HW153123   7.590   9.358  10.367  1.0609  2.6628  1.2651
13715SOL    HW253124   7.490   9.472  10.368 -2.3452 -0.1022 -0.7633
13716SOL     OW53125   8.944   8.830   5.929  0.4702  0.0958 -0.4471
13716SOL    HW153126   8.960   8.907   5.874 -3.0186  2.4131  1.4462
13716SOL    HW253127   8.870   8.786   5.887 -1.8369  1.5581  1.8263
13717SOL     OW53128   5.468   8.350   4.504 -0.3565  0.3004 -0.5707
13717SOL    HW153129   5.542   8.389   4.457  0.2303  0.0976  0.1754
13717SOL    HW253130   5.429   8.290   4.440  0.1193  0.4051 -0.9692
13718SOL     OW53131  10.361   3.335   7.650  0.4344 -0.2858  0.6332
13718SOL    HW153132  10.369   3.330   7.746 -0.8181 -0.7840  0.7296
13718SOL    HW253133  10.275   3.298   7.631 -0.7958  2.7548 -0.4116
13719SOL     OW53134   6.400   1.156   3.924 -0.0655 -0.2609  0.1584
13719SOL    HW153135   6.308   1.177   3.909  0.0935 -0.0570 -0.5774
13719SOL    HW253136   6.413   1.072   3.881  0.5519  0.6299 -1.4576
13720SOL     OW53137   7.318   4.328   0.509 -0.4033 -0.1560 -0.2859
13720SOL    HW153138   7.235   4.334   0.556  0.4061  1.1248  1.0812
13720SOL    HW253139   7.305   4.379   0.429 -0.9659 -0.0643 -0.1353
13721SOL     OW53140   9.005   2.931   4.432  0.1020 -0.1385 -0.1440
13721SOL    HW153141   9.041   2.989   4.364  2.4072  0.0758  1.1687
13721SOL    HW253142   9.001   2.845   4.390  3.5621 -0.4836 -0.0207
13722SOL     OW53143   2.420   9.756   9.222 -0.2602  0.2398  0.1580
13722SOL    HW153144   2.378   9.797   9.146  1.2256  1.1758 -0.2014
13722SOL    HW253145   2.445   9.669   9.193  0.7769  0.7820 -0.6316
13723SOL     OW53146   9.564   8.619   3.677 -0.4724 -0.2892  0.5275
13723SOL    HW153147   9.547   8.525   3.677  2.2168 -0.8835 -0.9877
13723SOL    HW253148   9.604   8.637   3.762  0.3411 -0.8447  0.2732
13724SOL     OW53149   4.355   4.092   7.919 -0.0612  0.2661 -0.1560
13724SOL    HW153150   4.296   4.028   7.958  0.4023 -1.2252 -1.7717
13724SOL    HW253151   4.436   4.043   7.903  0.3419  1.2822 -1.3513
13725SOL     OW53152   6.218   8.653   5.847 -0.1163  0.0670 -0.0743
13725SOL    HW153153   6.143   8.593   5.855  0.2505 -0.5152 -0.8674
13725SOL    HW253154   6.199   8.724   5.908 -1.0909 -0.3108  0.0721
13726SOL     OW53155   9.016   4.024   1.880  0.1952  0.3367 -0.4420
13726SOL    HW153156   9.043   4.113   1.858  2.3969  0.5165  2.3877
13726SOL    HW253157   9.095   3.971   1.872  0.3358 -0.2264  2.9039
13727SOL     OW53158   9.758   0.249   6.468  0.3259 -0.1796  0.2581
13727SOL    HW153159   9.707   0.170   6.487 -0.9102  0.0281 -1.7950
13727SOL    HW253160   9.849   0.223   6.482 -0.2185 -0.6188  3.9118
13728SOL     OW53161   2.305   7.541   9.909 -0.4620  0.3485  0.0834
13728SOL    HW153162   2.226   7.570   9.864 -0.8616 -0.1801  0.4408
13728SOL    HW253163   2.332   7.462   9.862  0.5934  1.2396 -0.8529
13729SOL     OW53164   9.069   4.337   8.990 -0.2279 -0.0483 -0.3082
13729SOL    HW153165   9.022   4.417   8.965  1.3373  0.4690 -1.7838
13729SOL    HW253166   9.160   4.365   9.001 -0.2502 -0.7961  3.4558
13730SOL     OW53167   7.211   8.802   4.631  0.2828  0.4638 -0.2434
13730SOL    HW153168   7.136   8.749   4.658  0.1997  0.3375 -0.7131
13730SOL    HW253169   7.202   8.809   4.536  0.3143  1.2828 -0.1969
13731SOL     OW53170   3.759   6.370   7.486 -0.3757  0.5875 -0.1506
13731SOL    HW153171   3.782   6.288   7.442  0.3195  0.8155 -0.2313
13731SOL    HW253172   3.767   6.350   7.579 -0.5759  0.4642 -0.1584
13732SOL     OW53173   8.988   1.073   1.315 -0.0053  0.8129 -0.0237
13732SOL    HW153174   9.020   1.016   1.385 -1.2225 -0.6156 -0.5560
13732SOL    HW253175   8.979   1.159   1.356 -3.5596 -0.5403  2.6098
13733SOL     OW53176   2.216   1.093   4.478 -0.0511  0.0414  0.1409
13733SOL    HW153177   2.267   1.173   4.461  2.3895 -1.5940 -0.8175
13733SOL    HW253178   2.130   1.112   4.443  1.3833  1.1512 -3.1727
13734SOL     OW53179   9.797   6.764   4.578  0.6225  0.2182 -0.7920
13734SOL    HW153180   9.809   6.671   4.599  0.9769  0.0794 -1.5766
13734SOL    HW253181   9.703   6.772   4.562  0.6476 -0.0985 -1.1259
13735SOL     OW53182   7.773   6.991   6.216 -0.2397 -0.1055 -0.4738
13735SOL    HW153183   7.756   6.945   6.134  1.2022 -2.7796  0.5852
13735SOL    HW253184   7.804   7.078   6.188  0.2191 -0.9154 -2.7647
13736SOL     OW53185   4.620   9.806   0.704  0.0066  0.6016  0.2941
13736SOL    HW153186   4.638   9.743   0.634 -2.2610  1.0345 -0.7693
13736SOL    HW253187   4.652   9.889   0.669 -1.0860  0.8098 -0.2549
13737SOL     OW53188   8.818   9.867   9.787  0.3006 -0.4432  0.0387
13737SOL    HW153189   8.842   9.899   9.700  1.6795  0.0613  0.5646
13737SOL    HW253190   8.891   9.895   9.843  0.4654 -2.5806  0.9658
13738SOL     OW53191   9.796   5.488   2.255  0.2470 -0.3039 -0.0643
13738SOL    HW153192   9.797   5.569   2.306  1.5243  0.7259 -1.6116
13738SOL    HW253193   9.888   5.470   2.236 -0.1160 -1.2431 -1.0636
13739SOL     OW53194   0.403   7.896   2.595 -0.0455  0.1496 -0.5219
13739SOL    HW153195   0.464   7.872   2.665  0.7409 -0.1017 -1.2888
13739SOL    HW253196   0.428   7.985   2.570 -1.2175  0.7790  0.4480
13740SOL     OW53197   6.070   8.259   1.114 -0.2021 -0.3651 -0.1742
13740SOL    HW153198   6.102   8.328   1.171 -1.3367  0.1781 -0.1718
13740SOL    HW253199   5.984   8.289   1.085 -0.2415 -1.2663 -1.0645
13741SOL     OW53200   2.018   8.818   3.520 -0.0376  0.5496  0.1474
13741SOL    HW153201   2.042   8.797   3.430 -3.4785 -1.3785 -0.4967
13741SOL    HW253202   1.958   8.893   3.512 -1.3919 -0.4492  0.6367
13742SOL     OW53203   0.728   3.028   7.189  0.3412  0.8241 -0.1415
13742SOL    HW153204   0.677   3.052   7.111 -0.0763  0.2312 -0.0602
13742SOL    HW253205   0.742   3.110   7.235  1.0883  1.2725 -1.1272
13743SOL     OW53206   5.034   8.412   1.492  0.4234 -0.6282 -0.0263
13743SOL    HW153207   5.110   8.465   1.514  0.8100 -0.2326 -2.1442
13743SOL    HW253208   4.959   8.466   1.517  0.7884  1.3513 -2.7402
13744SOL     OW53209   8.538   2.621   5.469 -0.1082  0.2346 -0.4391
13744SOL    HW153210   8.469   2.682   5.498 -0.3002 -0.1721 -0.0275
13744SOL    HW253211   8.498   2.534   5.477  0.7997 -0.0933  0.8190
13745SOL     OW53212   3.100   9.805  10.010 -0.1789  0.2525  0.0789
13745SOL    HW153213   3.177   9.750  10.027  1.2395  2.2177  0.4308
13745SOL    HW253214   3.083   9.793   9.917  0.7652  0.0031 -0.0783
13746SOL     OW53215   7.471   5.117   7.702  0.0698 -0.4511  0.3387
13746SOL    HW153216   7.530   5.184   7.734 -0.8525 -0.4839  2.2485
13746SOL    HW253217   7.528   5.045   7.676  0.9281 -0.2576  1.5816
13747SOL     OW53218   8.740   6.221   6.925 -0.3229  0.7873 -0.3707
13747SOL    HW153219   8.670   6.190   6.868 -0.6662 -0.0310  0.4494
13747SOL    HW253220   8.724   6.314   6.936 -1.5978  0.5197  0.1940
13748SOL     OW53221   5.600   1.540   3.641 -0.6659 -0.0875  0.1615
13748SOL    HW153222   5.570   1.476   3.705  0.0574 -0.6164 -0.0236
13748SOL    HW253223   5.687   1.511   3.616  0.4907  1.9980  1.4649
13749SOL     OW53224   2.376   0.276   9.601  0.4217  0.1544  0.1045
13749SOL    HW153225   2.330   0.193   9.587  0.0743  0.4990 -0.9080
13749SOL    HW253226   2.437   0.282   9.527 -0.8105  1.6193 -0.8769
13750SOL     OW53227   5.224   0.599   9.838  0.8299 -0.3154 -0.0240
13750SOL    HW153228   5.316   0.603   9.813  0.5775  1.7753 -0.8151
13750SOL    HW253229   5.213   0.512   9.876  2.8099 -1.1081 -1.1282
13751SOL     OW53230   3.204   5.652   4.430  0.4414  0.4855 -0.3966
13751SOL    HW153231   3.279   5.710   4.438 -0.3410  1.4642  0.1892
13751SOL    HW253232   3.141   5.686   4.493 -0.4856 -0.3207 -0.8546
13752SOL     OW53233   2.748   8.695   9.497  0.4297  0.1895 -0.3221
13752SOL    HW153234   2.662   8.707   9.457 -0.1032 -1.1020  0.3808
13752SOL    HW253235   2.735   8.712   9.590  0.3902 -2.1079  0.1645
13753SOL     OW53236   6.105   5.552   1.616 -0.1689 -0.2969  0.4477
13753SOL    HW153237   6.113   5.509   1.531 -0.9058 -0.2973  0.3754
13753SOL    HW253238   6.196   5.567   1.644  0.0800 -0.6898 -0.1344
13754SOL     OW53239   0.384   6.791   3.885 -0.4537 -0.2619  0.5847
13754SOL    HW153240   0.376   6.840   3.967 -0.7796  0.5165  0.1058
13754SOL    HW253241   0.351   6.851   3.818 -0.7241 -1.0889 -0.0480
13755SOL     OW53242   6.136   5.184   9.296 -0.2404  0.8112 -0.3718
13755SOL    HW153243   6.196   5.258   9.284 -1.2908  1.8344  0.3737
13755SOL    HW253244   6.111   5.189   9.388  2.3380 -2.6262  0.7148
13756SOL     OW53245   3.872   7.578   8.428  0.6057 -0.8004 -0.1102
13756SOL    HW153246   3.948   7.632   8.406  0.2222  0.3299  1.2026
13756SOL    HW253247   3.836   7.551   8.343  2.2092 -1.0100 -0.7507
13757SOL     OW53248   0.621   4.718   7.858 -0.1822 -0.4090 -0.0564
13757SOL    HW153249   0.621   4.814   7.866 -1.9194 -0.4726  1.2554
13757SOL    HW253250   0.531   4.696   7.838 -0.2072 -1.8774  1.4346
13758SOL     OW53251   6.967   6.370   9.972 -0.0749 -0.0897  0.7466
13758SOL    HW153252   6.998   6.378  10.062 -0.7616 -1.2830  1.1093
13758SOL    HW253253   6.932   6.456   9.951 -0.4166  0.0419  1.8190
13759SOL     OW53254   6.175   8.960   0.292  0.3045  0.1509  0.6422
13759SOL    HW153255   6.143   8.999   0.211 -1.4744  0.4341  1.4197
13759SOL    HW253256   6.270   8.956   0.282  0.1134  0.0578 -1.4842
13760SOL     OW53257   2.503   9.411   8.577  0.1226  0.5885  0.3601
13760SOL    HW153258   2.579   9.465   8.553 -0.2561  1.1076  0.2982
13760SOL    HW253259   2.487   9.358   8.499  1.6384 -1.0015  1.0614
13761SOL     OW53260   3.855   0.396   4.352 -0.0709  0.6901 -0.2723
13761SOL    HW153261   3.878   0.487   4.335 -0.2831  0.7221 -0.4038
13761SOL    HW253262   3.937   0.348   4.345 -0.0762  0.7698 -0.9419
13762SOL     OW53263   9.644   1.648   0.362  1.0075  0.0315  0.0192
13762SOL    HW153264   9.598   1.580   0.312 -0.1962  0.1890  0.8700
13762SOL    HW253265   9.630   1.623   0.453  1.0992  1.0745  0.3222
13763SOL     OW53266   4.192   8.841   5.543  0.1227  0.0064  0.7905
13763SOL    HW153267   4.269   8.798   5.506  0.1572  0.4075  0.3877
13763SOL    HW253268   4.136   8.857   5.468 -0.2369 -0.0402  1.0483
13764SOL     OW53269   8.071   1.634   9.012  0.3711  0.3030 -0.7213
13764SOL    HW153270   8.131   1.646   8.938  0.1610 -1.2970 -1.2052
13764SOL    HW253271   8.111   1.564   9.064  1.0487  2.0687  1.3070
13765SOL     OW53272  10.331   5.530   8.367  0.3862 -0.3136  0.5665
13765SOL    HW153273  10.258   5.474   8.343  0.9767 -0.6812 -0.4717
13765SOL    HW253274  10.396   5.516   8.297  0.2771  2.1898 -0.1491
13766SOL     OW53275   9.050   2.984   1.363 -0.0907 -0.1476  0.1757
13766SOL    HW153276   9.143   2.970   1.383 -0.2628 -0.8141  0.5561
13766SOL    HW253277   9.011   2.896   1.367 -1.0502  0.3118  1.6715
13767SOL     OW53278   9.395   0.527   9.438  0.1559 -0.3824 -0.5980
13767SOL    HW153279   9.404   0.620   9.414 -1.1208  0.0747  0.5423
13767SOL    HW253280   9.485   0.494   9.440  0.9592  1.6147  1.8264
13768SOL     OW53281   2.959   0.536  10.260 -0.1249  0.0623  0.0813
13768SOL    HW153282   2.865   0.551  10.269  0.4494  3.4078  2.8835
13768SOL    HW253283   2.988   0.510  10.348  1.8272  1.4862 -0.0582
13769SOL     OW53284   9.553   7.908   3.956 -0.6467 -0.1096  0.6108
13769SOL    HW153285   9.497   7.985   3.956  1.3553  1.4262  0.5659
13769SOL    HW253286   9.590   7.905   4.045  0.4143 -0.1268  0.1880
13770SOL     OW53287   5.487   0.653   5.273  0.3157  0.0420  0.3257
13770SOL    HW153288   5.408   0.680   5.320  0.4462  0.8052  0.1137
13770SOL    HW253289   5.487   0.557   5.280 -1.2357 -0.0789 -0.6314
13771SOL     OW53290   8.306   4.718   7.157  0.1138 -0.3332  0.1766
13771SOL    HW153291   8.266   4.761   7.081  2.8550  2.1607 -0.0614
13771SOL    HW253292   8.256   4.638   7.168 -1.0251 -0.3883 -3.6846
13772SOL     OW53293   3.229   9.751   2.365  0.0015 -0.2064 -0.2371
13772SOL    HW153294   3.153   9.809   2.361 -0.5390 -0.6754  1.8399
13772SOL    HW253295   3.305   9.809   2.358 -0.5392  0.4739 -0.5330
13773SOL     OW53296   9.374   8.418  10.147 -0.3746 -0.4149 -0.5126
13773SOL    HW153297   9.388   8.407  10.241  0.2052  0.3029 -0.5039
13773SOL    HW253298   9.437   8.359  10.106 -1.2786 -1.4554 -0.4662
13774SOL     OW53299   6.598   2.457  10.304 -0.6625  0.4028  0.4260
13774SOL    HW153300   6.564   2.503  10.228 -1.3079  0.2475  0.6194
13774SOL    HW253301   6.521   2.419  10.347 -0.4558  1.4174  1.7850
13775SOL     OW53302   1.348   6.127   0.433  0.3644 -0.3244 -0.1762
13775SOL    HW153303   1.323   6.050   0.382  0.6021  1.0853 -2.5846
13775SOL    HW253304   1.326   6.201   0.377  1.5458  1.3248  1.4121
13776SOL     OW53305   0.588   1.595   5.052 -0.0556 -0.0199  0.5771
13776SOL    HW153306   0.641   1.563   4.979  0.0911 -1.8002  1.4170
13776SOL    HW253307   0.498   1.587   5.022 -0.0700 -1.9664  0.9763
13777SOL     OW53308   4.315   8.970   2.513 -0.1352 -0.0893  0.6840
13777SOL    HW153309   4.330   9.064   2.515  2.4685 -0.4225  1.2689
13777SOL    HW253310   4.388   8.935   2.461 -0.7284 -1.8284  0.9366
13778SOL     OW53311   5.721   1.261   9.168  0.5474  0.9875 -0.1212
13778SOL    HW153312   5.795   1.297   9.121 -0.0239  0.9189 -1.1013
13778SOL    HW253313   5.651   1.256   9.103 -0.9964  3.0706  1.2338
13779SOL     OW53314   5.289   3.630   7.657  0.0636  0.2448  0.7779
13779SOL    HW153315   5.196   3.645   7.674  0.1692  1.9027  0.0589
13779SOL    HW253316   5.290   3.587   7.571 -0.0229  0.9020  0.4399
13780SOL     OW53317   1.219   3.639  10.107  0.4352  0.3235 -0.1069
13780SOL    HW153318   1.230   3.720  10.057  0.0398  0.6050  0.2571
13780SOL    HW253319   1.251   3.570  10.048  2.6613  0.9143  0.3302
13781SOL     OW53320   0.679   8.083   9.880  0.0893  0.0250  0.3196
13781SOL    HW153321   0.638   8.169   9.882  0.0275  0.0091 -0.1840
13781SOL    HW253322   0.720   8.078   9.794 -1.4090 -1.1450 -0.3723
13782SOL     OW53323   3.574   0.704   2.036 -0.0314  0.0340 -0.0446
13782SOL    HW153324   3.519   0.730   1.962 -1.2425  0.0535  0.8261
13782SOL    HW253325   3.550   0.765   2.106 -2.0942 -2.5749  1.7124
13783SOL     OW53326   5.440   6.805   5.672  0.0582 -0.4133 -0.2182
13783SOL    HW153327   5.414   6.825   5.762  0.2289 -0.5325 -0.1418
13783SOL    HW253328   5.470   6.889   5.636 -0.5916 -0.2420 -0.3616
13784SOL     OW53329   5.825   0.522   0.305  0.3976  0.2623 -0.1864
13784SOL    HW153330   5.802   0.441   0.351 -0.1999  0.4506 -0.1492
13784SOL    HW253331   5.823   0.590   0.372  1.0299  0.2915 -0.1911
13785SOL     OW53332   1.445   3.751   9.334  0.1766  0.1521  0.3184
13785SOL    HW153333   1.353   3.766   9.358  0.0267 -0.5615  0.2141
13785SOL    HW253334   1.478   3.690   9.399  0.0277 -1.0733 -0.7060
13786SOL     OW53335   4.153   1.909   2.619 -0.4242  0.1503 -0.0842
13786SOL    HW153336   4.103   1.859   2.555 -0.6081  0.1732  0.0394
13786SOL    HW253337   4.243   1.877   2.611 -1.0866 -2.8826  2.5368
13787SOL     OW53338   6.714   2.193   4.656  0.5306 -0.3122  0.2398
13787SOL    HW153339   6.705   2.101   4.681  0.6985 -0.4853 -0.3229
13787SOL    HW253340   6.771   2.192   4.580  0.7601  0.2887  0.3951
13788SOL     OW53341   6.454   3.412  10.376  0.4733 -0.5982  0.4251
13788SOL    HW153342   6.387   3.388  10.440  0.5138  1.7779  1.4768
13788SOL    HW253343   6.475   3.503  10.396  0.9792  0.0629 -2.5977
13789SOL     OW53344   4.504   9.457   7.805 -0.0061 -0.0291 -0.3862
13789SOL    HW153345   4.443   9.491   7.740 -0.2788 -1.9014 -1.1700
13789SOL    HW253346   4.578   9.424   7.753  0.6461  0.1484  0.4028
13790SOL     OW53347   4.619   4.353   3.290 -0.0979 -0.3595  0.5427
13790SOL    HW153348   4.631   4.353   3.385 -0.0994  1.2138  0.5552
13790SOL    HW253349   4.707   4.367   3.256 -0.2878  0.3808  0.3504
13791SOL     OW53350   5.571   1.565   0.689  0.2331  0.3237  0.4703
13791SOL    HW153351   5.547   1.620   0.763  1.1328 -0.3071  1.2500
13791SOL    HW253352   5.634   1.503   0.724  0.7030  0.0256 -0.8305
13792SOL     OW53353   8.175   6.253   9.920 -0.6686  0.4110 -0.0268
13792SOL    HW153354   8.170   6.158   9.930  0.2354  0.3659  0.0416
13792SOL    HW253355   8.205   6.266   9.830 -1.9070  0.6722 -0.4302
13793SOL     OW53356   4.876   0.170   5.826  0.1636  0.0257 -0.1033
13793SOL    HW153357   4.921   0.252   5.850 -1.5974  0.8721  0.4655
13793SOL    HW253358   4.934   0.101   5.859  1.5949  1.0335 -0.4043
13794SOL     OW53359   1.583   8.716   8.243 -0.1444 -0.4210 -0.5954
13794SOL    HW153360   1.630   8.634   8.257  1.3719  0.5313  0.1764
13794SOL    HW253361   1.628   8.757   8.169  1.1171  1.0634  0.9150
13795SOL     OW53362   6.415   9.953   4.324 -0.1044  0.2411 -0.4616
13795SOL    HW153363   6.328   9.987   4.305  0.3104  1.5489 -0.1063
13795SOL    HW253364   6.464   9.967   4.243 -0.0482  0.0882 -0.4542
13796SOL     OW53365   7.250   3.643   8.153 -0.7061  0.1225 -0.1349
13796SOL    HW153366   7.219   3.724   8.112  0.8160  0.4073 -0.8106
13796SOL    HW253367   7.340   3.633   8.120 -0.6070 -1.4403  0.5387
13797SOL     OW53368   5.203   3.920   8.516  0.2231  0.0450  0.3040
13797SOL    HW153369   5.172   3.935   8.426 -0.4307 -4.0373 -0.3345
13797SOL    HW253370   5.299   3.918   8.508  0.1587 -2.3133 -0.8626
13798SOL     OW53371   7.710   8.451  10.366  0.3273  0.2598  0.5897
13798SOL    HW153372   7.634   8.424  10.417 -0.3859  2.0448  0.5470
13798SOL    HW253373   7.703   8.401  10.284  0.0240 -0.6745  1.1758
13799SOL     OW53374   3.962   8.663   7.137 -0.1926  0.3883 -0.2815
13799SOL    HW153375   3.880   8.694   7.176 -1.0641  1.5429 -2.8723
13799SOL    HW253376   4.019   8.740   7.134  0.3334  0.0152 -0.1667
13800SOL     OW53377   6.737   7.966   4.476 -0.4004  0.1843 -0.1502
13800SOL    HW153378   6.719   7.927   4.561 -0.1672 -3.0582 -1.4442
13800SOL    HW253379   6.664   8.025   4.460 -1.4921 -0.6899  1.4244
13801SOL     OW53380   2.847   6.735   8.181 -0.1002  0.4793  0.2046
13801SOL    HW153381   2.862   6.766   8.091  0.4167 -1.9141 -0.5849
13801SOL    HW253382   2.798   6.807   8.222  0.6948  2.1580 -1.5994
13802SOL     OW53383   5.093   2.338   6.787  0.4168  0.1097 -0.0787
13802SOL    HW153384   5.138   2.357   6.869 -0.3281 -1.2911  0.6857
13802SOL    HW253385   5.052   2.253   6.801 -0.5973  0.3218 -1.5437
13803SOL     OW53386   0.715   7.921   4.367 -0.0202  0.0644 -0.5034
13803SOL    HW153387   0.796   7.875   4.388 -0.5233 -0.6935 -0.1633
13803SOL    HW253388   0.696   7.974   4.444 -0.0846 -0.1136 -0.3955
13804SOL     OW53389   0.210   8.374   3.727  0.3294 -0.0996 -0.4745
13804SOL    HW153390   0.232   8.406   3.815  0.8512  0.2736 -0.7387
13804SOL    HW253391   0.115   8.364   3.729  0.2183  0.8769 -0.1807
13805SOL     OW53392   7.440   5.350   5.421 -0.2839 -0.0687  0.0719
13805SOL    HW153393   7.394   5.277   5.460  0.5907 -0.3254  0.6577
13805SOL    HW253394   7.411   5.427   5.471  2.2508 -0.6112  2.6660
13806SOL     OW53395   0.587   4.261   0.888  0.1964 -0.1170 -0.1309
13806SOL    HW153396   0.612   4.262   0.980  0.5002  0.7584 -0.2100
13806SOL    HW253397   0.658   4.308   0.843 -1.0915  1.6041 -0.4833
13807SOL     OW53398   8.866   4.739   9.225  0.2510  1.0691  0.2161
13807SOL    HW153399   8.782   4.774   9.197 -0.0037  1.6752  1.6607
13807SOL    HW253400   8.852   4.644   9.231  0.0615  1.0192 -0.7600
13808SOL     OW53401   9.156   7.621   8.311 -0.1454 -0.3747 -0.0675
13808SOL    HW153402   9.195   7.697   8.353 -0.6470 -1.6136  2.8290
13808SOL    HW253403   9.077   7.654   8.269  1.1750  1.1858 -1.5003
13809SOL     OW53404   8.979   3.090   1.603  0.2299 -0.2901 -0.6297
13809SOL    HW153405   9.007   3.042   1.525  2.4926 -1.1854  0.6719
13809SOL    HW253406   8.982   3.026   1.674 -0.7262  0.7778  0.4176
13810SOL     OW53407   4.207   9.230   5.925  0.3421 -0.0462  0.7761
13810SOL    HW153408   4.156   9.261   5.850 -0.9508 -0.0454  1.6014
13810SOL    HW253409   4.244   9.147   5.898  2.6668  1.4531 -0.9902
13811SOL     OW53410   9.450   1.167   2.067  0.0319  0.1337 -0.3193
13811SOL    HW153411   9.503   1.220   2.126 -0.0792  1.9585 -1.7606
13811SOL    HW253412   9.373   1.220   2.049 -2.0184 -2.1320  1.1137
13812SOL     OW53413   4.479   0.594   4.572 -0.6654  0.2706  0.1447
13812SOL    HW153414   4.444   0.662   4.514 -1.8902 -0.2744  0.2269
13812SOL    HW253415   4.543   0.548   4.517  0.1259  1.4043  0.0616
13813SOL     OW53416   7.535   2.797   3.546  0.1243  0.0218  0.3872
13813SOL    HW153417   7.553   2.836   3.632 -0.1168 -0.0262  0.4593
13813SOL    HW253418   7.457   2.843   3.515 -1.3837 -1.7668  1.3381
13814SOL     OW53419   6.494   5.264   2.065  0.1602  0.0363 -0.9131
13814SOL    HW153420   6.501   5.212   1.985  0.6222 -1.8445  0.2820
13814SOL    HW253421   6.400   5.269   2.082  0.0219  0.9584 -1.8615
13815SOL     OW53422   1.089   7.834   8.253  0.3237  0.0785 -0.3974
13815SOL    HW153423   1.003   7.791   8.248  0.3178  0.1380 -0.7952
13815SOL    HW253424   1.152   7.763   8.245  0.3302 -0.1766  1.4955
13816SOL     OW53425   2.836   5.023   9.391  0.4827  0.7544  0.1322
13816SOL    HW153426   2.911   5.063   9.348 -0.0822  1.0204 -0.6357
13816SOL    HW253427   2.825   4.938   9.349 -0.1850  1.0929 -0.4090
13817SOL     OW53428   7.052   6.831   5.777 -0.0645 -0.1686  0.3057
13817SOL    HW153429   6.958   6.819   5.760 -0.2927  2.4612 -0.7070
13817SOL    HW253430   7.071   6.919   5.745  3.2556 -1.4141 -1.6282
13818SOL     OW53431   1.019   4.885  10.382  0.2313 -0.6907  0.2172
13818SOL    HW153432   0.945   4.880  10.321 -0.0005  1.6854  0.1844
13818SOL    HW253433   0.984   4.929  10.459  1.3595 -0.4204  0.6039
13819SOL     OW53434   0.822   9.719   2.746 -0.2584 -0.0299  0.3429
13819SOL    HW153435   0.897   9.699   2.802 -0.0495 -0.8141 -0.1998
13819SOL    HW253436   0.861   9.746   2.662 -0.5645  1.1729  0.5716
13820SOL     OW53437   1.497   0.022  10.301  0.0201  0.4987 -0.1691
13820SOL    HW153438   1.490   0.044  10.394  2.1121 -0.9043  0.3884
13820SOL    HW253439   1.561   0.084  10.267  1.5349 -0.8687  0.0739
13821SOL     OW53440   9.080   8.380   7.900 -0.0269 -0.2356 -0.0057
13821SOL    HW153441   9.174   8.402   7.898 -0.0397  0.1451 -3.4744
13821SOL    HW253442   9.077   8.287   7.922  1.4463 -0.9167 -2.3407
13822SOL     OW53443   7.383   2.620   0.682  0.0083  0.7673 -0.2966
13822SOL    HW153444   7.477   2.638   0.680  0.8420 -2.7683  0.0839
13822SOL    HW253445   7.358   2.632   0.774  0.0982  1.5305 -0.3637
13823SOL     OW53446   5.537   8.637   2.319  0.4622 -0.1181  0.3335
13823SOL    HW153447   5.536   8.549   2.358  1.0319 -0.2873 -0.0212
13823SOL    HW253448   5.456   8.678   2.350 -0.1316 -0.9991 -0.0205
13824SOL     OW53449   9.593   9.810   4.339  0.4632  0.4946  1.4503
13824SOL    HW153450   9.687   9.800   4.324  0.6472 -0.5062  3.0044
13824SOL    HW253451   9.562   9.861   4.264  1.6939 -1.6490 -0.6573
13825SOL     OW53452   8.444   2.432   0.463  0.5754 -0.1476 -0.5024
13825SOL    HW153453   8.524   2.394   0.427  0.0778  0.1201 -1.9278
13825SOL    HW253454   8.374   2.393   0.413 -0.3438 -1.5095  1.7087
13826SOL     OW53455   7.982   0.951   5.473  0.3428 -0.2762 -0.7204
13826SOL    HW153456   7.991   1.044   5.491 -0.0184 -0.0410 -1.6573
13826SOL    HW253457   7.949   0.948   5.383 -0.2335 -1.2863 -0.4904
13827SOL     OW53458   3.495   2.322   0.248 -0.5983  0.4397  0.4572
13827SOL    HW153459   3.430   2.374   0.297 -0.2252  0.9434  0.4235
13827SOL    HW253460   3.450   2.240   0.230 -1.7627  1.3195 -0.8178
13828SOL     OW53461   6.493   7.313   9.145  0.3513 -0.0200  0.1902
13828SOL    HW153462   6.515   7.405   9.154  1.6090 -0.1682 -1.0094
13828SOL    HW253463   6.488   7.299   9.050 -1.2452 -0.8736  0.3643
13829SOL     OW53464   7.915   9.329   5.541 -0.8342 -0.0966  0.2643
13829SOL    HW153465   7.895   9.365   5.628 -0.2662  0.3850  0.2001
13829SOL    HW253466   7.997   9.281   5.553 -0.7437 -0.0121 -0.0120
13830SOL     OW53467   8.420   9.931   4.114 -0.3056  0.2444 -0.2685
13830SOL    HW153468   8.365   9.966   4.044 -1.6521  0.4138  0.8168
13830SOL    HW253469   8.424  10.002   4.179  1.2005  0.2213 -0.3083
13831SOL     OW53470   1.514   9.385   8.722 -0.0038  0.2521 -0.5785
13831SOL    HW153471   1.580   9.422   8.664 -0.6952  0.6315 -1.1371
13831SOL    HW253472   1.495   9.455   8.785  0.8739 -0.2175  0.2485
13832SOL     OW53473   0.651   5.930   9.644 -0.4761  0.4379 -0.0910
13832SOL    HW153474   0.722   5.977   9.601 -1.6366  1.8946 -0.5125
13832SOL    HW253475   0.582   5.926   9.579 -0.6850 -1.2406  0.2023
13833SOL     OW53476   0.576   0.307   2.625 -0.0146 -0.0491 -0.2266
13833SOL    HW153477   0.568   0.384   2.569 -3.2260  1.0541  1.5051
13833SOL    HW253478   0.658   0.266   2.598  0.3548  2.3291 -3.2287
13834SOL     OW53479   0.516   0.154   6.105 -0.2331 -0.2194  0.3392
13834SOL    HW153480   0.582   0.193   6.162  1.0813  0.7612 -1.7373
13834SOL    HW253481   0.564   0.096   6.048 -1.4881 -1.0630  0.0963
13835SOL     OW53482   6.270   1.326   7.335  0.1896  0.1526 -0.0398
13835SOL    HW153483   6.245   1.307   7.425  1.1077  2.6222  0.8268
13835SOL    HW253484   6.365   1.323   7.335  0.2894  2.0303 -0.4045
13836SOL     OW53485   8.066   1.715   6.901  0.4554  0.8788  0.0024
13836SOL    HW153486   8.037   1.784   6.961  0.5234  1.3886 -0.5486
13836SOL    HW253487   8.054   1.634   6.951 -1.0457  1.1495  0.1334
13837SOL     OW53488   1.663   7.532   8.703  0.7049 -0.2324 -0.1458
13837SOL    HW153489   1.576   7.495   8.692  1.0864 -2.0372  2.1794
13837SOL    HW253490   1.696   7.542   8.613 -1.6937  0.1671 -1.0618
13838SOL     OW53491   3.805   0.239   2.152 -0.2812  0.1793 -0.3383
13838SOL    HW153492   3.886   0.256   2.202 -0.7660  2.6433 -0.2925
13838SOL    HW253493   3.740   0.220   2.219 -0.1192 -0.2374 -0.2903
13839SOL     OW53494   1.115   9.788   0.749 -0.0244  0.7516 -0.3614
13839SOL    HW153495   1.106   9.882   0.763 -3.0309  0.4804  0.2318
13839SOL    HW253496   1.030   9.752   0.775  0.5726 -1.9826 -1.8343
13840SOL     OW53497   6.557   8.937   4.909 -0.2483  0.2980  0.4427
13840SOL    HW153498   6.492   9.007   4.920 -0.2424  0.3167  0.3594
13840SOL    HW253499   6.637   8.973   4.949  0.1755  0.9414 -0.9360
13841SOL     OW53500   1.155   8.404   8.903 -0.0872  0.0071  0.0506
13841SOL    HW153501   1.208   8.373   8.976 -1.7828 -1.2358  0.8323
13841SOL    HW253502   1.205   8.380   8.825  0.1889 -1.7978  0.7406
13842SOL     OW53503   9.221   1.784   4.413  0.0952  0.2603 -0.2459
13842SOL    HW153504   9.128   1.772   4.432  0.1091 -0.4148 -0.5817
13842SOL    HW253505   9.266   1.751   4.491  0.1002 -1.0153 -0.7690
13843SOL     OW53506   4.784   6.009   7.052  0.5860  0.2554 -0.0701
13843SOL    HW153507   4.704   5.984   7.007  0.9960 -1.0842 -0.0909
13843SOL    HW253508   4.789   5.950   7.127  1.5986  0.2593 -0.1229
13844SOL     OW53509   0.455   6.813   6.622 -0.1311 -0.4634  0.3097
13844SOL    HW153510   0.482   6.853   6.540 -0.3956 -1.1002 -0.0927
13844SOL    HW253511   0.536   6.803   6.672 -0.1011  0.8883  0.5709
13845SOL     OW53512   9.350   9.367   0.056 -0.2811  0.3624  0.1249
13845SOL    HW153513   9.320   9.282   0.090  2.3982 -0.1129  1.5767
13845SOL    HW253514   9.385   9.346  -0.031  2.0234 -0.5329  1.1550
13846SOL     OW53515   8.077   6.191   2.186  0.4715 -0.3184 -0.4742
13846SOL    HW153516   8.100   6.256   2.120 -0.6566  1.5309  0.8481
13846SOL    HW253517   7.987   6.166   2.165  0.3418 -0.2271 -0.0391
13847SOL     OW53518   3.777   9.264   3.175  0.4989 -0.2895 -0.0857
13847SOL    HW153519   3.871   9.266   3.156  0.5588 -0.3619  0.1971
13847SOL    HW253520   3.767   9.195   3.241  0.3164  0.0438  0.2430
13848SOL     OW53521   7.982   2.511   7.521 -0.4724 -0.0160  0.3141
13848SOL    HW153522   8.009   2.420   7.513 -1.3074 -0.3648  1.1667
13848SOL    HW253523   7.934   2.530   7.440  0.4302 -0.0538 -0.2409
13849SOL     OW53524   2.909   5.568   4.239 -0.0840 -0.3048  0.0954
13849SOL    HW153525   2.817   5.570   4.212 -0.3847 -0.3850  1.0475
13849SOL    HW253526   2.908   5.609   4.326  1.2818  2.7608 -1.2098
13850SOL     OW53527   8.483   6.058   4.289  0.2107  0.0422 -0.3993
13850SOL    HW153528   8.503   6.146   4.258  0.1501  0.2494  0.1396
13850SOL    HW253529   8.562   6.031   4.337 -0.4125  0.4775  0.9002
13851SOL     OW53530   3.821   5.293   2.540  0.1460  0.2269  0.4550
13851SOL    HW153531   3.891   5.345   2.580  0.5746  0.2723 -0.3280
13851SOL    HW253532   3.860   5.260   2.458 -1.5597  2.4866 -1.3912
13852SOL     OW53533   8.580   7.811   6.137 -0.0657 -0.0959 -0.4136
13852SOL    HW153534   8.571   7.718   6.117  1.1674 -0.3611  0.1701
13852SOL    HW253535   8.669   7.820   6.170 -0.5558  1.0948  0.6655
13853SOL     OW53536   8.375   0.737   1.322 -0.2336 -0.1482  0.1695
13853SOL    HW153537   8.290   0.693   1.322 -1.4230  1.8815 -2.0946
13853SOL    HW253538   8.435   0.673   1.283 -0.7067 -1.5316  1.6111
13854SOL     OW53539   2.318   0.559   0.183  0.7696 -0.2273 -0.3839
13854SOL    HW153540   2.257   0.579   0.111 -1.6693 -0.0389  1.5979
13854SOL    HW253541   2.346   0.469   0.165 -1.9252 -1.2083 -0.2884
13855SOL     OW53542   3.958   7.527   6.293 -0.0385  0.0940  0.2696
13855SOL    HW153543   4.020   7.459   6.269  0.0651  0.9291 -2.0926
13855SOL    HW253544   4.013   7.602   6.317 -0.1286  0.4397 -0.5908
13856SOL     OW53545   9.485   9.995   0.749  0.0079 -0.3462  0.8916
13856SOL    HW153546   9.417  10.057   0.724  0.0008 -0.3602  0.8778
13856SOL    HW253547   9.455   9.957   0.831  1.1716  1.5016  2.2577
13857SOL     OW53548   2.090   0.047   7.053  0.0563 -0.1609  0.1677
13857SOL    HW153549   2.185   0.058   7.040  0.2705 -0.2541  1.4578
13857SOL    HW253550   2.060   0.134   7.079 -0.1858 -0.1646 -0.1051
13858SOL     OW53551   2.859   2.719   8.390  0.6127  0.8316 -0.0875
13858SOL    HW153552   2.904   2.647   8.345  0.7433  0.1811  1.0454
13858SOL    HW253553   2.883   2.708   8.482 -1.1137  1.0240  0.4222
13859SOL     OW53554  10.239   6.451   1.820 -0.1796 -0.0839  0.5092
13859SOL    HW153555  10.210   6.538   1.848 -1.9511 -0.5606  0.2701
13859SOL    HW253556  10.182   6.430   1.746  0.1670 -1.4851  0.6233
13860SOL     OW53557   1.427   8.036   7.193 -0.2011 -0.2427 -0.0789
13860SOL    HW153558   1.463   8.027   7.281 -0.4532 -1.4758 -0.0907
13860SOL    HW253559   1.474   8.110   7.156  0.2232  0.0139  0.9376
13861SOL     OW53560   3.403   9.182   1.613  0.5039  0.1757  0.2399
13861SOL    HW153561   3.325   9.201   1.562  0.2855 -1.1099  0.0724
13861SOL    HW253562   3.472   9.233   1.570  0.2899 -0.7143 -1.2405
13862SOL     OW53563   6.190   8.469   1.259 -0.2211 -0.5723  0.2697
13862SOL    HW153564   6.278   8.430   1.264  0.5305  1.1122  1.0616
13862SOL    HW253565   6.174   8.502   1.347 -2.1269 -1.7610  0.4109
13863SOL     OW53566  10.248   8.259   8.650 -0.1750 -0.6356 -0.2968
13863SOL    HW153567  10.321   8.201   8.671 -0.0094 -1.1913 -2.1771
13863SOL    HW253568  10.201   8.271   8.733  1.7559 -0.6444  0.8537
13864SOL     OW53569   2.734   3.674   8.964 -0.9298  0.1629 -0.0083
13864SOL    HW153570   2.780   3.644   9.042 -1.5661 -0.5326  0.1089
13864SOL    HW253571   2.770   3.762   8.947 -2.9427  1.6911  2.8588
13865SOL     OW53572   2.932   0.562   5.132  0.0947 -0.2322 -0.2491
13865SOL    HW153573   2.983   0.499   5.183 -0.7667 -1.4223 -0.8067
13865SOL    HW253574   2.841   0.546   5.158 -0.1159  1.0617 -0.1200
13866SOL     OW53575   0.681   3.835   6.682  0.0469 -0.6572  0.7854
13866SOL    HW153576   0.586   3.837   6.673 -0.0062  2.6372  0.7122
13866SOL    HW253577   0.712   3.801   6.598 -1.0488 -1.4302  0.6793
13867SOL     OW53578   4.464   4.303   6.228  0.3130  0.2557  0.3890
13867SOL    HW153579   4.508   4.295   6.143 -0.3975 -0.4493  0.0640
13867SOL    HW253580   4.437   4.394   6.232  1.3581  0.5699  0.3728
13868SOL     OW53581   3.414   4.839   7.570 -0.0691  0.2632  0.1174
13868SOL    HW153582   3.353   4.772   7.603 -0.6260 -0.0121 -1.4059
13868SOL    HW253583   3.360   4.894   7.514  0.6971  1.1841  0.2729
13869SOL     OW53584   3.014   4.405   0.176  0.2121 -0.3592 -0.1633
13869SOL    HW153585   3.002   4.418   0.270  2.8549 -0.9916  0.3395
13869SOL    HW253586   3.012   4.310   0.164  2.0536 -0.4242 -0.3248
13870SOL     OW53587   0.510   9.649   8.885 -0.2318 -0.3081 -0.2038
13870SOL    HW153588   0.592   9.607   8.857  0.9979  2.9316 -2.0096
13870SOL    HW253589   0.450   9.635   8.813  0.0259  0.5726 -0.5968
13871SOL     OW53590   3.032   9.121   9.969  0.0033 -0.4266  0.2923
13871SOL    HW153591   3.034   9.213   9.994 -0.3427 -0.1738 -0.5493
13871SOL    HW253592   3.118   9.105   9.930 -0.2336 -0.2083 -0.3483
13872SOL     OW53593   5.160   0.137   9.709 -0.2569  0.5415  0.0153
13872SOL    HW153594   5.124   0.092   9.632  0.6998 -0.7019  0.2835
13872SOL    HW253595   5.224   0.198   9.673  0.5537 -0.3962 -0.1499
13873SOL     OW53596   2.624   7.559   3.516 -0.7370 -0.2382  0.5189
13873SOL    HW153597   2.585   7.578   3.431  2.1650  0.9567 -0.6985
13873SOL    HW253598   2.617   7.464   3.525 -0.9583 -0.4131 -1.1382
13874SOL     OW53599   5.642   9.173   9.482  0.1360 -0.6457  0.0475
13874SOL    HW153600   5.621   9.188   9.390 -1.7370 -1.0764  0.3726
13874SOL    HW253601   5.558   9.152   9.523  0.8140  0.2167  2.0023
13875SOL     OW53602   0.891   9.052   8.040 -0.3639  0.2119 -0.1924
13875SOL    HW153603   0.897   9.061   8.135 -1.3145 -0.3895 -0.0613
13875SOL    HW253604   0.811   9.097   8.016 -0.5899 -0.3848 -0.5933
13876SOL     OW53605   9.469   7.347   0.473 -0.8668 -0.4818 -0.1994
13876SOL    HW153606   9.484   7.253   0.480 -1.1031 -0.6901 -1.9913
13876SOL    HW253607   9.553   7.387   0.497 -0.7742 -1.1323  0.5994
13877SOL     OW53608   1.534   1.890   3.308 -0.2299 -0.3759  0.5547
13877SOL    HW153609   1.558   1.816   3.364  2.8818  1.4654  1.9093
13877SOL    HW253610   1.584   1.876   3.228  1.6468  0.8883  1.4125
13878SOL     OW53611   3.026   1.547  10.186 -0.4100 -0.9031 -0.1195
13878SOL    HW153612   3.033   1.571  10.094  0.1736 -0.7041 -0.0251
13878SOL    HW253613   3.064   1.460  10.192  0.0195 -0.7067  0.0206
13879SOL     OW53614   5.433  10.049   1.062  0.7083  0.1293  0.2003
13879SOL    HW153615   5.383   9.985   1.113 -1.7715  1.7299 -0.0757
13879SOL    HW253616   5.498  10.084   1.124 -1.2328  0.9298  1.8789
13880SOL     OW53617   9.485   8.739   3.081 -0.5269 -0.1099  0.3553
13880SOL    HW153618   9.568   8.746   3.033  0.3504  1.8781  2.0207
13880SOL    HW253619   9.511   8.727   3.172 -2.0414  1.3309  1.0164
13881SOL     OW53620   6.786   5.140   3.411  0.2711 -0.0397 -0.0969
13881SOL    HW153621   6.846   5.074   3.446 -0.3975 -1.4312 -1.4639
13881SOL    HW253622   6.710   5.136   3.469  0.2607 -0.4387 -0.1341
13882SOL     OW53623   1.933   8.146   5.968  0.0127  0.0504 -0.4124
13882SOL    HW153624   1.911   8.096   6.046  0.5250  0.0355 -0.2737
13882SOL    HW253625   1.988   8.217   6.000  0.2979 -0.0054 -0.7691
13883SOL     OW53626   0.642   7.335   3.256  0.0562  0.2843  0.2604
13883SOL    HW153627   0.549   7.322   3.274 -0.2369  0.6438 -0.9050
13883SOL    HW253628   0.645   7.417   3.206  0.7855 -0.6306 -1.2868
13884SOL     OW53629  10.272   1.265   1.436 -0.7005 -0.5351 -0.3555
13884SOL    HW153630  10.242   1.337   1.491 -2.5161 -1.7518  0.3401
13884SOL    HW253631  10.354   1.236   1.476 -1.3457 -0.5788  0.9757
13885SOL     OW53632   5.422   5.396   4.103 -0.3911  0.0623  0.8179
13885SOL    HW153633   5.497   5.382   4.046 -1.5476  0.5996 -0.9437
13885SOL    HW253634   5.384   5.309   4.115 -0.6942  0.0549 -0.0869
13886SOL     OW53635   8.837   6.515   0.750  0.5478  0.3422  0.2930
13886SOL    HW153636   8.924   6.553   0.764  0.0693  1.3986  0.5103
13886SOL    HW253637   8.785   6.587   0.715 -0.6616  0.2015  1.6868
13887SOL     OW53638   6.030   8.969   5.186  0.1708 -0.7201  0.0534
13887SOL    HW153639   5.952   8.976   5.131 -0.0443 -0.6854  0.3607
13887SOL    HW253640   6.098   9.017   5.139 -0.5614  1.1565  0.8177
13888SOL     OW53641   1.923   3.769   9.383 -0.8146 -0.2578  0.5487
13888SOL    HW153642   1.852   3.743   9.324 -0.4815 -0.1051  0.0709
13888SOL    HW253643   1.885   3.839   9.436 -0.6810  0.6725 -0.5258
13889SOL     OW53644   9.754   8.504   0.409 -0.4393  0.4830  0.2429
13889SOL    HW153645   9.672   8.494   0.361  1.1524  0.7303 -2.7266
13889SOL    HW253646   9.786   8.414   0.420  0.6769  0.5304 -2.0703
13890SOL     OW53647   8.834   7.669   1.188  0.1417 -0.2914  0.4100
13890SOL    HW153648   8.811   7.596   1.131  0.3591 -0.4102  0.4730
13890SOL    HW253649   8.872   7.627   1.266  1.4252 -0.0627 -0.0767
13891SOL     OW53650  10.390   3.172   7.418 -0.7209 -0.2400 -0.3658
13891SOL    HW153651  10.386   3.199   7.509  0.7316 -2.5689  0.4827
13891SOL    HW253652  10.316   3.112   7.407 -1.0905  0.2849 -0.8540
13892SOL     OW53653   5.906   6.626   0.850  0.8440 -0.0202 -0.3602
13892SOL    HW153654   5.954   6.697   0.892  1.0223 -1.2109  1.5484
13892SOL    HW253655   5.929   6.548   0.900 -0.4387 -1.2091 -1.5274
13893SOL     OW53656   8.009   4.831   5.871  0.3083  0.1962  0.0806
13893SOL    HW153657   8.101   4.821   5.846  0.8916  2.0411  1.3011
13893SOL    HW253658   8.012   4.848   5.966 -1.2190  1.1006 -0.0133
13894SOL     OW53659   0.931   3.742  10.083 -0.2042 -0.3305  0.6344
13894SOL    HW153660   0.999   3.675  10.082  0.9486  0.7958 -0.6313
13894SOL    HW253661   0.849   3.693  10.084  0.6068 -1.7717 -0.2067
13895SOL     OW53662   4.915   5.433   4.265  0.5926 -0.0651 -0.2314
13895SOL    HW153663   4.945   5.359   4.213 -0.0238 -0.4602 -0.0339
13895SOL    HW253664   4.928   5.509   4.209 -1.9050 -0.6860 -1.7494
13896SOL     OW53665   4.682   6.340   1.956  0.8744 -0.1143 -0.2088
13896SOL    HW153666   4.724   6.280   2.018  1.0537  0.3981  0.1703
13896SOL    HW253667   4.676   6.423   2.004  1.2363  0.3509 -0.9614
13897SOL     OW53668   6.498   0.815   1.528  0.2598  0.6192 -0.0857
13897SOL    HW153669   6.445   0.825   1.607  0.0112 -1.3352  0.0363
13897SOL    HW253670   6.563   0.748   1.552 -0.8210 -1.2106 -1.9958
13898SOL     OW53671   8.490   8.622   3.194 -0.0345 -0.8217 -0.4217
13898SOL    HW153672   8.396   8.609   3.210 -0.5942  2.1742 -0.6454
13898SOL    HW253673   8.531   8.605   3.278 -0.9982 -0.6945  0.0961
13899SOL     OW53674   0.200   2.902   3.560  0.1123  0.9787  0.2192
13899SOL    HW153675   0.129   2.950   3.516 -0.8397  1.4695  2.1752
13899SOL    HW253676   0.190   2.925   3.653 -0.1694 -2.6656  1.2320
13900SOL     OW53677   7.434   2.388   7.185  0.1892 -0.0985 -0.0162
13900SOL    HW153678   7.492   2.424   7.118 -2.5728  0.6764 -2.1620
13900SOL    HW253679   7.427   2.295   7.163 -0.2803  0.0437 -0.4779
13901SOL     OW53680   5.731   8.352   6.959  0.1500  0.4331 -0.5687
13901SOL    HW153681   5.758   8.374   7.048  0.3370  1.9556 -0.9647
13901SOL    HW253682   5.673   8.423   6.933  0.5562  0.3309 -1.8537
13902SOL     OW53683   2.140   4.717   7.140 -0.0386  0.2977  0.3122
13902SOL    HW153684   2.142   4.686   7.050 -0.0031 -0.8659  0.6968
13902SOL    HW253685   2.188   4.800   7.138  0.5065 -0.0285 -0.6186
13903SOL     OW53686  10.132   3.343   4.933  0.0060 -0.4213 -0.0823
13903SOL    HW153687  10.130   3.381   4.845 -1.5857 -0.9722 -0.3288
13903SOL    HW253688  10.069   3.395   4.983  0.8066 -0.1928  0.7104
13904SOL     OW53689   3.283   9.142   7.814  0.6200  0.5752 -0.2141
13904SOL    HW153690   3.219   9.190   7.867 -0.9400 -1.4397 -0.1206
13904SOL    HW253691   3.367   9.157   7.858 -0.4031  0.1487  2.0181
13905SOL     OW53692   7.719   6.251   7.409 -0.5844  0.2148  0.0082
13905SOL    HW153693   7.791   6.309   7.383  0.7254 -0.4651  1.8883
13905SOL    HW253694   7.705   6.271   7.502 -2.1521 -0.3935 -0.0704
13906SOL     OW53695   5.066   6.100   2.368 -0.4136  0.3200  0.4557
13906SOL    HW153696   5.160   6.095   2.384 -0.4588 -1.3756  0.3374
13906SOL    HW253697   5.058   6.149   2.286  0.4287 -0.3598 -0.0449
13907SOL     OW53698   3.609   9.828   1.927  0.6064 -0.5195  0.1914
13907SOL    HW153699   3.582   9.877   1.849  0.7951 -0.2810  0.2773
13907SOL    HW253700   3.704   9.835   1.929  0.5185  0.8997  1.3607
13908SOL     OW53701   5.674   7.721   2.596 -0.3911  0.7606  0.2762
13908SOL    HW153702   5.615   7.777   2.645 -1.6547  0.1342 -0.4839
13908SOL    HW253703   5.623   7.691   2.521  0.6178 -0.4525  0.0320
13909SOL     OW53704   1.543   0.313   3.591 -0.4612  0.3275 -0.2390
13909SOL    HW153705   1.618   0.320   3.650 -0.5062 -0.2750 -0.1026
13909SOL    HW253706   1.580   0.282   3.508 -0.6224 -0.4850 -0.0155
13910SOL     OW53707   1.738   7.642   6.421  0.0337 -0.0973  0.7462
13910SOL    HW153708   1.643   7.631   6.432 -0.1136 -0.0515 -0.3543
13910SOL    HW253709   1.750   7.658   6.327  1.1637 -0.4219  0.8164
13911SOL     OW53710   1.744   6.352   7.719 -0.2215 -0.4834  0.4977
13911SOL    HW153711   1.772   6.431   7.764 -0.1910 -0.0627 -0.2545
13911SOL    HW253712   1.825   6.309   7.692 -0.2475 -0.5349  0.5018
13912SOL     OW53713   1.408   1.806   1.744 -0.0763 -0.2453 -0.3270
13912SOL    HW153714   1.372   1.737   1.689 -0.6170  0.0823 -0.3932
13912SOL    HW253715   1.338   1.871   1.750 -0.0377 -0.2982  0.7828
13913SOL     OW53716   8.016   7.169   1.367 -0.0825  0.0842 -0.8006
13913SOL    HW153717   7.955   7.240   1.384  0.0317  0.4943 -2.0008
13913SOL    HW253718   8.040   7.136   1.454 -1.3121  0.4930 -0.2868
13914SOL     OW53719   0.707   4.687   5.327 -0.4412 -0.0672  0.0857
13914SOL    HW153720   0.624   4.643   5.309  0.8689 -2.8981  0.4130
13914SOL    HW253721   0.709   4.695   5.423 -0.2002 -0.3335  0.1044
13915SOL     OW53722   9.875   7.301   7.937 -0.1362  0.1352 -0.3699
13915SOL    HW153723   9.884   7.239   7.864 -0.5505  0.8174 -1.0104
13915SOL    HW253724   9.823   7.254   8.002 -1.4732  0.2188 -1.3509
13916SOL     OW53725   0.708   0.290   0.186 -0.0931  0.5898 -0.0272
13916SOL    HW153726   0.800   0.311   0.204  0.0518  0.2709 -0.3706
13916SOL    HW253727   0.707   0.264   0.094  0.1706 -2.9838  0.7950
13917SOL     OW53728   7.297   6.943   3.230  0.1634 -0.2779  0.5557
13917SOL    HW153729   7.278   6.869   3.173 -0.9299 -0.9676  1.7742
13917SOL    HW253730   7.219   6.999   3.225  0.2782 -0.0755  0.9559
13918SOL     OW53731   4.669   5.183   3.759 -0.1641 -0.1687  0.1533
13918SOL    HW153732   4.574   5.181   3.765 -0.2393  0.6830 -0.4922
13918SOL    HW253733   4.699   5.171   3.849 -0.8947 -0.0104  0.4291
13919SOL     OW53734   7.168   7.453   6.443 -0.5476 -0.0684 -0.8764
13919SOL    HW153735   7.214   7.498   6.515 -0.9942 -1.9009  0.6365
13919SOL    HW253736   7.238   7.419   6.388 -0.1919  1.0757 -1.1630
13920SOL     OW53737   9.582   3.593   4.022 -0.5649  0.0778  0.1070
13920SOL    HW153738   9.588   3.684   3.993  0.3670 -0.3273 -1.0667
13920SOL    HW253739   9.541   3.597   4.108 -0.4528  1.6097  0.1035
13921SOL     OW53740   3.383   7.787   2.001 -0.2112 -0.2626  0.0299
13921SOL    HW153741   3.478   7.784   1.990 -0.1191  0.4533  0.5243
13921SOL    HW253742   3.368   7.867   2.053 -1.1448  0.0675 -0.7280
13922SOL     OW53743   7.251   0.405   6.742  0.3127 -0.1776  0.0998
13922SOL    HW153744   7.282   0.442   6.824  0.0814 -0.8689  0.5131
13922SOL    HW253745   7.326   0.411   6.682  0.7963 -0.5456  0.6603
13923SOL     OW53746   9.487   8.048   4.942 -0.0014 -0.2215  0.2272
13923SOL    HW153747   9.517   8.052   5.033  1.4517 -0.9918 -0.1843
13923SOL    HW253748   9.539   8.115   4.897 -1.4666  0.8952  0.1303
13924SOL     OW53749   6.702   8.389   1.133  0.1289  0.8399  0.2259
13924SOL    HW153750   6.750   8.336   1.197 -0.4262 -1.2823 -1.0286
13924SOL    HW253751   6.762   8.396   1.058 -0.9184 -0.6247 -0.7939
13925SOL     OW53752   1.457   6.901   7.609  0.0122 -0.0974 -0.0798
13925SOL    HW153753   1.526   6.948   7.656 -1.7280 -0.3125  2.8839
13925SOL    HW253754   1.420   6.967   7.550  0.5447  0.9628  0.7326
13926SOL     OW53755   2.611  10.351   4.294 -0.1398 -0.5998  0.1486
13926SOL    HW153756   2.577  10.286   4.233 -1.5896  0.5620 -0.3561
13926SOL    HW253757   2.676  10.400   4.243  1.1065 -1.7509  0.5940
13927SOL     OW53758   4.412   0.961   8.329  0.2453  0.2112  0.0595
13927SOL    HW153759   4.367   0.891   8.282 -0.7295  0.7917  0.1045
13927SOL    HW253760   4.343   1.023   8.351  0.9055  0.6069  1.0692
13928SOL     OW53761   4.620   3.633   9.766 -0.6423 -0.1823  0.1597
13928SOL    HW153762   4.563   3.578   9.821 -0.8401 -1.1903 -0.9983
13928SOL    HW253763   4.622   3.588   9.682 -1.3583  1.9526 -1.0776
13929SOL     OW53764   4.413   6.822   4.364  1.0546  0.2607  0.5613
13929SOL    HW153765   4.468   6.783   4.433 -0.7103 -1.9138  0.8741
13929SOL    HW253766   4.420   6.760   4.291 -1.3557 -0.4576  0.8318
13930SOL     OW53767   5.878   2.754   2.432  0.1838  0.5399 -0.0958
13930SOL    HW153768   5.832   2.816   2.489  1.6570  3.4844 -1.9112
13930SOL    HW253769   5.816   2.737   2.361  0.4877  1.4518 -0.5776
13931SOL     OW53770   9.229   5.265   7.178 -0.2014 -0.5607 -0.1105
13931SOL    HW153771   9.218   5.272   7.272  0.0085  1.2311 -0.1747
13931SOL    HW253772   9.290   5.192   7.165 -1.7760 -2.1467  0.9782
13932SOL     OW53773   4.996   5.173   5.720 -0.1606 -0.3160 -0.2448
13932SOL    HW153774   4.950   5.187   5.803 -0.2532 -0.3723 -0.2875
13932SOL    HW253775   5.063   5.107   5.741  1.2435  1.2052  0.3221
13933SOL     OW53776   9.218   9.020   6.796 -0.2538 -0.2233 -0.1231
13933SOL    HW153777   9.233   8.928   6.775  0.0589  0.0324 -1.0313
13933SOL    HW253778   9.262   9.069   6.727  0.3025  0.6356  0.8023
13934SOL     OW53779   9.306   4.336  10.189  0.1558  0.1188  0.3640
13934SOL    HW153780   9.344   4.413  10.146  1.8533 -0.0703  1.4419
13934SOL    HW253781   9.291   4.365  10.279 -1.1096 -0.2197  0.2813
13935SOL     OW53782   3.687   1.497   0.400  0.3087 -0.2533 -0.3393
13935SOL    HW153783   3.690   1.423   0.339 -1.9921 -0.0131 -0.8344
13935SOL    HW253784   3.606   1.543   0.378 -0.1582  0.3667  2.2965
13936SOL     OW53785   4.209   0.075   8.160 -0.0688 -0.2301 -0.7040
13936SOL    HW153786   4.278   0.077   8.226  1.2649  1.0634 -2.0699
13936SOL    HW253787   4.139   0.129   8.198 -0.4755 -1.7085  0.7715
13937SOL     OW53788   0.898   3.518   4.494  0.4119  0.4356  0.6618
13937SOL    HW153789   0.846   3.597   4.510 -0.9647  0.3163 -2.4964
13937SOL    HW253790   0.965   3.544   4.431  0.6738 -0.6434  0.4633
13938SOL     OW53791   9.522   3.993   4.250  0.3948 -0.0887 -0.0622
13938SOL    HW153792   9.552   4.074   4.207  1.7691  0.4221  1.7564
13938SOL    HW253793   9.448   4.021   4.303 -1.5657 -0.7965 -2.2415
13939SOL     OW53794   5.730   5.819   0.305 -0.4742  0.1737  0.2213
13939SOL    HW153795   5.715   5.856   0.218 -0.1299 -2.3077 -0.9760
13939SOL    HW253796   5.797   5.875   0.344  0.1692  0.6952 -1.5654
13940SOL     OW53797   9.084   1.193   5.756 -0.2317 -0.3133  0.1108
13940SOL    HW153798   8.993   1.203   5.784 -0.4332 -0.1365 -0.5970
13940SOL    HW253799   9.085   1.223   5.665  0.9022  1.4110  0.6561
13941SOL     OW53800   0.837   7.885   0.425 -0.4500  0.3189 -0.9407
13941SOL    HW153801   0.811   7.944   0.354  1.5608  0.7613 -1.3590
13941SOL    HW253802   0.803   7.927   0.504 -1.8849  0.3131 -1.5249
13942SOL     OW53803  10.268   5.254   1.229 -0.3089  0.9743  0.2583
13942SOL    HW153804  10.363   5.264   1.240 -0.0457 -0.7310 -0.2240
13942SOL    HW253805  10.241   5.333   1.182  0.9895  1.1293 -0.2724
13943SOL     OW53806   4.464   7.126  10.203 -0.1482  0.0032 -0.5706
13943SOL    HW153807   4.470   7.221  10.210  1.6853  0.0452 -1.9119
13943SOL    HW253808   4.383   7.110  10.154 -1.1298  0.7458  0.7224
13944SOL     OW53809   8.852   5.846   5.053  0.2710  0.1009  0.1768
13944SOL    HW153810   8.809   5.929   5.073  1.4628  1.1034 -1.2590
13944SOL    HW253811   8.780   5.784   5.043 -0.6397  0.9262  1.2948
13945SOL     OW53812   0.516   2.718   2.468 -0.6722  1.0058 -0.0204
13945SOL    HW153813   0.583   2.694   2.533  0.6615 -0.0898 -1.7201
13945SOL    HW253814   0.556   2.787   2.416 -0.4174 -0.3119 -1.6640
13946SOL     OW53815   5.384   8.147   8.602 -0.1413 -0.4369  0.3312
13946SOL    HW153816   5.345   8.189   8.525  0.9875 -0.9247 -0.5469
13946SOL    HW253817   5.317   8.155   8.670 -0.4948  1.5423 -0.1804
13947SOL     OW53818   8.353   0.587   0.785  0.1000 -0.4894  0.1293
13947SOL    HW153819   8.315   0.598   0.872 -0.1422  0.1901 -0.0573
13947SOL    HW253820   8.279   0.596   0.725 -0.3127 -3.9366 -0.0706
13948SOL     OW53821   2.563   8.396   3.626 -0.3165 -0.6498  0.1320
13948SOL    HW153822   2.468   8.399   3.641 -0.7381 -0.7401 -2.2109
13948SOL    HW253823   2.573   8.363   3.537  1.9024  0.1740  0.0086
13949SOL     OW53824   3.928   2.022   3.962  0.7760 -0.4014  0.0433
13949SOL    HW153825   3.934   2.079   4.038  0.5951 -1.2433  0.7064
13949SOL    HW253826   3.872   1.950   3.991 -1.0199  0.2720 -1.5405
13950SOL     OW53827   9.357   6.018   1.872  0.6559  0.6586 -0.0935
13950SOL    HW153828   9.301   6.095   1.858 -0.9164  0.0067  2.0553
13950SOL    HW253829   9.372   6.017   1.967  2.2912 -0.5919 -0.3363
13951SOL     OW53830   4.443   2.638   5.121 -0.1696 -0.5824  0.0034
13951SOL    HW153831   4.348   2.634   5.114 -0.2832 -0.9233  1.3776
13951SOL    HW253832   4.465   2.574   5.189  1.0111 -0.3227 -0.1073
13952SOL     OW53833   1.324   3.308   1.710  0.3191 -0.5159 -0.3124
13952SOL    HW153834   1.347   3.232   1.765  1.6551  0.1126  0.0358
13952SOL    HW253835   1.239   3.336   1.743  0.8049 -0.5404  1.0274
13953SOL     OW53836   3.773   9.163   3.875 -0.4617 -0.2532 -0.3895
13953SOL    HW153837   3.743   9.073   3.877 -1.4950  0.0866  0.7592
13953SOL    HW253838   3.708   9.209   3.822  1.3130 -0.5453 -3.0173
13954SOL     OW53839   1.362   0.745  10.195 -0.2103  0.0391 -0.2741
13954SOL    HW153840   1.450   0.711  10.182 -0.4166 -0.3125 -0.7526
13954SOL    HW253841   1.330   0.763  10.107 -0.5528  0.3343 -0.0907
13955SOL     OW53842   2.591   6.576   0.555  0.0589 -0.8290  0.2092
13955SOL    HW153843   2.580   6.669   0.576  2.1263 -0.5599  0.3002
13955SOL    HW253844   2.545   6.564   0.472  0.5125  0.4798 -0.2470
13956SOL     OW53845   2.627   7.979   8.849  0.6796 -0.5048 -0.0967
13956SOL    HW153846   2.663   8.014   8.768 -1.2464  0.2328 -0.7017
13956SOL    HW253847   2.623   8.055   8.908 -4.4422  0.8881 -1.7409
13957SOL     OW53848   3.642   1.408   5.821  0.0830 -0.1108 -0.1193
13957SOL    HW153849   3.676   1.392   5.909 -1.0615 -0.2265  0.3141
13957SOL    HW253850   3.632   1.321   5.782  0.8623 -0.0478 -0.4859
13958SOL     OW53851   9.707   3.271   0.412  0.1062 -0.0208  0.1247
13958SOL    HW153852   9.687   3.185   0.374  0.3204  0.4703 -1.1210
13958SOL    HW253853   9.794   3.292   0.380 -0.8348  1.6915 -1.5199
13959SOL     OW53854   2.715   9.587   2.467  0.4031 -0.2383  0.4202
13959SOL    HW153855   2.782   9.526   2.495  2.2737  0.6308 -1.8155
13959SOL    HW253856   2.739   9.670   2.507  0.6801  0.0618 -0.3394
13960SOL     OW53857   7.830   3.047   7.148 -0.3093 -0.2100 -0.2221
13960SOL    HW153858   7.875   3.080   7.070  0.8343 -0.1397  0.4440
13960SOL    HW253859   7.862   2.957   7.157 -0.2728 -0.1476  0.2821
13961SOL     OW53860   9.171   0.690   6.921 -0.1022  0.2374  0.0298
13961SOL    HW153861   9.202   0.630   6.989 -0.0730 -0.5023 -0.6173
13961SOL    HW253862   9.081   0.711   6.947 -0.8028 -1.6369 -0.7293
13962SOL     OW53863   0.678   8.991   2.776  0.2237 -0.2288 -0.8643
13962SOL    HW153864   0.664   8.908   2.729 -0.8501  0.3222 -1.5746
13962SOL    HW253865   0.691   9.055   2.706  0.1911  0.3405 -0.3493
13963SOL     OW53866   7.863   0.569   6.925  0.8239  0.1984  0.9004
13963SOL    HW153867   7.881   0.570   6.831 -0.4409  0.1224  0.6351
13963SOL    HW253868   7.855   0.477   6.947  1.8427  0.1808  1.2492
13964SOL     OW53869   9.010   9.749   0.229  0.2376  0.4583  0.5691
13964SOL    HW153870   9.074   9.747   0.300 -0.5832 -1.1811  1.3141
13964SOL    HW253871   9.003   9.658   0.200 -0.5035  0.8834 -0.6528
13965SOL     OW53872   7.493   2.492   5.009  0.7073  0.1419  0.1144
13965SOL    HW153873   7.426   2.428   4.987  1.4555 -1.0694  1.2059
13965SOL    HW253874   7.517   2.472   5.100  1.2090  1.7586  0.3723
13966SOL     OW53875   6.390   8.413   0.738 -0.0462 -0.1823 -0.3235
13966SOL    HW153876   6.333   8.375   0.805 -1.0938 -1.4555 -1.8245
13966SOL    HW253877   6.424   8.337   0.690 -0.8343  0.6506 -2.3619
13967SOL     OW53878   5.597   8.697   4.595 -0.0357 -0.1076  0.7493
13967SOL    HW153879   5.566   8.785   4.615 -2.1444 -1.1236  2.2696
13967SOL    HW253880   5.556   8.641   4.660 -0.7922 -2.5757 -1.6386
13968SOL     OW53881   6.905   0.666   3.842  0.2144 -0.3525 -0.4517
13968SOL    HW153882   6.864   0.704   3.765  0.0198 -0.7856 -0.5653
13968SOL    HW253883   6.999   0.683   3.831  0.2123 -0.6367 -0.9066
13969SOL     OW53884   9.346   2.409   0.979 -0.3790  0.4402 -0.2677
13969SOL    HW153885   9.287   2.353   0.928  1.8039 -2.4442  0.1297
13969SOL    HW253886   9.294   2.434   1.055 -1.7370 -0.3331 -0.8900
13970SOL     OW53887   0.611   4.036   0.506  0.1468 -0.4561  0.1487
13970SOL    HW153888   0.548   4.099   0.541 -0.2058 -0.1504 -0.9929
13970SOL    HW253889   0.694   4.059   0.547  0.0440  0.8300 -0.3251
13971SOL     OW53890   8.837   5.916   8.429  0.2875  0.0343  0.6813
13971SOL    HW153891   8.904   5.856   8.397 -1.1363 -1.0691 -0.3661
13971SOL    HW253892   8.881   6.001   8.437  1.3982 -0.2683 -1.5772
13972SOL     OW53893   4.247   3.251   5.693  0.6257 -0.3294  0.0378
13972SOL    HW153894   4.320   3.295   5.649  0.3081  0.4608  0.2861
13972SOL    HW253895   4.246   3.162   5.656  1.7558 -0.3732  0.0964
13973SOL     OW53896   5.444   6.854   6.964  0.2594 -0.1083  0.0366
13973SOL    HW153897   5.529   6.855   6.920 -0.2518 -0.1305 -0.9887
13973SOL    HW253898   5.394   6.786   6.920  0.3492 -1.4896  1.9530
13974SOL     OW53899   0.458   7.344   7.716  0.0151 -0.5227 -0.3368
13974SOL    HW153900   0.431   7.412   7.777 -0.4311  0.4712 -1.5910
13974SOL    HW253901   0.522   7.292   7.765  0.9082  1.2212  0.4428
13975SOL     OW53902   1.676   9.596   5.230 -0.0189  0.4570  0.2154
13975SOL    HW153903   1.703   9.581   5.321  1.6398  0.7055 -0.2013
13975SOL    HW253904   1.586   9.629   5.237 -0.4098 -0.8092  1.6684
13976SOL     OW53905   2.939   7.806   2.693 -0.1066 -0.0500 -0.1349
13976SOL    HW153906   2.999   7.744   2.734 -0.2327 -0.4398 -0.5268
13976SOL    HW253907   2.973   7.817   2.604 -0.0372  0.5085 -0.0368
13977SOL     OW53908   5.486   9.490   0.026  0.3469 -0.0035  0.6843
13977SOL    HW153909   5.440   9.425  -0.027 -1.2337  0.7045  1.1143
13977SOL    HW253910   5.419   9.556   0.046  1.0333  0.0773  3.0201
13978SOL     OW53911   9.780   2.477   7.331 -0.0224 -0.5731 -0.2005
13978SOL    HW153912   9.843   2.526   7.383  0.9779 -1.2999 -0.7094
13978SOL    HW253913   9.709   2.457   7.392  0.1720  0.3536  0.3437
13979SOL     OW53914  10.357   2.425  10.041 -0.3082 -0.0661  0.5139
13979SOL    HW153915  10.407   2.354  10.081  0.8621  0.5809  0.2362
13979SOL    HW253916  10.410   2.503  10.056 -0.4259  0.3780 -1.2592
13980SOL     OW53917   8.813   4.474   9.264  0.1406  0.3522 -0.6933
13980SOL    HW153918   8.893   4.443   9.307 -0.6335 -0.1517  0.4232
13980SOL    HW253919   8.810   4.425   9.181  1.5306  1.1733 -1.2766
13981SOL     OW53920   5.757   4.587   6.464  0.0782  0.4154  0.0791
13981SOL    HW153921   5.671   4.582   6.423  0.2140 -1.6974 -0.0867
13981SOL    HW253922   5.739   4.615   6.554 -0.8798 -0.5389  0.2114
13982SOL     OW53923   7.694   1.151   2.672 -0.5649 -0.3998  0.4471
13982SOL    HW153924   7.711   1.230   2.620  0.3415 -1.1893 -0.5116
13982SOL    HW253925   7.612   1.169   2.718 -0.1994  1.2272  0.5212
13983SOL     OW53926   1.920   8.533   2.440 -0.1496  0.1363 -0.2909
13983SOL    HW153927   1.920   8.617   2.395  1.5810  0.2228 -0.1813
13983SOL    HW253928   1.891   8.552   2.529 -0.0348  0.5672 -0.3477
13984SOL     OW53929   8.945   5.545   5.142  0.4364  0.0922 -0.2524
13984SOL    HW153930   8.900   5.618   5.100  0.5508  0.9575  1.1002
13984SOL    HW253931   8.926   5.470   5.085  0.9330  1.2782 -2.0762
13985SOL     OW53932   0.227   5.953   3.010  0.6400 -0.2727  0.1294
13985SOL    HW153933   0.209   5.860   3.025  2.4546 -0.5377  0.9418
13985SOL    HW253934   0.306   5.953   2.956 -1.3601  0.8004 -3.0857
13986SOL     OW53935   4.744   6.575   3.842 -0.3225 -0.0861  0.4966
13986SOL    HW153936   4.732   6.516   3.768  1.4439  2.1134 -1.7637
13986SOL    HW253937   4.656   6.601   3.868 -0.9864 -0.9877 -0.7874
13987SOL     OW53938   9.022   0.720   8.814  0.2065 -0.0008 -0.3747
13987SOL    HW153939   9.109   0.760   8.818 -0.2821  1.0293  0.7967
13987SOL    HW253940   8.969   0.775   8.871 -0.7039 -1.8921  0.6772
13988SOL     OW53941   9.840   4.177   3.997  0.0783  0.3054 -0.0028
13988SOL    HW153942   9.810   4.258   3.957  0.7783  0.7907  0.4254
13988SOL    HW253943   9.792   4.172   4.080  0.7832  0.8197  0.4465
13989SOL     OW53944   6.869   8.577   8.639 -0.3383 -0.1546  0.1840
13989SOL    HW153945   6.929   8.648   8.616 -0.3739 -0.2315 -0.1494
13989SOL    HW253946   6.816   8.612   8.710 -1.1986  0.6049 -0.7962
13990SOL     OW53947   9.165   0.722   7.862  0.0242 -0.1377 -0.6425
13990SOL    HW153948   9.097   0.688   7.804 -0.9950  1.0182 -0.1596
13990SOL    HW253949   9.120   0.738   7.945  0.8822  0.6900 -0.3159
13991SOL     OW53950   7.867   3.336   7.058 -0.6739 -0.2356 -0.0897
13991SOL    HW153951   7.894   3.366   6.972 -0.2513 -0.4179 -0.0254
13991SOL    HW253952   7.804   3.266   7.040  0.8129 -1.5975 -0.3061
13992SOL     OW53953  10.323   9.094   3.283 -0.2046  0.7935 -0.5976
13992SOL    HW153954  10.299   9.073   3.193 -0.2578  0.3290 -0.4790
13992SOL    HW253955  10.242   9.128   3.322 -0.7185 -0.8096 -0.1865
13993SOL     OW53956   1.338   2.165   9.951 -0.0852 -0.3140  0.1747
13993SOL    HW153957   1.249   2.183   9.920  0.2053  0.4671 -0.2272
13993SOL    HW253958   1.393   2.223   9.900  0.6768 -0.8875  0.3345
13994SOL     OW53959   1.728   8.334   1.614  0.3675  0.1856  0.8177
13994SOL    HW153960   1.759   8.395   1.681 -1.2257  0.8933  0.9516
13994SOL    HW253961   1.678   8.388   1.554 -0.1988 -0.8315  0.3470
13995SOL     OW53962   2.466   1.817   8.724  0.5073 -0.6791  0.2217
13995SOL    HW153963   2.556   1.785   8.727  1.4364  1.6997 -0.0356
13995SOL    HW253964   2.468   1.898   8.775 -1.3628 -0.2748 -0.2769
13996SOL     OW53965   1.853   9.147   2.033  0.4638  0.2195  0.1977
13996SOL    HW153966   1.850   9.242   2.043  3.1196  0.3826  0.0284
13996SOL    HW253967   1.855   9.132   1.939 -1.5571 -0.1568  0.1583
13997SOL     OW53968   6.952  10.022   9.955  0.4095  0.2401 -0.1834
13997SOL    HW153969   7.033  10.041   9.907 -0.4593 -1.0117 -2.3404
13997SOL    HW253970   6.958   9.928   9.973  0.6490  0.6456  2.2219
13998SOL     OW53971   7.056   9.369   2.968  0.2979  0.2723  0.0248
13998SOL    HW153972   7.053   9.274   2.968  1.2309  0.2388  0.1152
13998SOL    HW253973   7.148   9.391   2.956 -0.1407  1.1766 -2.1336
13999SOL     OW53974   6.260   1.941   5.699 -0.0220  0.4039 -0.3026
13999SOL    HW153975   6.247   2.014   5.638  3.9329  1.7301  0.1872
13999SOL    HW253976   6.250   1.980   5.786 -0.2257 -0.2331 -0.0305
14000SOL     OW53977   9.749   5.758   6.057 -0.3539 -0.3787 -0.1678
14000SOL    HW153978   9.745   5.674   6.011  0.6492 -1.3882  1.5016
14000SOL    HW253979   9.842   5.781   6.059 -0.6437  0.9622 -0.8827
14001SOL     OW53980   8.955   4.772   2.288 -0.0621  0.7425  0.1745
14001SOL    HW153981   8.880   4.716   2.267 -0.5926  1.3001  0.5572
14001SOL    HW253982   9.025   4.711   2.308 -0.6077  0.2097  0.4961
14002SOL     OW53983   5.895   2.189   5.307 -0.1494 -0.3049  0.8372
14002SOL    HW153984   5.917   2.280   5.287  0.4170 -0.3538  1.2243
14002SOL    HW253985   5.917   2.142   5.226 -0.6120 -0.0722  0.5753
14003SOL     OW53986   7.790   6.953   3.245  0.5176  0.2487 -0.3793
14003SOL    HW153987   7.728   6.992   3.306 -0.3278 -2.8588  0.9285
14003SOL    HW253988   7.872   6.948   3.294  0.5057 -0.0070 -0.3861
14004SOL     OW53989   6.817   2.802   5.188  0.5249  0.4176 -0.3957
14004SOL    HW153990   6.779   2.736   5.130  0.8153  0.5562 -0.7441
14004SOL    HW253991   6.745   2.861   5.207  0.2443 -0.0269 -0.0295
14005SOL     OW53992   2.839   0.306   3.431  0.1071  0.1020  0.6776
14005SOL    HW153993   2.893   0.343   3.501  0.2447 -0.1487  0.7059
14005SOL    HW253994   2.751   0.304   3.467 -0.1571  1.6240  0.2114
14006SOL     OW53995   3.309   8.405   9.294 -0.2175  0.5330 -0.1600
14006SOL    HW153996   3.214   8.413   9.306 -0.2243  1.0709 -0.5315
14006SOL    HW253997   3.346   8.462   9.361 -0.1359 -0.1909  0.4186
14007SOL     OW53998   7.222   4.387   8.625 -0.3924 -0.5761 -0.0642
14007SOL    HW153999   7.318   4.393   8.625 -0.3787 -0.7512  0.1145
14007SOL    HW254000   7.193   4.460   8.571 -0.1424 -0.8019 -0.5120
14008SOL     OW54001   7.598   8.484   6.344 -0.6699 -0.1115  0.0693
14008SOL    HW154002   7.579   8.392   6.363  0.5967 -0.4163 -0.0068
14008SOL    HW254003   7.634   8.518   6.426  2.6281 -0.8105 -0.9051
14009SOL     OW54004   0.049   6.933   4.024 -0.2687  0.2103  0.1812
14009SOL    HW154005   0.068   6.910   4.115 -0.8891  0.4762  0.3798
14009SOL    HW254006  -0.046   6.940   4.021 -0.3572 -1.0931 -0.7941
14010SOL     OW54007   8.595   5.465   9.667 -0.4509  0.0864 -0.8159
14010SOL    HW154008   8.669   5.525   9.654 -1.2548  0.8027 -2.3194
14010SOL    HW254009   8.635   5.379   9.678  0.6564  0.6447 -0.3032
14011SOL     OW54010  10.187   1.699   5.502 -0.3025 -0.3289  0.4260
14011SOL    HW154011  10.236   1.669   5.425 -2.5311 -0.9799 -0.8400
14011SOL    HW254012  10.199   1.794   5.502 -0.1286 -0.3294 -0.6627
14012SOL     OW54013   9.275   0.642   6.290  0.6358 -0.2297 -0.1963
14012SOL    HW154014   9.228   0.677   6.214  0.2845  1.0109  0.5548
14012SOL    HW254015   9.310   0.558   6.260  0.8282  0.3959 -1.8438
14013SOL     OW54016   3.406   9.250   5.268  0.5931 -0.5737 -0.1915
14013SOL    HW154017   3.403   9.256   5.364  1.2523 -1.3480 -0.1104
14013SOL    HW254018   3.355   9.325   5.238 -0.1660 -0.6686  0.7725
14014SOL     OW54019   9.426   2.779   8.000 -0.3534  0.4219 -0.0518
14014SOL    HW154020   9.519   2.771   7.979 -0.6548 -0.3571 -1.2304
14014SOL    HW254021   9.424   2.806   8.092  1.0237 -0.6503  0.3281
14015SOL     OW54022   4.133   1.472   8.953 -0.3160  0.1154 -0.6032
14015SOL    HW154023   4.100   1.407   8.890 -1.6295 -1.4381  1.5109
14015SOL    HW254024   4.054   1.515   8.986 -0.1401 -1.4149  2.2411
14016SOL     OW54025   5.145   0.340   2.199 -0.1938  0.9862  0.0328
14016SOL    HW154026   5.168   0.431   2.180  1.5481  0.5332 -0.2285
14016SOL    HW254027   5.219   0.307   2.250 -1.3376  0.0354  1.1591
14017SOL     OW54028   2.199   6.374   4.356 -0.0733 -0.1025 -0.2492
14017SOL    HW154029   2.291   6.381   4.382 -0.3095  1.3740  0.3127
14017SOL    HW254030   2.188   6.444   4.291 -0.8936 -0.0193 -0.0207
14018SOL     OW54031   7.726   2.114   7.625 -0.0111 -0.3830  0.1271
14018SOL    HW154032   7.793   2.149   7.566 -0.2925 -0.3472 -0.1765
14018SOL    HW254033   7.643   2.149   7.591  0.0208  1.7398  2.0469
14019SOL     OW54034   3.280   6.756   0.794  0.2070 -0.4420 -0.2398
14019SOL    HW154035   3.325   6.838   0.775  0.8328 -0.0614  2.3816
14019SOL    HW254036   3.344   6.706   0.846 -0.7113 -1.9504 -0.5029
14020SOL     OW54037   5.405   2.155   9.392 -0.1239 -0.2415  0.6532
14020SOL    HW154038   5.342   2.093   9.357 -0.7262  0.9643 -0.4798
14020SOL    HW254039   5.483   2.144   9.337 -0.4198  0.3600  0.1014
14021SOL     OW54040   6.186   6.470   9.704 -0.4364 -0.0594  0.0344
14021SOL    HW154041   6.257   6.489   9.643 -0.7666 -2.1673 -1.1333
14021SOL    HW254042   6.106   6.480   9.652 -0.8774  0.4152  0.7912
14022SOL     OW54043   5.350   9.935   6.162 -0.1123  0.3339  0.6396
14022SOL    HW154044   5.267   9.893   6.185  0.9064 -1.3980  1.3465
14022SOL    HW254045   5.392   9.874   6.102  1.2492  0.5241  1.3619
14023SOL     OW54046   3.596   6.227   0.695 -0.6514 -0.2215 -0.5561
14023SOL    HW154047   3.676   6.190   0.732  0.1136 -0.0172 -1.9166
14023SOL    HW254048   3.554   6.271   0.768  1.6099  1.5543 -0.1904
14024SOL     OW54049   0.582   6.793   9.797  0.4395 -0.0033  0.4791
14024SOL    HW154050   0.635   6.722   9.760  0.6592  0.0830  0.6274
14024SOL    HW254051   0.500   6.750   9.824 -0.0696  0.0806 -0.8615
14025SOL     OW54052   1.894   8.446   7.688  0.2944 -0.1905 -0.1751
14025SOL    HW154053   1.799   8.431   7.695  0.4914 -2.5769 -1.7109
14025SOL    HW254054   1.902   8.525   7.634 -0.8123  0.1410  0.1234
14026SOL     OW54055   9.088   1.005   6.254 -0.0417  0.2733 -0.3431
14026SOL    HW154056   9.065   0.993   6.346  0.2553 -0.8341 -0.3970
14026SOL    HW254057   9.136   1.088   6.252  0.1529  0.1935  0.5415
14027SOL     OW54058   2.637   6.820   5.381 -0.3794  0.1145  0.1202
14027SOL    HW154059   2.731   6.834   5.393 -0.4436 -0.2089  1.0177
14027SOL    HW254060   2.630   6.729   5.352 -0.3262  0.5137 -1.2031
14028SOL     OW54061   9.337   2.099   4.832 -0.2644 -0.6526 -0.1856
14028SOL    HW154062   9.382   2.025   4.874  0.5047 -0.7108 -1.0622
14028SOL    HW254063   9.317   2.067   4.744 -0.2600  0.0555 -0.4505
14029SOL     OW54064   8.345   5.284   3.612 -0.3696 -0.1531 -0.5805
14029SOL    HW154065   8.431   5.326   3.605 -0.0732 -0.8060 -0.9919
14029SOL    HW254066   8.360   5.194   3.582 -1.2686 -0.1808 -0.9693
14030SOL     OW54067   7.887   2.747   8.541 -0.3884  0.1042  0.1062
14030SOL    HW154068   7.923   2.751   8.452 -0.3813 -0.2684  0.0894
14030SOL    HW254069   7.960   2.720   8.596  0.0215  1.8760  0.4841
14031SOL     OW54070   9.482   3.758   3.726  0.1371 -0.1461  0.1092
14031SOL    HW154071   9.439   3.798   3.802 -1.1563 -1.8371  0.3309
14031SOL    HW254072   9.575   3.761   3.747 -0.0605  1.0597  0.9177
14032SOL     OW54073   4.063   8.541   2.271 -0.6775  0.2477  0.0692
14032SOL    HW154074   4.072   8.498   2.356  1.5271  1.3073  0.4314
14032SOL    HW254075   4.134   8.506   2.218  0.4105  2.4504 -0.0306
14033SOL     OW54076   7.314   8.502   3.177  0.1132 -0.1162 -0.2440
14033SOL    HW154077   7.382   8.570   3.175 -0.3157  0.4788  2.4708
14033SOL    HW254078   7.234   8.549   3.152  0.2519 -0.2540 -0.9735
14034SOL     OW54079   5.882   7.457   9.001 -0.4153  0.0529 -0.0409
14034SOL    HW154080   5.972   7.472   9.031 -1.0441  0.2533  1.8275
14034SOL    HW254081   5.884   7.482   8.908  1.7452 -1.1971 -0.4024
14035SOL     OW54082   2.001   5.073   9.506  0.5032 -0.4002  0.2152
14035SOL    HW154083   1.921   5.032   9.473  0.8058 -0.1856 -0.8191
14035SOL    HW254084   2.067   5.052   9.441  0.9081  0.8270  0.1929
14036SOL     OW54085   3.916   2.319   7.965  0.1860 -0.2928  0.2154
14036SOL    HW154086   3.836   2.341   8.013  0.6364  1.4729  0.2326
14036SOL    HW254087   3.927   2.225   7.977 -0.8283 -0.2334  1.8396
14037SOL     OW54088   3.689  10.075  10.110  0.2393  0.0764  0.0704
14037SOL    HW154089   3.639  10.034  10.181 -0.8419  0.9182 -0.1817
14037SOL    HW254090   3.772  10.027  10.109 -0.7435 -1.7410  0.1384
14038SOL     OW54091   2.043   8.041   1.312  0.2173 -0.2320 -0.0105
14038SOL    HW154092   2.016   8.058   1.222  2.6860  0.7347 -0.6472
14038SOL    HW254093   2.009   8.115   1.362  2.5612  1.6471 -1.0179
14039SOL     OW54094   3.140  10.126  10.317  0.2616 -0.0571  0.1066
14039SOL    HW154095   3.134  10.158  10.407  0.5671  2.2150 -0.6422
14039SOL    HW254096   3.233  10.109  10.303  0.0266 -2.3084  0.7686
14040SOL     OW54097   3.225   8.357   4.169  0.1231 -0.0216 -0.3159
14040SOL    HW154098   3.133   8.378   4.186  0.1316  0.1508 -0.4784
14040SOL    HW254099   3.237   8.271   4.209 -0.4791 -0.6809 -1.4906
14041SOL     OW54100   2.389   3.233   0.639  0.4653 -0.2320 -0.9648
14041SOL    HW154101   2.375   3.307   0.580  1.5553  0.1420 -0.7760
14041SOL    HW254102   2.356   3.262   0.724  0.6929 -0.0418 -0.9415
14042SOL     OW54103   2.456   0.116   6.074 -0.2828  0.2226  0.0120
14042SOL    HW154104   2.382   0.168   6.042 -0.4315 -0.3398 -0.5592
14042SOL    HW254105   2.453   0.127   6.169  0.4186  2.2503 -0.1503
14043SOL     OW54106   2.257   6.889   6.724 -0.4105  0.4313  0.1464
14043SOL    HW154107   2.316   6.817   6.703  0.1151  1.4000 -1.9223
14043SOL    HW254108   2.171   6.847   6.732  0.0502 -0.5694  0.0196
14044SOL     OW54109   2.837   3.216   1.791 -0.1647  0.3633 -0.1562
14044SOL    HW154110   2.836   3.170   1.875  0.4307  1.4298  0.4525
14044SOL    HW254111   2.759   3.272   1.794 -0.5785 -0.1768 -0.6570
14045SOL     OW54112   9.720   0.793   0.365 -0.4361 -0.6867 -0.4585
14045SOL    HW154113   9.704   0.701   0.387 -0.8131 -0.3142  0.8792
14045SOL    HW254114   9.647   0.817   0.308 -0.1383 -1.3099 -1.1164
14046SOL     OW54115   1.313   2.102   3.908 -0.1317 -0.0189 -0.5911
14046SOL    HW154116   1.296   2.063   3.994 -3.0876 -0.3449 -1.2142
14046SOL    HW254117   1.331   2.194   3.927 -0.6970 -0.0879  0.3752
14047SOL     OW54118   4.055   0.577   4.627  0.6149 -0.1102 -0.1413
14047SOL    HW154119   4.136   0.526   4.630  0.0865 -0.9305  0.8397
14047SOL    HW254120   3.999   0.537   4.694 -0.2008  1.1226 -0.0497
14048SOL     OW54121   8.338   0.575   6.561 -0.1255 -0.4906  0.3405
14048SOL    HW154122   8.331   0.632   6.637  1.9579  0.3768 -0.0621
14048SOL    HW254123   8.413   0.519   6.581 -0.3726 -1.1448 -0.5267
14049SOL     OW54124   6.933   0.701   8.977 -0.4995 -0.2100 -1.0090
14049SOL    HW154125   6.869   0.638   8.944  0.7552 -2.8455  1.1692
14049SOL    HW254126   7.018   0.663   8.956  0.5007  2.7396 -2.9716
14050SOL     OW54127   6.096   2.934   3.184 -0.1389  0.4287  0.2708
14050SOL    HW154128   6.096   2.853   3.133  0.8404  1.0414 -0.7667
14050SOL    HW254129   6.087   3.004   3.118  0.5951  1.2219  0.9809
14051SOL     OW54130   4.526   9.148  10.032  0.4241 -0.8838 -0.1301
14051SOL    HW154131   4.474   9.075   9.998 -0.1646 -0.8181  0.5953
14051SOL    HW254132   4.493   9.161  10.122  1.9878 -1.1111  0.5005
14052SOL     OW54133   8.356   2.929   8.115  0.1755  0.7802  0.1226
14052SOL    HW154134   8.337   3.007   8.168  0.0127  1.2031 -0.5497
14052SOL    HW254135   8.271   2.898   8.086  0.2423  0.3583  0.3624
14053SOL     OW54136   5.386   0.363   5.578 -0.0084 -0.5214  0.1149
14053SOL    HW154137   5.378   0.300   5.650  0.7986  0.0675  0.7370
14053SOL    HW254138   5.457   0.327   5.524 -1.0251 -1.2862 -0.7396
14054SOL     OW54139   3.091   1.933   1.759  0.3067 -0.1281 -0.2637
14054SOL    HW154140   3.058   1.846   1.736  0.6395 -0.2646 -0.2213
14054SOL    HW254141   3.028   1.994   1.720 -1.7711 -0.4147  2.3544
14055SOL     OW54142   5.350   0.040   5.549 -0.2236 -0.1906 -0.0237
14055SOL    HW154143   5.445   0.035   5.556 -0.2541 -0.6174  0.0735
14055SOL    HW254144   5.320   0.065   5.636 -0.2814 -1.2142  0.2658
14056SOL     OW54145   9.424   6.152   6.510  0.2332 -0.0965 -0.0905
14056SOL    HW154146   9.456   6.242   6.514 -1.2789  0.4361  1.3788
14056SOL    HW254147   9.463   6.116   6.431  0.6490  1.9471 -0.8812
14057SOL     OW54148   8.513   0.116   4.451 -0.0141 -0.1068 -0.0030
14057SOL    HW154149   8.506   0.197   4.402 -1.8217 -0.2030  0.0577
14057SOL    HW254150   8.433   0.068   4.432  0.2155 -1.1001  1.3445
14058SOL     OW54151   6.765   6.856   9.567  0.8648  0.0955 -0.2687
14058SOL    HW154152   6.859   6.872   9.564  0.6133  2.0588  0.4960
14058SOL    HW254153   6.730   6.904   9.491  0.3412  0.7348  0.3627
14059SOL     OW54154   1.831  10.262   9.548  0.1023  0.3957 -0.5762
14059SOL    HW154155   1.761  10.209   9.509  0.4563 -2.1017  1.8308
14059SOL    HW254156   1.790  10.346   9.567 -1.4368 -0.0525 -1.7122
14060SOL     OW54157   3.644   3.962   0.473  0.4490 -0.1422  0.2329
14060SOL    HW154158   3.665   4.046   0.514  0.6162 -0.2807  0.4316
14060SOL    HW254159   3.727   3.934   0.434  0.8265 -1.0115  1.5803
14061SOL     OW54160   9.218   2.452   8.080  0.5660 -0.2602  0.4450
14061SOL    HW154161   9.180   2.537   8.099 -0.3360 -0.6658  0.5214
14061SOL    HW254162   9.201   2.400   8.159  0.1147 -0.8385 -0.0194
14062SOL     OW54163   1.856   5.544   7.316  0.0546 -0.0737 -0.0145
14062SOL    HW154164   1.873   5.501   7.399  0.8910  1.0772  0.4268
14062SOL    HW254165   1.893   5.485   7.250 -0.4821 -0.9136  0.4261
14063SOL     OW54166   7.722   3.100   3.212 -0.2622  0.1023  0.3158
14063SOL    HW154167   7.725   3.045   3.134 -0.4970  2.9141 -1.8162
14063SOL    HW254168   7.629   3.112   3.229 -0.2222  0.6351  0.1619
14064SOL     OW54169   8.021   1.075   9.596 -0.1384  0.0246  0.0685
14064SOL    HW154170   8.072   0.998   9.622 -3.2508 -1.9665  0.7560
14064SOL    HW254171   7.965   1.043   9.525 -1.9490  1.4675  0.7939
14065SOL     OW54172   4.401   2.220   1.012  0.3252  0.3150 -0.3140
14065SOL    HW154173   4.404   2.316   1.011 -0.4125  0.3552  0.3152
14065SOL    HW254174   4.470   2.194   0.951 -0.2333  1.2550 -1.3850
14066SOL     OW54175   9.745   9.337   4.022  0.0722  0.8069  0.3108
14066SOL    HW154176   9.812   9.387   3.975  1.7554 -3.2705 -2.0993
14066SOL    HW254177   9.664   9.351   3.972  0.6271  0.7277 -0.6186
14067SOL     OW54178   3.363   3.744   0.243  0.0488 -0.8583 -0.6558
14067SOL    HW154179   3.412   3.749   0.325 -0.8621 -0.3827 -0.1222
14067SOL    HW254180   3.285   3.797   0.258  1.0009  1.3209 -2.6416
14068SOL     OW54181   3.025   2.255   1.331  0.4523 -0.4622 -0.0489
14068SOL    HW154182   3.092   2.294   1.274  1.0088  1.9108  2.0453
14068SOL    HW254183   3.059   2.168   1.352  1.0115 -0.7507 -1.9738
14069SOL     OW54184   5.696   3.858   6.532 -0.4170  0.3343  0.3448
14069SOL    HW154185   5.697   3.789   6.466  0.4754  1.3842 -0.7820
14069SOL    HW254186   5.667   3.936   6.484  0.6279  1.2071  1.0868
14070SOL     OW54187   1.561   4.644   4.902 -0.2001 -0.9977  0.3183
14070SOL    HW154188   1.470   4.626   4.879 -0.0494 -0.3542 -0.8954
14070SOL    HW254189   1.566   4.629   4.996 -1.3212 -2.0037  0.2383
14071SOL     OW54190   9.621   7.855   3.694 -0.1494  0.2160  0.1957
14071SOL    HW154191   9.647   7.940   3.658  1.3509  0.2166  1.1765
14071SOL    HW254192   9.602   7.873   3.786 -0.0544 -0.4620  0.3522
14072SOL     OW54193   7.103   8.886   6.293 -0.6138  0.2121  0.0325
14072SOL    HW154194   7.071   8.922   6.375  0.5148 -0.0755  0.6039
14072SOL    HW254195   7.143   8.960   6.248 -0.5254  0.1981  0.0896
14073SOL     OW54196   7.953   9.677   4.052  0.1532 -0.2581 -0.2110
14073SOL    HW154197   7.894   9.694   3.979 -0.5147  0.8737  0.5528
14073SOL    HW254198   7.896   9.681   4.129  1.1491  0.4345  0.5099
14074SOL     OW54199   8.380   4.631   9.065 -0.1865 -0.0534  0.5391
14074SOL    HW154200   8.352   4.681   9.141 -0.6566  0.3564  0.1059
14074SOL    HW254201   8.312   4.647   8.999 -0.3674 -1.2759  0.3959
14075SOL     OW54202   8.381   8.370   6.719  0.1627  0.3786  0.1476
14075SOL    HW154203   8.392   8.425   6.642  0.0151 -0.9860 -0.8992
14075SOL    HW254204   8.457   8.311   6.717  0.4267  0.6542  1.3376
14076SOL     OW54205   5.844   3.029   5.820  0.9200 -0.0238 -0.6268
14076SOL    HW154206   5.924   3.029   5.767  0.8145  0.2661 -0.7869
14076SOL    HW254207   5.781   2.978   5.769  0.7574  0.4212 -0.8766
14077SOL     OW54208   4.119   0.005  10.113  0.0528 -0.0558  0.5922
14077SOL    HW154209   4.028   0.009  10.085 -0.0061 -1.3071  0.5287
14077SOL    HW254210   4.158   0.088  10.084 -0.7705 -0.0172 -0.4348
14078SOL     OW54211   5.560   8.575   8.361 -0.3222 -0.1600  0.4414
14078SOL    HW154212   5.532   8.650   8.413  0.1481  2.1186 -2.3808
14078SOL    HW254213   5.483   8.552   8.309  0.4253  0.5037 -1.0229
14079SOL     OW54214   1.357   8.147   5.698  0.2793 -0.2009 -0.2908
14079SOL    HW154215   1.319   8.234   5.690 -1.8072 -1.1041 -1.0030
14079SOL    HW254216   1.421   8.142   5.627 -0.0955  0.4846 -0.6841
14080SOL     OW54217   9.021   1.397   6.266  0.6172  0.3007  0.8837
14080SOL    HW154218   9.098   1.381   6.321  1.1707 -1.1920 -0.2619
14080SOL    HW254219   9.054   1.451   6.194  0.6907 -0.6447  0.1993
14081SOL     OW54220   9.489   4.881   9.896  0.1642  0.2440  0.1301
14081SOL    HW154221   9.478   4.947   9.827  0.9884  0.7874  0.5059
14081SOL    HW254222   9.414   4.896   9.954  0.4401  0.9784  0.3097
14082SOL     OW54223   5.013   9.670   1.597  0.6648 -0.6549 -0.1609
14082SOL    HW154224   5.051   9.638   1.515  0.2724  0.3956 -0.7691
14082SOL    HW254225   4.966   9.750   1.572 -0.2677 -0.8427  0.9202
14083SOL     OW54226   3.849   6.821   8.575 -0.2651  0.3298  0.6611
14083SOL    HW154227   3.812   6.894   8.624  0.3271  1.5398 -0.6240
14083SOL    HW254228   3.777   6.789   8.520 -1.1874 -1.5960  2.8225
14084SOL     OW54229   3.912   7.971   3.478  0.3789  0.1577 -0.3288
14084SOL    HW154230   3.968   7.924   3.540  0.7275  0.1682 -0.6300
14084SOL    HW254231   3.964   7.976   3.398 -0.3845 -0.5752 -0.8937
14085SOL     OW54232   0.176   6.332   0.310  0.4227 -0.0456 -0.1917
14085SOL    HW154233   0.095   6.325   0.362  0.6000  0.1148  0.1099
14085SOL    HW254234   0.193   6.426   0.307  0.1310 -0.0076 -0.9848
14086SOL     OW54235   5.920   8.997   9.873 -0.1157 -0.2592 -0.2963
14086SOL    HW154236   5.994   9.028   9.822  0.5942 -0.0993  0.8106
14086SOL    HW254237   5.843   9.018   9.819  0.2928  3.2577  0.2493
14087SOL     OW54238   8.425   6.552   3.644 -0.3652 -0.9028  0.3311
14087SOL    HW154239   8.391   6.627   3.693  2.7736  1.6272 -0.9761
14087SOL    HW254240   8.492   6.515   3.701  0.4182 -0.5419 -0.3273
14088SOL     OW54241   7.005  10.261   3.366  0.5910  0.5748  0.2652
14088SOL    HW154242   6.978  10.347   3.335 -1.0695  0.2950  0.8088
14088SOL    HW254243   6.947  10.200   3.320  1.1674 -0.1818  0.5252
14089SOL     OW54244   4.697   2.070   5.421 -0.6288 -0.3476 -0.2632
14089SOL    HW154245   4.758   2.142   5.439 -0.1364 -0.5848 -0.9493
14089SOL    HW254246   4.629   2.110   5.366 -0.5902 -0.3018 -0.2778
14090SOL     OW54247  10.140   6.833   4.915  0.6100  0.0033  0.0065
14090SOL    HW154248  10.143   6.850   5.009  0.6232 -1.0338  0.1993
14090SOL    HW254249  10.049   6.812   4.897  0.7276 -0.4353 -0.0923
14091SOL     OW54250   5.556   5.056   3.530 -0.1200  0.1361 -0.1179
14091SOL    HW154251   5.506   4.975   3.522  0.2143 -0.0955  0.1425
14091SOL    HW254252   5.617   5.054   3.457 -1.1338  0.8875 -1.0349
14092SOL     OW54253   9.726   0.825   6.266 -0.5146  0.2499 -0.5876
14092SOL    HW154254   9.721   0.731   6.282 -2.0593  0.6090  1.5029
14092SOL    HW254255   9.636   0.850   6.243 -0.2410  1.3040 -0.5580
14093SOL     OW54256   7.683   3.489   9.953 -0.5736  0.3004  0.1258
14093SOL    HW154257   7.660   3.498   9.860  0.9711 -0.0625 -0.3291
14093SOL    HW254258   7.689   3.394   9.966  1.8468  0.3552 -0.1506
14094SOL     OW54259  10.274  10.012   0.211  0.1734  0.0763  0.2882
14094SOL    HW154260  10.237  10.059   0.137 -2.9661 -1.9039  0.3713
14094SOL    HW254261  10.357   9.978   0.180  0.2079  1.5718 -1.3548
14095SOL     OW54262   0.130   7.390   3.747  0.2741 -0.4563  0.0860
14095SOL    HW154263   0.037   7.393   3.725  0.2640  1.0422  0.1949
14095SOL    HW254264   0.137   7.324   3.815 -0.4459 -1.7175 -1.0174
14096SOL     OW54265   3.388   0.394   6.583  0.0776 -0.5658  0.4826
14096SOL    HW154266   3.306   0.419   6.542 -0.4631 -1.9746  0.6589
14096SOL    HW254267   3.418   0.473   6.628 -0.1965  0.5003 -1.1391
14097SOL     OW54268   1.528  10.170   0.786  0.8955  0.4768 -0.0272
14097SOL    HW154269   1.510  10.220   0.707  2.2432 -0.2222 -0.8075
14097SOL    HW254270   1.622  10.156   0.785  0.4739 -3.6356 -0.8992
14098SOL     OW54271   8.265   9.188   9.776  0.3013  0.2430 -0.1780
14098SOL    HW154272   8.183   9.229   9.804  0.3193 -0.1278  0.4238
14098SOL    HW254273   8.237   9.108   9.731  0.3587 -0.6300  1.2615
14099SOL     OW54274   3.354   6.808   9.402  0.2001 -0.6642  0.4119
14099SOL    HW154275   3.343   6.808   9.497 -0.1114  1.5785  0.4270
14099SOL    HW254276   3.275   6.765   9.370 -0.5897  0.1858  1.1358
14100SOL     OW54277   1.575   8.691   9.842 -0.3900 -0.6159 -0.7382
14100SOL    HW154278   1.623   8.723   9.765 -0.3579 -2.4225 -1.5340
14100SOL    HW254279   1.629   8.718   9.916  1.1497 -1.3474 -1.5380
14101SOL     OW54280   6.246   7.774   9.048 -0.1155 -0.2998  0.1392
14101SOL    HW154281   6.293   7.785   8.966 -0.8691 -2.8737 -0.7503
14101SOL    HW254282   6.157   7.804   9.029 -0.8814 -2.8224 -0.7918
14102SOL     OW54283   7.514   5.206   3.426 -0.5532  0.4523  0.6405
14102SOL    HW154284   7.548   5.272   3.365  1.4560  0.3884  1.6074
14102SOL    HW254285   7.492   5.255   3.505  0.8589  0.0475  1.3300
14103SOL     OW54286   4.480   8.949   7.151 -0.3907  0.0599 -0.0328
14103SOL    HW154287   4.423   9.026   7.147 -0.2220  0.1426 -1.3831
14103SOL    HW254288   4.518   8.943   7.063  0.8878 -0.6023  0.5423
14104SOL     OW54289   2.923   3.184   7.580 -0.1269  0.3425 -0.6291
14104SOL    HW154290   3.000   3.128   7.569 -0.2634  0.1554 -0.6437
14104SOL    HW254291   2.849   3.125   7.567 -0.2734  0.4970 -0.4965
14105SOL     OW54292   9.446   6.946   6.682 -0.1149  0.7132 -0.0227
14105SOL    HW154293   9.476   6.889   6.753  2.3472  1.7118 -0.1558
14105SOL    HW254294   9.375   6.997   6.721 -1.6204 -1.5628  0.4239
14106SOL     OW54295   2.855  10.242   8.789  0.2704 -0.4732 -0.3467
14106SOL    HW154296   2.760  10.248   8.800  0.1609 -0.2268 -1.3341
14106SOL    HW254297   2.891  10.307   8.849 -0.1942 -0.4696 -0.0712
14107SOL     OW54298  10.363   2.744   5.710  0.8108 -0.1442 -0.5612
14107SOL    HW154299  10.332   2.727   5.799  2.0462 -0.2554 -0.1330
14107SOL    HW254300  10.433   2.809   5.721  1.4725 -0.7033 -1.3745
14108SOL     OW54301   6.324   9.345   5.759 -0.2938 -0.2234  0.1591
14108SOL    HW154302   6.234   9.376   5.772  0.1391  1.5745 -0.7936
14108SOL    HW254303   6.377   9.425   5.757  1.7833 -1.2930  3.5039
14109SOL     OW54304   0.887   4.320   0.395 -0.0921 -0.1350 -0.3059
14109SOL    HW154305   0.817   4.362   0.345  0.8644  0.5638 -1.1061
14109SOL    HW254306   0.965   4.371   0.373  0.5529 -0.4988  1.0699
14110SOL     OW54307   1.028   6.583   2.105  0.2434 -0.1659 -0.5392
14110SOL    HW154308   1.051   6.531   2.028 -0.2714  0.4070 -1.0985
14110SOL    HW254309   0.942   6.620   2.084 -0.4490 -0.9442  0.8126
14111SOL     OW54310   4.296   9.791   4.952 -0.1503  0.3567 -0.3975
14111SOL    HW154311   4.365   9.724   4.956  0.9021  1.4085 -0.3868
14111SOL    HW254312   4.262   9.784   4.863 -1.9129 -1.9341  0.3379
14112SOL     OW54313   0.824   6.460   6.185 -0.4538  0.6540 -0.3157
14112SOL    HW154314   0.733   6.430   6.173 -0.4287  1.1475 -1.9194
14112SOL    HW254315   0.840   6.520   6.112  1.7803 -0.8965 -1.2189
14113SOL     OW54316   4.958   1.785   4.860 -0.6246  0.3272 -0.0948
14113SOL    HW154317   4.944   1.736   4.941  0.1488  1.0322  0.4787
14113SOL    HW254318   4.927   1.874   4.880  0.1943  0.6763 -0.3458
14114SOL     OW54319   9.295   0.733   0.207 -0.0102  0.1221  0.1398
14114SOL    HW154320   9.260   0.749   0.295  1.2696 -1.4710  0.9743
14114SOL    HW254321   9.247   0.657   0.176  1.2824 -0.8832  0.5178
14115SOL     OW54322   9.358   6.143   4.147 -0.2649  0.0659 -0.5621
14115SOL    HW154323   9.288   6.090   4.185  0.1404 -0.5809 -0.7159
14115SOL    HW254324   9.337   6.233   4.175 -0.8992 -0.1808 -0.2243
14116SOL     OW54325   4.149   0.959   6.053  0.4387 -0.5556  0.0678
14116SOL    HW154326   4.056   0.974   6.033  0.4535  0.0647  0.4206
14116SOL    HW254327   4.195   0.980   5.972  0.2519 -1.1279 -0.1899
14117SOL     OW54328   2.729   2.771   7.416 -0.1683 -0.1881 -0.1674
14117SOL    HW154329   2.754   2.852   7.460  0.6261 -0.8586  0.6503
14117SOL    HW254330   2.645   2.748   7.454 -0.0609 -0.1206  0.1138
14118SOL     OW54331   3.172   8.202   2.690 -0.0516 -0.3751 -0.1878
14118SOL    HW154332   3.082   8.171   2.680 -0.4809  0.3388  1.2222
14118SOL    HW254333   3.177   8.278   2.633 -0.3900 -0.3354 -0.1679
14119SOL     OW54334   0.406   1.937   2.008 -0.1873 -0.6011  0.9073
14119SOL    HW154335   0.497   1.934   1.979 -0.8858 -0.3643 -1.4650
14119SOL    HW254336   0.373   1.849   1.994 -0.1658 -0.8722  2.4211
14120SOL     OW54337   3.435   5.650   9.989 -0.1728  0.5376 -0.1770
14120SOL    HW154338   3.451   5.730   9.939  0.8114  0.9165  0.7204
14120SOL    HW254339   3.479   5.581   9.939  1.1624  0.9789  0.3540
14121SOL     OW54340   6.945   7.669   8.873  0.6575  0.3378 -0.1355
14121SOL    HW154341   7.005   7.631   8.809 -1.0463 -2.7510 -0.0473
14121SOL    HW254342   6.968   7.626   8.956 -1.6467 -1.0121 -0.1162
14122SOL     OW54343   5.027   7.673   5.282  0.5061  0.1824  0.0692
14122SOL    HW154344   5.101   7.666   5.221  0.7327 -3.2622  0.5038
14122SOL    HW254345   5.067   7.668   5.368 -0.1197 -2.5126  0.3098
14123SOL     OW54346   2.761   7.173   8.159 -0.1920 -0.5914 -0.4499
14123SOL    HW154347   2.845   7.180   8.203  0.3525 -1.7096 -1.2574
14123SOL    HW254348   2.697   7.202   8.225  0.8874  1.4366 -0.2368
14124SOL     OW54349   4.573   2.161   9.372 -0.9356 -0.3798 -0.1683
14124SOL    HW154350   4.531   2.091   9.420  0.2011 -0.7961  0.2477
14124SOL    HW254351   4.645   2.190   9.428 -1.1434  0.8549 -0.5035
14125SOL     OW54352   4.625  10.278   0.598 -0.3445  0.3629  0.1245
14125SOL    HW154353   4.550  10.243   0.550 -0.1761 -2.3826  1.6376
14125SOL    HW254354   4.587  10.328   0.669 -0.6368  1.7803 -0.9880
14126SOL     OW54355   4.739   1.083   8.512  0.0630  0.4909  0.7135
14126SOL    HW154356   4.658   1.085   8.562 -0.4143 -0.0809 -0.0000
14126SOL    HW254357   4.727   1.010   8.450 -0.2768  2.4425 -1.6845
14127SOL     OW54358   2.007   9.649   1.819 -0.0371  0.4774 -0.4195
14127SOL    HW154359   2.028   9.735   1.853 -0.8318  0.8326 -0.8038
14127SOL    HW254360   2.026   9.655   1.725  2.2495 -0.5265 -0.1032
14128SOL     OW54361   7.496   0.303   3.403  0.2888  0.0089 -0.0906
14128SOL    HW154362   7.577   0.289   3.452  1.8633  3.0324 -1.6045
14128SOL    HW254363   7.486   0.224   3.350  2.5691 -0.1987 -0.2769
14129SOL     OW54364   7.511   5.578  10.048 -0.1463 -0.1435  0.3439
14129SOL    HW154365   7.525   5.489  10.082 -1.0468 -0.2828  0.3927
14129SOL    HW254366   7.596   5.620  10.056  1.2659 -2.0508 -2.8974
14130SOL     OW54367   7.863   6.739   1.794  0.1205  0.2384 -0.0692
14130SOL    HW154368   7.847   6.811   1.855  1.7658 -0.5738  1.3929
14130SOL    HW254369   7.878   6.783   1.710  0.5601  1.5716  0.6749
14131SOL     OW54370   9.376   6.837   1.617 -0.2090 -0.5754 -0.0851
14131SOL    HW154371   9.417   6.919   1.643  0.0450 -1.3605  2.2055
14131SOL    HW254372   9.282   6.852   1.629 -0.1437 -0.6797  0.6183
14132SOL     OW54373   7.397   3.816   6.926 -0.5137 -0.3483 -0.3162
14132SOL    HW154374   7.349   3.881   6.873 -0.4044  0.3188  0.3939
14132SOL    HW254375   7.486   3.852   6.933 -1.0793  0.7818  2.2392
14133SOL     OW54376   8.287   4.243   6.280  0.3116  0.3059 -0.1977
14133SOL    HW154377   8.238   4.206   6.354 -1.1231  0.2059 -1.1641
14133SOL    HW254378   8.349   4.175   6.256  0.8253  0.3474  0.9087
14134SOL     OW54379   8.293   3.604   5.245 -0.4826 -0.3233  0.6229
14134SOL    HW154380   8.210   3.650   5.254 -1.0078 -0.9710 -0.6786
14134SOL    HW254381   8.330   3.603   5.334 -0.8520  1.7998  0.8540
14135SOL     OW54382   3.202   4.726   9.353  0.0116 -0.3097 -0.1095
14135SOL    HW154383   3.222   4.820   9.349 -3.8308  0.7343  0.8300
14135SOL    HW254384   3.217   4.702   9.444 -1.8521  0.2768  0.4068
14136SOL     OW54385   9.218   4.480   5.026  0.0625 -0.0553 -0.0164
14136SOL    HW154386   9.273   4.484   5.104  1.3106 -0.1077 -0.8647
14136SOL    HW254387   9.280   4.480   4.953 -1.0988  3.6377 -1.2062
14137SOL     OW54388  10.353   8.091   7.476 -0.3320 -0.1761  0.1250
14137SOL    HW154389  10.418   8.097   7.405 -0.8671 -0.3246 -0.3851
14137SOL    HW254390  10.314   8.178   7.479 -1.4711 -0.6083 -0.9040
14138SOL     OW54391   2.646   8.523   8.031  0.1982 -0.4671 -0.3401
14138SOL    HW154392   2.646   8.581   7.956 -0.4108 -1.2674 -0.9755
14138SOL    HW254393   2.559   8.534   8.071  1.0983  1.2525  1.3097
14139SOL     OW54394   9.288   4.805   4.724  0.5331  0.2423  0.1929
14139SOL    HW154395   9.253   4.719   4.701  2.2317 -0.6572  0.7699
14139SOL    HW254396   9.275   4.858   4.645  0.3039 -0.8187 -0.5075
14140SOL     OW54397   8.114   8.562   6.126 -0.0873 -0.5005  0.2561
14140SOL    HW154398   8.036   8.524   6.166 -0.7151 -1.0011 -1.3839
14140SOL    HW254399   8.098   8.558   6.032  1.0963  1.1554 -0.0721
14141SOL     OW54400   9.297   8.778   1.950 -0.1303  0.2212 -0.1206
14141SOL    HW154401   9.342   8.746   1.871  1.3217 -2.7695  1.7424
14141SOL    HW254402   9.368   8.793   2.013 -1.4495 -0.8865  1.7064
14142SOL     OW54403   9.931   0.964   5.737  0.0384 -0.0488  0.4885
14142SOL    HW154404  10.002   1.026   5.749 -1.4052  1.6791  0.5740
14142SOL    HW254405   9.927   0.915   5.819  1.0398 -0.0842  0.5192
14143SOL     OW54406   4.136   7.253   8.620  0.2153  0.1181 -0.2598
14143SOL    HW154407   4.068   7.319   8.637 -0.1042  0.5881 -2.8956
14143SOL    HW254408   4.088   7.177   8.587  0.5711 -1.6109  2.8680
14144SOL     OW54409   8.073   4.834   0.859  0.2638  0.3865 -0.0563
14144SOL    HW154410   7.997   4.817   0.914 -0.4729 -0.5265 -1.3012
14144SOL    HW254411   8.148   4.823   0.918 -0.5214  0.2541  0.9461
14145SOL     OW54412   1.000   6.169   6.604 -0.4089 -0.3686  0.2710
14145SOL    HW154413   0.927   6.113   6.578  0.4339 -0.0945 -3.2597
14145SOL    HW254414   1.072   6.109   6.620 -0.5745 -0.4743  0.6361
14146SOL     OW54415  10.071   1.210   6.724  0.4668  0.2600 -0.0631
14146SOL    HW154416  10.048   1.164   6.643  0.6722  2.3341 -1.3853
14146SOL    HW254417   9.990   1.213   6.774  0.5929 -2.0312  0.3824
14147SOL     OW54418  10.170   9.224   6.216 -0.1493  0.3167 -0.5139
14147SOL    HW154419  10.083   9.254   6.189 -0.4094 -0.0018 -0.0503
14147SOL    HW254420  10.226   9.301   6.205 -0.7253  0.8688  0.2960
14148SOL     OW54421   7.042   5.546   2.421  0.2111 -0.0021  0.6219
14148SOL    HW154422   7.091   5.586   2.349  0.7656 -3.4673 -1.1553
14148SOL    HW254423   7.109   5.512   2.479 -0.1575 -0.6905  0.6521
14149SOL     OW54424   3.868   8.685   3.872  0.1786 -0.3609 -0.5571
14149SOL    HW154425   3.801   8.646   3.816 -0.4977 -0.0711  0.0392
14149SOL    HW254426   3.889   8.617   3.935  0.3850 -0.4220 -0.6916
14150SOL     OW54427   8.046   1.659   4.163  0.2214 -0.0240  0.2360
14150SOL    HW154428   8.139   1.648   4.142 -0.2558 -0.9716 -1.6375
14150SOL    HW254429   8.028   1.751   4.144  0.9121  0.3623  1.3447
14151SOL     OW54430   7.789   1.171   1.466 -0.1196  0.3381  0.3707
14151SOL    HW154431   7.873   1.137   1.435 -0.6052 -0.8025  0.2809
14151SOL    HW254432   7.773   1.248   1.411 -0.7355 -1.3599 -2.0055
14152SOL     OW54433   8.153   1.624   9.429  1.1432  0.2801 -0.2261
14152SOL    HW154434   8.091   1.563   9.468  0.2401 -0.3057 -2.4058
14152SOL    HW254435   8.225   1.629   9.492 -0.3189 -0.3532  1.5792
14153SOL     OW54436   6.249   8.838   4.803 -0.4605  1.1451  0.0546
14153SOL    HW154437   6.325   8.788   4.831 -1.9885 -0.6678  1.1664
14153SOL    HW254438   6.250   8.917   4.857 -0.3655  0.2548  1.3743
14154SOL     OW54439   0.198   6.480   6.950 -0.0774 -0.1016  0.0084
14154SOL    HW154440   0.199   6.488   6.855  0.4238  0.7918  0.0738
14154SOL    HW254441   0.234   6.563   6.981  0.5184 -0.6909  0.9543
14155SOL     OW54442   3.709   4.183   2.409  0.5655  0.1955  1.1856
14155SOL    HW154443   3.622   4.149   2.428  0.6435 -0.0102  1.1698
14155SOL    HW254444   3.728   4.154   2.320  0.8345 -0.1422  1.3501
14156SOL     OW54445   5.179   3.016   4.768 -0.0006 -0.5342  0.0791
14156SOL    HW154446   5.179   2.990   4.860  1.1618  0.8751  0.5259
14156SOL    HW254447   5.204   3.109   4.770 -1.4450 -0.0766 -1.5704
14157SOL     OW54448   5.259   2.924   5.032 -0.7890  0.3580  0.1358
14157SOL    HW154449   5.313   2.845   5.034 -0.9093  0.2350 -0.9654
14157SOL    HW254450   5.307   2.987   5.086 -0.1255 -0.1113  0.1084
14158SOL     OW54451   6.646   8.337   7.367 -0.2613 -0.0354  0.0555
14158SOL    HW154452   6.633   8.290   7.285  1.8509  0.6287 -0.7206
14158SOL    HW254453   6.622   8.427   7.346 -0.6848 -0.0536  0.4598
14159SOL     OW54454   0.388   1.055   1.159 -0.3688  0.0388  0.5765
14159SOL    HW154455   0.317   1.102   1.116 -1.1248 -1.0151  0.6516
14159SOL    HW254456   0.385   0.967   1.122  0.3256 -0.2722  1.2356
14160SOL     OW54457   3.683   7.776   8.474 -0.4255  0.1883 -0.1372
14160SOL    HW154458   3.701   7.801   8.383  1.4917 -0.9880 -0.1296
14160SOL    HW254459   3.711   7.684   8.480 -0.8561  0.1302  1.5583
14161SOL     OW54460   1.828   7.917   7.111  0.5655  0.4973 -0.5800
14161SOL    HW154461   1.912   7.931   7.155  0.5616  1.5262 -0.8738
14161SOL    HW254462   1.849   7.858   7.038  0.9046  0.2430 -0.2824
14162SOL     OW54463   3.857   1.568   5.290 -0.1152  0.0862  0.1758
14162SOL    HW154464   3.785   1.525   5.245 -0.8052  0.0861  1.2532
14162SOL    HW254465   3.895   1.501   5.346  1.7256 -0.3453 -1.4644
14163SOL     OW54466   2.349   3.371   2.265  0.3255  0.3770 -0.7242
14163SOL    HW154467   2.274   3.413   2.308  0.6201 -0.5314  0.7436
14163SOL    HW254468   2.425   3.418   2.299  0.5309  0.0100 -0.6798
14164SOL     OW54469   6.410   2.341   9.509 -0.2373 -0.6532  0.6148
14164SOL    HW154470   6.335   2.398   9.522 -0.4326 -0.8459  0.3467
14164SOL    HW254471   6.411   2.285   9.586  0.8468  0.6950  1.6208
14165SOL     OW54472   4.151   7.047  10.305 -0.2648  0.1952 -0.8363
14165SOL    HW154473   4.195   6.974  10.349 -1.1847 -0.9192 -1.7142
14165SOL    HW254474   4.191   7.050  10.218 -0.7370  0.2649 -1.0529
14166SOL     OW54475   5.412   0.420   0.306 -0.3021 -0.3561 -0.0568
14166SOL    HW154476   5.464   0.401   0.228 -0.0251 -0.3786  0.1326
14166SOL    HW254477   5.367   0.502   0.285 -1.2995 -1.0704 -0.7758
14167SOL     OW54478   9.339   7.204   6.357  0.0908 -0.2820 -0.0628
14167SOL    HW154479   9.420   7.246   6.386  0.6707 -1.6926  0.5068
14167SOL    HW254480   9.363   7.160   6.275 -0.9030  1.6890 -1.4745
14168SOL     OW54481   7.497   5.568   8.084 -0.0443 -0.1160 -0.1701
14168SOL    HW154482   7.530   5.488   8.043 -0.4910  0.6837 -2.1939
14168SOL    HW254483   7.575   5.610   8.121  0.1861 -1.4704  0.9722
14169SOL     OW54484   8.361   0.641   7.740 -0.0159  0.3211 -0.2837
14169SOL    HW154485   8.330   0.551   7.730  0.9528  0.1912 -2.9281
14169SOL    HW254486   8.287   0.687   7.780 -1.6078 -1.1011 -1.4312
14170SOL     OW54487   6.625   2.847   0.172  0.7059  1.0124 -0.1078
14170SOL    HW154488   6.577   2.843   0.255  0.8214  2.7027  0.0738
14170SOL    HW254489   6.557   2.837   0.105  0.8052 -2.1523  0.1181
14171SOL     OW54490   9.081   0.587   0.385 -0.0847  0.0223  0.4280
14171SOL    HW154491   9.121   0.501   0.397 -0.6569 -0.4538 -0.9128
14171SOL    HW254492   9.137   0.646   0.435  1.3087 -0.8859  0.0042
14172SOL     OW54493   8.554   0.573   4.475  0.2124  0.0957 -0.2651
14172SOL    HW154494   8.590   0.631   4.542  0.4599 -0.3792  0.0166
14172SOL    HW254495   8.585   0.610   4.392  0.7376  0.1163 -0.0613
14173SOL     OW54496   4.931   3.467   9.241  0.1162 -0.4431 -0.0711
14173SOL    HW154497   4.971   3.460   9.154  0.9624 -0.5744  0.3142
14173SOL    HW254498   4.882   3.549   9.239 -3.7245 -2.5058 -2.1881
14174SOL     OW54499   0.922   9.776   4.947  1.5030 -0.1694 -0.3685
14174SOL    HW154500   0.929   9.736   4.861 -0.6507 -0.5115 -0.4551
14174SOL    HW254501   0.952   9.708   5.008  0.6356 -0.8745 -0.7066
14175SOL     OW54502   3.447   8.433   4.054  0.2110  0.1002  0.1594
14175SOL    HW154503   3.368   8.412   4.105  0.7700 -0.4464  0.8175
14175SOL    HW254504   3.443   8.528   4.043 -2.7714 -0.2176 -3.5041
14176SOL     OW54505   3.530   7.477   5.291  0.5465 -0.1999  0.5093
14176SOL    HW154506   3.588   7.553   5.297 -0.0070  0.5789 -2.4467
14176SOL    HW254507   3.458   7.496   5.352  1.2268  0.8576  1.0024
14177SOL     OW54508   7.380   4.072   5.571 -0.3127  0.6559  0.2201
14177SOL    HW154509   7.290   4.072   5.605  0.1378 -1.4959  1.6169
14177SOL    HW254510   7.425   4.007   5.624  2.1181  1.7235 -0.4271
14178SOL     OW54511   1.162   0.795   2.494 -0.5627 -0.0330 -0.1818
14178SOL    HW154512   1.184   0.794   2.587 -0.9694 -1.7329 -0.0799
14178SOL    HW254513   1.177   0.705   2.464 -2.6356 -0.0879 -1.2156
14179SOL     OW54514   4.658   6.389   8.075 -0.0083 -0.3320 -0.1713
14179SOL    HW154515   4.649   6.473   8.121 -2.8080 -0.0195 -1.1221
14179SOL    HW254516   4.705   6.411   7.994  1.0216 -0.0902  0.4704
14180SOL     OW54517   8.825   7.232   2.973  0.2543  0.0041  0.1474
14180SOL    HW154518   8.753   7.293   2.958  1.4522  1.7756  1.1728
14180SOL    HW254519   8.841   7.236   3.067  0.8817 -1.3329  0.1220
14181SOL     OW54520   7.473   7.013   9.522 -0.3138  0.3928 -0.4051
14181SOL    HW154521   7.558   7.057   9.513 -0.0000 -0.1934 -0.3853
14181SOL    HW254522   7.487   6.926   9.483 -0.6011 -0.0823  0.5173
14182SOL     OW54523   2.855   3.536   2.217 -0.6774  0.4597  0.3746
14182SOL    HW154524   2.928   3.582   2.177 -0.0392 -0.4844  0.4355
14182SOL    HW254525   2.783   3.547   2.155 -0.0590  0.0999 -0.4192
14183SOL     OW54526   3.755   6.425   5.517  0.0628  0.1861  0.4886
14183SOL    HW154527   3.665   6.417   5.486 -0.4005 -2.0110  2.1768
14183SOL    HW254528   3.748   6.417   5.613  2.0536 -0.0187  0.6491
14184SOL     OW54529   2.711   5.904   4.269 -0.2518 -0.2497 -0.6223
14184SOL    HW154530   2.795   5.863   4.251  0.3954  0.4913  0.6278
14184SOL    HW254531   2.731   5.996   4.287 -1.2686 -0.1351  0.0605
14185SOL     OW54532   9.698   9.722   8.224  0.1599  0.0752  0.0946
14185SOL    HW154533   9.682   9.744   8.316  0.4714  1.3471 -0.1375
14185SOL    HW254534   9.621   9.673   8.197 -1.4826  2.4169  0.1810
14186SOL     OW54535   6.358   1.724   0.075  0.1779  0.2363 -0.1192
14186SOL    HW154536   6.279   1.676   0.100  1.8543 -1.7781  1.6493
14186SOL    HW254537   6.348   1.810   0.116 -1.5577  0.4410 -0.8710
14187SOL     OW54538   9.896   6.961   1.920  0.6074  0.4418  0.1986
14187SOL    HW154539   9.807   6.929   1.905  0.1801  1.6936 -0.0595
14187SOL    HW254540   9.939   6.890   1.968 -0.5213 -0.1893  0.3156
14188SOL     OW54541   8.995   7.701   0.933  0.1837 -0.1583  0.1503
14188SOL    HW154542   8.983   7.630   0.871  2.1541 -1.6099  1.3135
14188SOL    HW254543   8.924   7.689   0.997  1.1664 -1.8550  0.9798
14189SOL     OW54544   4.320   2.034   3.173  0.3275 -0.2127 -0.4037
14189SOL    HW154545   4.229   2.050   3.147  0.9301  2.9017 -0.9647
14189SOL    HW254546   4.326   1.938   3.180 -3.0419 -0.5245  0.0097
14190SOL     OW54547   0.275   0.289   5.183 -0.0923 -0.1914  0.1149
14190SOL    HW154548   0.305   0.205   5.149  1.6141  0.6177 -0.4738
14190SOL    HW254549   0.328   0.303   5.262 -1.3044 -0.2510  0.9797
14191SOL     OW54550   2.325   8.778   7.448  0.1298  0.0616  0.1294
14191SOL    HW154551   2.421   8.783   7.440  0.1367 -0.2269  0.0141
14191SOL    HW254552   2.301   8.701   7.397 -0.0691 -0.4578  0.9908
14192SOL     OW54553   9.462   9.697   3.788  0.1500  0.6223  0.4436
14192SOL    HW154554   9.458   9.720   3.881 -0.7616  0.2366  0.5127
14192SOL    HW254555   9.374   9.665   3.768  0.4120  0.4715 -0.4941
14193SOL     OW54556   8.257   5.905   7.393  0.6591 -0.3554  0.2796
14193SOL    HW154557   8.297   5.984   7.429  1.7200  0.0171 -1.5777
14193SOL    HW254558   8.193   5.879   7.459  1.2238  1.2774  1.5593
14194SOL     OW54559   9.938   6.066   3.995 -0.8073  0.8216  0.6411
14194SOL    HW154560   9.993   5.989   4.008 -2.3728 -0.5341 -0.4023
14194SOL    HW254561   9.999   6.135   3.970  0.4809 -0.5268 -0.0761
14195SOL     OW54562   3.281   0.208   8.693 -0.0929  0.1529 -0.2699
14195SOL    HW154563   3.369   0.190   8.725  0.5792 -0.4904 -2.3191
14195SOL    HW254564   3.229   0.224   8.772  1.7486  0.1151  1.0019
14196SOL     OW54565   2.740   4.650   0.564 -0.5516 -0.1717  0.5894
14196SOL    HW154566   2.661   4.676   0.612  0.0569  1.4796  0.7713
14196SOL    HW254567   2.777   4.579   0.617 -1.5661 -0.5497  0.8308
14197SOL     OW54568   4.268   1.029   1.232  0.2902  0.0280  0.5938
14197SOL    HW154569   4.285   1.001   1.322  0.5055  0.3000  0.6371
14197SOL    HW254570   4.346   1.001   1.183 -0.2158 -0.9301  0.3124
14198SOL     OW54571   1.988   2.770  10.060 -0.4029 -0.3981  0.5122
14198SOL    HW154572   1.943   2.715   9.996 -0.5659 -0.0353  0.3164
14198SOL    HW254573   1.918   2.812  10.110 -0.2783 -0.1641  0.4894
14199SOL     OW54574   6.926   9.177   8.027 -0.0509  0.9454  0.3331
14199SOL    HW154575   6.871   9.108   8.064  1.2746 -0.6193 -0.4800
14199SOL    HW254576   6.885   9.196   7.942 -0.4919  1.2707  0.6135
14200SOL     OW54577   2.986   0.256   3.087 -0.2060 -0.1434  0.0745
14200SOL    HW154578   2.936   0.336   3.105 -2.5921 -1.8325  1.4616
14200SOL    HW254579   3.014   0.225   3.173 -0.3248 -1.4000 -0.3180
14201SOL     OW54580   1.348  10.218   2.209 -0.0337  0.2813 -0.2073
14201SOL    HW154581   1.346  10.273   2.287 -1.4485  0.4520 -0.3380
14201SOL    HW254582   1.359  10.280   2.137 -1.3688  0.4042 -0.3334
14202SOL     OW54583   6.731   4.914   9.618  0.0777 -0.3610  0.7616
14202SOL    HW154584   6.753   5.006   9.634 -0.3786 -0.3853  1.6113
14202SOL    HW254585   6.666   4.917   9.547  1.9051 -0.2223 -0.9944
14203SOL     OW54586   5.450   4.406   2.929  0.2292 -0.1656 -0.2004
14203SOL    HW154587   5.503   4.354   2.868 -0.1811 -0.1784 -0.5492
14203SOL    HW254588   5.360   4.380   2.911  0.0327  0.5196 -0.2372
14204SOL     OW54589   1.925   9.746   2.200  0.2663 -0.4830 -0.1347
14204SOL    HW154590   1.949   9.812   2.136 -2.9961  0.2263 -0.8252
14204SOL    HW254591   1.973   9.667   2.172  2.6944  1.0028 -0.4419
14205SOL     OW54592   0.450   8.949   4.774 -0.3541 -0.5784 -0.1848
14205SOL    HW154593   0.484   8.924   4.688 -0.0117 -0.6900 -0.0173
14205SOL    HW254594   0.426   9.041   4.765  1.0918 -0.1599  0.0312
14206SOL     OW54595   3.244   4.363   5.560  0.0081 -0.1238 -0.1459
14206SOL    HW154596   3.192   4.296   5.605  1.5546 -1.6203 -0.5208
14206SOL    HW254597   3.300   4.400   5.628  1.2711 -1.3302 -0.4977
14207SOL     OW54598   9.996   3.726   6.669 -0.2628  0.0737  0.1311
14207SOL    HW154599   9.924   3.783   6.694 -1.0136 -0.8785  0.2138
14207SOL    HW254600   9.967   3.638   6.694  1.5686 -0.1629  1.6065
14208SOL     OW54601   7.900   5.984   8.198  0.4592  1.2444 -0.0104
14208SOL    HW154602   7.807   5.999   8.177  0.2096  0.6399  0.6209
14208SOL    HW254603   7.902   5.975   8.293  1.0549  0.5378 -0.0766
14209SOL     OW54604   8.808   0.218   2.241  0.4762 -0.2012  0.2666
14209SOL    HW154605   8.773   0.291   2.292 -1.6111 -0.0064 -1.2906
14209SOL    HW254606   8.875   0.258   2.186  1.0102  0.0544  1.0826
14210SOL     OW54607   9.508   3.990   8.284  0.2138  0.2665  0.0172
14210SOL    HW154608   9.436   3.928   8.292  1.5597 -1.3117  0.6866
14210SOL    HW254609   9.466   4.076   8.283 -1.7161 -0.6287 -0.7847
14211SOL     OW54610   8.634   9.754   7.010  0.1184  0.4348 -0.6068
14211SOL    HW154611   8.559   9.699   6.990  0.4806 -0.0317 -0.7136
14211SOL    HW254612   8.604   9.843   6.994 -1.2399  0.5055  1.8691
14212SOL     OW54613   4.823   6.520   5.043  0.4385  0.4193 -0.0069
14212SOL    HW154614   4.900   6.466   5.061  0.5370  0.4169 -0.4207
14212SOL    HW254615   4.765   6.503   5.117  0.9106  0.5685  0.4055
14213SOL     OW54616   0.670   0.348   8.915  0.0518  0.3071 -0.2770
14213SOL    HW154617   0.597   0.354   8.977  2.0993  2.2200  2.1295
14213SOL    HW254618   0.686   0.438   8.887  2.7592  0.2989  0.9365
14214SOL     OW54619   0.421   3.808   8.836 -0.1991  0.1245 -0.2180
14214SOL    HW154620   0.375   3.724   8.824 -0.4590  0.3800 -1.1057
14214SOL    HW254621   0.370   3.854   8.903 -1.0659  0.2677 -0.9517
14215SOL     OW54622   8.137   1.540   8.087 -0.2227  0.2518 -0.1526
14215SOL    HW154623   8.101   1.452   8.097  1.7323 -0.5732 -0.0159
14215SOL    HW254624   8.189   1.535   8.007  2.9777  0.1273  1.7822
14216SOL     OW54625   5.344   1.990   7.246 -0.1005 -0.3277  0.5610
14216SOL    HW154626   5.410   1.931   7.208 -0.3072  0.0617 -0.4132
14216SOL    HW254627   5.284   2.008   7.174 -0.9429 -0.1947  1.2861
14217SOL     OW54628   0.142   3.816   9.769  0.0412 -0.2130  0.4639
14217SOL    HW154629   0.236   3.804   9.757 -0.0822  0.3793 -1.4613
14217SOL    HW254630   0.104   3.792   9.685 -1.2435  2.3490  0.2117
14218SOL     OW54631   1.862   6.910   8.802 -0.6941  0.6738  0.1715
14218SOL    HW154632   1.931   6.976   8.808 -1.7280  1.7312  0.8783
14218SOL    HW254633   1.827   6.921   8.713 -0.2411  0.4220 -0.0419
14219SOL     OW54634   6.773   4.165   7.575 -0.1814 -0.0083 -0.2519
14219SOL    HW154635   6.866   4.157   7.555 -0.2441 -0.7976 -0.2619
14219SOL    HW254636   6.756   4.093   7.636 -0.5753  0.7239  0.5075
14220SOL     OW54637   5.006   7.788   7.353  0.5426 -0.3886 -0.1024
14220SOL    HW154638   5.057   7.855   7.309 -0.3708 -1.5509 -3.2221
14220SOL    HW254639   5.070   7.739   7.405  1.7085  1.0801 -0.1008
14221SOL     OW54640   6.969   6.586   4.536 -0.0887 -0.3469  0.4335
14221SOL    HW154641   6.991   6.535   4.613 -0.5916 -1.4696 -0.1330
14221SOL    HW254642   6.934   6.668   4.570 -2.2782 -1.6152  1.4916
14222SOL     OW54643   5.975  10.246   4.812  0.2445 -0.3688 -0.0577
14222SOL    HW154644   5.890  10.214   4.785  0.9255 -0.3971 -2.3474
14222SOL    HW254645   5.975  10.339   4.788  0.2736  0.0663  1.5034
14223SOL     OW54646   5.878  10.053   4.482  0.1373  0.2774  0.0075
14223SOL    HW154647   5.851   9.963   4.500 -0.4172  0.3158 -0.5752
14223SOL    HW254648   5.857  10.101   4.562 -1.1048  0.2093 -0.2605
14224SOL     OW54649   7.416   5.515   3.247  0.5459  0.2280 -0.5955
14224SOL    HW154650   7.389   5.580   3.312  0.6441 -0.0745 -0.2507
14224SOL    HW254651   7.341   5.456   3.240  1.7287 -1.7322  1.7619
14225SOL     OW54652   5.690   0.341   6.760  0.8592  0.6012  0.2163
14225SOL    HW154653   5.756   0.282   6.796 -1.2392 -1.6670  0.6815
14225SOL    HW254654   5.693   0.327   6.666  2.3397  2.0210  0.0293
14226SOL     OW54655   9.019   9.541   5.222  0.0470 -0.4785 -0.4259
14226SOL    HW154656   8.948   9.484   5.250  0.6561 -0.7489  0.5810
14226SOL    HW254657   9.090   9.482   5.199 -0.0512 -0.2098 -1.5113
14227SOL     OW54658   2.099   5.124   6.332 -0.2524  0.1991 -0.5467
14227SOL    HW154659   2.110   5.173   6.250  1.8561 -1.5948 -1.4456
14227SOL    HW254660   2.168   5.058   6.329 -1.8267 -1.6535  1.4540
14228SOL     OW54661   2.510   1.710   4.276 -0.0537  0.6672  0.3489
14228SOL    HW154662   2.451   1.663   4.334 -0.2292  0.1453 -0.2416
14228SOL    HW254663   2.566   1.761   4.335  1.6903 -2.0251  1.1795
14229SOL     OW54664   6.906   3.103   1.915  0.0589  0.2404 -0.0391
14229SOL    HW154665   6.968   3.034   1.895  0.7697  1.2763 -1.6451
14229SOL    HW254666   6.951   3.159   1.978  0.1383  0.1326 -0.0008
14230SOL     OW54667   1.279   3.353   0.534  0.4930  0.3102 -0.6344
14230SOL    HW154668   1.235   3.414   0.593  0.9807  0.7898 -0.7664
14230SOL    HW254669   1.359   3.398   0.507 -0.0970  0.4398 -2.3058
14231SOL     OW54670   1.778   0.204   1.591 -0.4135 -0.7254 -0.1761
14231SOL    HW154671   1.822   0.283   1.623  0.1742 -1.2818  0.4322
14231SOL    HW254672   1.835   0.171   1.522  0.6335 -1.9177  1.1848
14232SOL     OW54673  10.149   3.790   0.653 -0.4544 -0.0354  0.4002
14232SOL    HW154674  10.101   3.774   0.734 -1.7093  0.7721 -0.1557
14232SOL    HW254675  10.112   3.728   0.590  0.6078 -0.7538  0.4625
14233SOL     OW54676   3.400   5.288   8.405  0.6914 -0.0308  0.1747
14233SOL    HW154677   3.390   5.305   8.311  0.2275 -1.0669  0.0187
14233SOL    HW254678   3.319   5.320   8.444  0.1447 -1.1378 -0.0175
14234SOL     OW54679   1.114   7.586   5.475  0.4208 -0.5309 -0.5370
14234SOL    HW154680   1.030   7.631   5.475  0.9048  0.3988 -1.0370
14234SOL    HW254681   1.093   7.495   5.498 -0.3931  0.2784  2.3763
14235SOL     OW54682   5.736   1.291   0.780 -0.0477  0.1359 -0.0691
14235SOL    HW154683   5.805   1.227   0.764  0.6980  0.7386  0.6452
14235SOL    HW254684   5.657   1.238   0.792  0.2042 -0.5470 -1.2400
14236SOL     OW54685   8.998   7.598   9.521 -0.1221  0.3010  0.3578
14236SOL    HW154686   8.939   7.618   9.448 -0.4785  1.1726  0.8604
14236SOL    HW254687   8.942   7.555   9.586  0.2012 -0.5059  0.1112
14237SOL     OW54688  10.006   0.585   6.728 -0.5255  0.1097 -0.5710
14237SOL    HW154689   9.943   0.641   6.684  0.1079  3.1046  2.0100
14237SOL    HW254690  10.090   0.631   6.718  1.1894 -3.0764 -2.7573
14238SOL     OW54691   2.124   5.391   1.330 -0.0682 -0.3954 -0.3823
14238SOL    HW154692   2.201   5.341   1.358  2.5795  3.0736 -0.8224
14238SOL    HW254693   2.070   5.398   1.409  1.0604 -1.2400  0.5065
14239SOL     OW54694   0.213   2.507   3.960 -0.4360 -0.0021  0.8502
14239SOL    HW154695   0.231   2.515   4.054 -1.5609  2.0327  0.9644
14239SOL    HW254696   0.149   2.436   3.955  0.1407 -0.5889  1.5346
14240SOL     OW54697   5.897   7.959   0.214  0.1951 -0.1387 -0.0087
14240SOL    HW154698   5.846   8.033   0.182 -1.2308 -1.3324 -0.5989
14240SOL    HW254699   5.867   7.947   0.304  0.8446  0.3290  0.2820
14241SOL     OW54700   9.546   7.522   3.555 -0.3835 -0.1857  0.1555
14241SOL    HW154701   9.505   7.435   3.553 -0.5651 -0.0987 -2.2111
14241SOL    HW254702   9.637   7.506   3.529 -0.7029  0.4378 -1.4260
14242SOL     OW54703   2.964   6.091   3.658 -0.0193 -0.0514 -0.6285
14242SOL    HW154704   2.870   6.107   3.661 -0.2333 -1.3310  0.2458
14242SOL    HW254705   2.991   6.124   3.572 -0.8296  2.4152 -0.0306
14243SOL     OW54706   9.827   5.489   4.938  0.2678 -0.3644 -0.1147
14243SOL    HW154707   9.845   5.421   5.003 -0.2317  0.0179  0.4333
14243SOL    HW254708   9.873   5.460   4.859  2.0535 -0.1597  0.7878
14244SOL     OW54709   0.340   2.467   8.805  0.3521  0.0641 -0.0737
14244SOL    HW154710   0.250   2.468   8.773  0.0871  0.8930  0.6574
14244SOL    HW254711   0.353   2.554   8.842  1.6321  0.1387 -0.6414
14245SOL     OW54712   7.155   2.506   3.692  0.1931 -0.2670  0.1647
14245SOL    HW154713   7.147   2.485   3.785 -0.0988 -2.0362 -0.2355
14245SOL    HW254714   7.232   2.457   3.663  0.4348  0.4778 -0.4778
14246SOL     OW54715   0.082  10.196   7.230 -0.4479 -0.0253  0.3358
14246SOL    HW154716   0.059  10.230   7.316 -0.4210  1.9310 -0.3720
14246SOL    HW254717   0.161  10.245   7.205 -0.0316 -1.0739 -0.5023
14247SOL     OW54718   4.828   4.029   2.070 -0.5721  0.5076  0.1375
14247SOL    HW154719   4.812   4.087   1.995  1.5290  0.3175 -0.5022
14247SOL    HW254720   4.781   4.071   2.142 -0.0469  2.4136 -0.5713
14248SOL     OW54721   2.980   3.597   2.984  0.1642 -0.4232  0.1531
14248SOL    HW154722   3.030   3.566   2.909 -2.2530 -1.0045 -1.2908
14248SOL    HW254723   3.004   3.537   3.055  0.9559 -1.1248 -0.6879
14249SOL     OW54724   3.636   8.118   8.319  0.2618 -0.0432  0.1674
14249SOL    HW154725   3.704   8.058   8.286 -0.0185 -0.8339  0.9765
14249SOL    HW254726   3.582   8.136   8.243 -0.4451 -1.9324  0.1524
14250SOL     OW54727  10.322   8.682   6.459  0.4374  0.1312 -0.1032
14250SOL    HW154728  10.396   8.622   6.448  0.7235 -0.1849  2.8319
14250SOL    HW254729  10.249   8.625   6.485 -0.0043  0.7807  0.0895
14251SOL     OW54730   5.113   2.668   4.863 -0.1286  0.3837 -0.4346
14251SOL    HW154731   5.098   2.614   4.941 -1.7786 -0.1535 -1.0717
14251SOL    HW254732   5.097   2.758   4.893  1.3754  0.4202  0.3275
14252SOL     OW54733  10.166   6.609   0.522 -0.4982  0.5520 -0.3519
14252SOL    HW154734  10.211   6.678   0.473 -0.0230  0.9451  0.6230
14252SOL    HW254735  10.152   6.647   0.609 -0.2042 -0.6002  0.2043
14253SOL     OW54736   1.457   3.174   6.625  0.4246  0.4347  0.0639
14253SOL    HW154737   1.551   3.168   6.604  0.1403  0.2872 -1.2494
14253SOL    HW254738   1.440   3.095   6.677  1.3600  1.3103  1.7865
14254SOL     OW54739   9.201   2.776   2.655  0.4353  0.2261  0.1941
14254SOL    HW154740   9.172   2.759   2.565 -1.0831  1.0996  0.4746
14254SOL    HW254741   9.215   2.690   2.692  0.6903 -0.1609 -0.7630
14255SOL     OW54742   5.068   7.853   0.863  0.0477 -0.1340  0.2293
14255SOL    HW154743   5.153   7.894   0.845 -0.3216  0.0667 -1.1716
14255SOL    HW254744   5.027   7.910   0.928  0.9445 -0.2122  0.8971
14256SOL     OW54745   1.347   8.557   7.707  0.1347  0.8275 -0.6239
14256SOL    HW154746   1.265   8.529   7.746 -0.3954  1.7583 -1.0527
14256SOL    HW254747   1.388   8.611   7.774  0.8274 -0.3203 -0.0744
14257SOL     OW54748   2.951   1.234   4.841 -0.3682  0.3059 -0.4945
14257SOL    HW154749   2.881   1.233   4.907  0.3747  1.1024  0.3327
14257SOL    HW254750   2.912   1.193   4.764 -1.4218 -0.1885  0.2746
14258SOL     OW54751   3.236   2.223   1.515  0.4602 -0.3698 -0.3054
14258SOL    HW154752   3.213   2.162   1.445 -1.9082  0.1974 -0.1313
14258SOL    HW254753   3.283   2.169   1.579  1.1412 -1.2830 -1.5398
14259SOL     OW54754   7.652   0.023   0.502 -0.1439 -1.0657 -0.2607
14259SOL    HW154755   7.731   0.050   0.549 -0.3329  0.1232 -0.5979
14259SOL    HW254756   7.580   0.062   0.551 -0.4207 -0.7962 -0.8735
14260SOL     OW54757   2.712   2.109   3.251  0.1226 -0.5494 -0.0629
14260SOL    HW154758   2.679   2.031   3.295 -0.6807 -0.9075 -1.2228
14260SOL    HW254759   2.752   2.162   3.320 -0.2197 -1.5226  0.9027
14261SOL     OW54760   9.592   8.171   6.941 -0.2612 -0.2286 -0.1688
14261SOL    HW154761   9.567   8.206   7.027 -0.3148  0.0493 -0.2992
14261SOL    HW254762   9.606   8.078   6.957  0.0691 -0.1148  0.2162
14262SOL     OW54763   4.440   3.076   9.908 -0.4965  0.4633  0.0282
14262SOL    HW154764   4.446   3.172   9.910  0.5311  0.4015  0.4195
14262SOL    HW254765   4.518   3.048   9.861 -0.3325 -0.2289  0.6922
14263SOL     OW54766   5.357   3.943   0.758  0.2023 -0.1137 -0.0621
14263SOL    HW154767   5.361   3.897   0.674  2.4876  1.0474 -0.6627
14263SOL    HW254768   5.430   3.907   0.809 -0.3651  0.1183  0.9465
14264SOL     OW54769   1.754   7.816   2.716  0.0095  0.1902  0.0428
14264SOL    HW154770   1.679   7.782   2.668 -0.7886  2.0711 -0.1270
14264SOL    HW254771   1.733   7.801   2.808 -0.4591  0.4611 -0.0178
14265SOL     OW54772   8.226   0.088   4.424  0.3537  0.4369 -0.6297
14265SOL    HW154773   8.201   0.159   4.483  1.0169  0.9919 -1.0012
14265SOL    HW254774   8.211   0.008   4.475 -3.2453  0.6044 -1.2167
14266SOL     OW54775   8.158   4.162   3.288 -0.2953 -0.1908 -0.2787
14266SOL    HW154776   8.177   4.256   3.293  0.7518 -0.2723 -1.8716
14266SOL    HW254777   8.227   4.121   3.340  0.3076 -0.1425 -1.0124
14267SOL     OW54778   9.725   8.130   9.378 -0.0603  0.0279  0.1655
14267SOL    HW154779   9.643   8.081   9.367 -0.1859  0.2441  0.1303
14267SOL    HW254780   9.793   8.068   9.352  0.0087 -1.0806  2.6907
14268SOL     OW54781  10.133   3.418   5.597 -0.1625 -0.2354 -0.0140
14268SOL    HW154782  10.228   3.421   5.595 -0.0425 -2.6937 -1.5455
14268SOL    HW254783  10.105   3.461   5.517 -0.3672  0.5011  0.4425
14269SOL     OW54784   4.846   2.408   6.265 -0.1272  0.2360 -0.0809
14269SOL    HW154785   4.771   2.460   6.237 -1.1154 -2.1619 -2.2509
14269SOL    HW254786   4.907   2.412   6.192 -0.2732 -1.6500 -0.3564
14270SOL     OW54787   4.367   8.358   3.825 -0.4182  0.1886 -0.5732
14270SOL    HW154788   4.286   8.320   3.860 -0.2461  0.0232 -0.3552
14270SOL    HW254789   4.381   8.437   3.878 -0.0455 -0.1734 -0.1290
14271SOL     OW54790  10.080   3.644   9.421  0.0526 -0.0236 -0.3061
14271SOL    HW154791  10.113   3.689   9.499 -1.2616  0.6789 -0.1309
14271SOL    HW254792  10.096   3.551   9.439 -2.7736 -0.1868  2.1507
14272SOL     OW54793   3.833   1.297   7.211 -0.0479  0.2872 -0.4409
14272SOL    HW154794   3.766   1.272   7.148 -2.6847  2.3943  1.3065
14272SOL    HW254795   3.860   1.385   7.185 -0.8909  1.0304  1.0123
14273SOL     OW54796   4.516   0.180   1.791  0.0294 -0.4418  0.7968
14273SOL    HW154797   4.504   0.090   1.822  2.2564 -1.1751 -0.2350
14273SOL    HW254798   4.449   0.230   1.837 -3.6423 -3.0901 -1.1252
14274SOL     OW54799   9.749   5.990   5.483  0.0691 -0.0352  0.2187
14274SOL    HW154800   9.662   6.030   5.485  0.3785  0.6190  1.6966
14274SOL    HW254801   9.790   6.016   5.565  1.3994 -0.9532 -0.1122
14275SOL     OW54802   1.174   0.661   0.909 -0.0107 -0.0661  0.3478
14275SOL    HW154803   1.162   0.592   0.974  0.1608  0.0447  0.4986
14275SOL    HW254804   1.238   0.721   0.949  1.8814 -1.2006 -0.8308
14276SOL     OW54805   4.819  10.290   4.068  0.0940  0.2939  0.3948
14276SOL    HW154806   4.782  10.319   3.984 -0.8519 -1.6682  0.0879
14276SOL    HW254807   4.780  10.204   4.083  1.0110  0.1845  2.3849
14277SOL     OW54808   8.058   1.506   9.997  0.7012 -0.9488 -0.2356
14277SOL    HW154809   7.984   1.450   9.974  0.2500 -0.9049  1.0226
14277SOL    HW254810   8.135   1.451   9.982  0.4683 -0.8582 -1.9450
14278SOL     OW54811   9.425   2.703   0.399  0.7836 -0.0324  0.5793
14278SOL    HW154812   9.481   2.647   0.345 -0.3530 -0.9449  0.2943
14278SOL    HW254813   9.450   2.684   0.489  4.0519  2.9022  0.5008
14279SOL     OW54814   3.496   5.325   1.121 -0.1637 -0.0965  0.2950
14279SOL    HW154815   3.548   5.293   1.195  0.5645 -0.1975 -0.2490
14279SOL    HW254816   3.512   5.419   1.119  0.1195 -0.1488  0.0381
14280SOL     OW54817   4.399   8.589   0.982  0.3417  0.4176  0.2486
14280SOL    HW154818   4.322   8.574   1.037  1.1397 -0.5099  1.1645
14280SOL    HW254819   4.370   8.566   0.894 -0.0629 -1.2713  0.7910
14281SOL     OW54820   9.874   3.187   6.412 -0.4378 -0.3495 -0.5519
14281SOL    HW154821   9.817   3.264   6.423 -0.1364  0.2276 -2.4810
14281SOL    HW254822   9.962   3.219   6.430 -0.5030 -0.7687  0.5843
14282SOL     OW54823   6.982   7.790   4.868  0.1679 -0.2848  0.2373
14282SOL    HW154824   7.038   7.857   4.827 -0.3260 -0.8990 -1.5320
14282SOL    HW254825   6.959   7.827   4.953  0.0043  1.7690 -0.6368
14283SOL     OW54826   9.835   1.661   2.790 -0.0827  0.5932 -0.0428
14283SOL    HW154827   9.876   1.576   2.776  0.8311  0.9384  0.4650
14283SOL    HW254828   9.859   1.685   2.880 -2.5580  0.1840  0.8312
14284SOL     OW54829   7.469   1.314   9.288 -0.2418  0.6496 -0.5905
14284SOL    HW154830   7.449   1.338   9.197 -1.0643  0.6957 -0.4118
14284SOL    HW254831   7.564   1.302   9.290 -0.1036  1.5583 -1.2396
14285SOL     OW54832   7.691   1.632   6.425 -0.3339  0.1102  0.1034
14285SOL    HW154833   7.658   1.653   6.338 -1.3024  1.0247  0.6677
14285SOL    HW254834   7.703   1.718   6.467  0.2700 -0.3131  0.8122
14286SOL     OW54835   5.239   5.046   6.843 -0.1882  0.3264 -0.7841
14286SOL    HW154836   5.162   5.016   6.795  0.4124 -0.7999 -1.0703
14286SOL    HW254837   5.273   4.968   6.886 -0.0545  1.1108  0.5633
14287SOL     OW54838   9.373   9.372   1.804  0.0463 -0.4138 -0.0059
14287SOL    HW154839   9.306   9.397   1.868 -2.5059 -3.1883 -1.3619
14287SOL    HW254840   9.435   9.318   1.854  1.5772  2.3550  1.3107
14288SOL     OW54841   1.008   5.488   0.823 -0.1477 -0.4137  0.2329
14288SOL    HW154842   1.070   5.459   0.890 -1.8970 -0.8753  1.7332
14288SOL    HW254843   0.963   5.408   0.795 -1.5423  0.1589  0.7554
14289SOL     OW54844   5.325   0.872   8.318 -0.8263 -0.0893  0.0369
14289SOL    HW154845   5.362   0.800   8.267 -1.2268 -0.3659  0.1415
14289SOL    HW254846   5.395   0.938   8.319 -0.6751 -0.2330 -0.5540
14290SOL     OW54847   7.807   1.552   1.483  0.5055 -0.0157  0.6627
14290SOL    HW154848   7.823   1.498   1.560 -1.5988 -2.3960 -0.4545
14290SOL    HW254849   7.850   1.505   1.412 -0.6664  0.1835 -0.2016
14291SOL     OW54850   1.277   5.276   0.068 -0.2352  0.1408 -0.3931
14291SOL    HW154851   1.361   5.301   0.106 -0.9066  0.0423  1.2638
14291SOL    HW254852   1.250   5.353   0.017 -0.1032  1.0335  0.8181
14292SOL     OW54853   9.915   6.784   8.793 -0.3728 -0.1281  0.4729
14292SOL    HW154854   9.949   6.696   8.776 -0.3446 -0.2213  0.9884
14292SOL    HW254855   9.859   6.804   8.718 -1.4220 -1.1196  0.9576
14293SOL     OW54856   8.502   2.250   0.082  0.0904  0.3049 -0.0388
14293SOL    HW154857   8.583   2.302   0.087  1.0096 -1.0840  0.1007
14293SOL    HW254858   8.522   2.170   0.131 -1.1264 -0.3881 -0.6231
14294SOL     OW54859   5.026   3.193   8.309  0.0821  0.2535  0.7324
14294SOL    HW154860   5.070   3.170   8.227 -0.4552 -2.3548  1.0886
14294SOL    HW254861   5.090   3.247   8.355  1.3807 -0.2501 -0.3856
14295SOL     OW54862   4.763   0.841   8.312  0.1852  0.2851  0.5725
14295SOL    HW154863   4.832   0.791   8.354  1.6809  0.5170 -1.4667
14295SOL    HW254864   4.687   0.782   8.314  1.1746 -1.0560  0.5328
14296SOL     OW54865   9.804   4.562   5.022 -0.0324  0.1122 -0.1514
14296SOL    HW154866   9.899   4.559   5.012  0.1351 -0.2682  1.3233
14296SOL    HW254867   9.790   4.611   5.103 -1.1397  0.8112 -0.7232
14297SOL     OW54868   5.230   2.242   8.884 -0.3135 -0.7358  0.0275
14297SOL    HW154869   5.177   2.198   8.818 -1.7189  1.7184 -0.6011
14297SOL    HW254870   5.319   2.238   8.850 -0.9085 -0.1690 -1.6967
14298SOL     OW54871   8.301   5.118   0.789 -0.4049  0.1472  0.2282
14298SOL    HW154872   8.213   5.082   0.774 -1.0500  1.3148  1.0334
14298SOL    HW254873   8.357   5.070   0.728 -1.1859 -2.2656  1.2622
14299SOL     OW54874   0.048  10.229   4.030 -0.4586  0.1716  0.1085
14299SOL    HW154875   0.046  10.144   4.073  1.6332  0.4838  0.9097
14299SOL    HW254876   0.134  10.265   4.050 -0.8649  2.0102 -1.1475
14300SOL     OW54877   9.170   5.161   2.664 -0.1559 -0.3341  0.1134
14300SOL    HW154878   9.225   5.238   2.654  0.2633 -0.7582 -0.9967
14300SOL    HW254879   9.174   5.117   2.579 -2.3081 -0.3222 -0.0547
14301SOL     OW54880   7.932   0.656   5.685 -0.5340  1.0546 -0.2404
14301SOL    HW154881   8.021   0.676   5.657 -0.6936  1.2031 -0.6441
14301SOL    HW254882   7.879   0.725   5.647 -0.6169  1.8831  1.3267
14302SOL     OW54883   8.312   7.819   6.184  0.1554 -0.6301  0.7818
14302SOL    HW154884   8.404   7.814   6.159  0.1876 -0.3999  0.8546
14302SOL    HW254885   8.269   7.859   6.108  0.2990  0.3461  1.2097
14303SOL     OW54886   1.818   2.686   8.442  0.0373 -0.1226  0.3469
14303SOL    HW154887   1.775   2.760   8.400 -1.0076 -0.5613  0.6210
14303SOL    HW254888   1.912   2.708   8.439  0.0829 -0.2841 -2.5257
14304SOL     OW54889   0.043   2.591   9.419 -0.1120 -0.2953 -0.1361
14304SOL    HW154890  -0.047   2.586   9.386 -0.9277  0.4340  1.8542
14304SOL    HW254891   0.038   2.647   9.496  2.0170 -0.4949  0.2167
14305SOL     OW54892   0.535   3.034   7.945 -0.2914  0.5112 -0.1190
14305SOL    HW154893   0.493   2.951   7.926 -0.5470  0.8298 -1.0311
14305SOL    HW254894   0.489   3.069   8.021 -0.6057  0.1233 -0.1325
14306SOL     OW54895   9.308   1.847   0.976 -0.1585  0.8656  0.3752
14306SOL    HW154896   9.295   1.846   1.071  0.7538 -0.5253  0.5185
14306SOL    HW254897   9.395   1.885   0.964  1.1603 -1.8457  0.3904
14307SOL     OW54898   5.676   6.674   8.019  0.4542  0.2628  0.4151
14307SOL    HW154899   5.602   6.651   7.964  0.0998 -0.6402  1.2428
14307SOL    HW254900   5.670   6.769   8.029  0.5458  0.4515 -1.0861
14308SOL     OW54901   6.629   0.414   7.042 -0.0630  0.0475 -0.9839
14308SOL    HW154902   6.698   0.476   7.021 -0.3039  0.6288 -0.0975
14308SOL    HW254903   6.633   0.404   7.137  0.9660 -2.4744 -1.2147
14309SOL     OW54904   6.879   7.313   4.423 -0.0725  0.3792 -0.2768
14309SOL    HW154905   6.841   7.384   4.474  0.3181 -0.7124  1.6451
14309SOL    HW254906   6.805   7.258   4.399 -0.2219  0.7381 -0.6564
14310SOL     OW54907   5.080  10.124   2.826 -0.2389  0.0193  0.5672
14310SOL    HW154908   5.050  10.036   2.849  2.5327 -1.0780  0.3960
14310SOL    HW254909   5.139  10.148   2.897  0.3609  0.9990 -0.2397
14311SOL     OW54910   2.080   1.422   9.498 -0.1595  0.3798 -0.3959
14311SOL    HW154911   2.057   1.334   9.469 -0.5805  0.6929 -1.0329
14311SOL    HW254912   2.003   1.475   9.477  0.8835  1.3325 -2.0104
14312SOL     OW54913   1.521   9.637   8.161  0.2112 -0.3163 -0.1022
14312SOL    HW154914   1.571   9.603   8.236  2.1515 -0.2168 -1.2858
14312SOL    HW254915   1.475   9.561   8.126 -1.2098 -0.2558  1.4936
14313SOL     OW54916   5.068   2.478   1.806 -0.3792  0.1843  0.1092
14313SOL    HW154917   5.067   2.391   1.845 -1.0757 -0.2614 -0.8722
14313SOL    HW254918   5.005   2.528   1.858 -1.0510 -0.3098 -0.2113
14314SOL     OW54919   6.197   5.604   9.125 -0.9217 -0.6572  0.5619
14314SOL    HW154920   6.269   5.656   9.090  0.8551 -2.7559  0.8427
14314SOL    HW254921   6.163   5.557   9.049 -0.9823 -0.7843  0.6680
14315SOL     OW54922   9.067   4.592   6.088 -0.0269 -0.4440 -0.4004
14315SOL    HW154923   9.065   4.629   6.176  0.0260 -0.7493 -0.2708
14315SOL    HW254924   9.064   4.497   6.101  1.3241 -0.5492 -0.6715
14316SOL     OW54925   0.320   0.968   7.648  0.6277  0.4325  0.4315
14316SOL    HW154926   0.402   0.974   7.599 -0.3964 -2.1548 -1.8763
14316SOL    HW254927   0.332   0.893   7.707 -0.3797 -0.8033 -0.8344
14317SOL     OW54928   1.012   4.702   3.257 -0.1225 -0.3094 -0.4429
14317SOL    HW154929   1.100   4.694   3.294  0.7615  0.0422 -2.3417
14317SOL    HW254930   0.995   4.796   3.254 -1.2132 -0.4049  1.2440
14318SOL     OW54931   6.048   1.643   7.356  0.7338  0.5631  0.6244
14318SOL    HW154932   5.991   1.617   7.429 -0.8285 -1.8456 -1.2667
14318SOL    HW254933   6.127   1.589   7.367 -0.3516 -1.3683 -0.4638
14319SOL     OW54934   0.641   6.613   2.441 -0.2883  0.2951  0.3504
14319SOL    HW154935   0.606   6.699   2.418 -1.4803 -0.0163  0.9447
14319SOL    HW254936   0.591   6.551   2.387 -0.5415 -0.1434  1.0756
14320SOL     OW54937   9.914   2.105   6.227  0.2451 -0.1516 -0.3174
14320SOL    HW154938   9.867   2.101   6.144  0.6881  1.4475 -0.6737
14320SOL    HW254939   9.948   2.016   6.239 -0.6222 -0.6560 -1.3526
14321SOL     OW54940   5.534   6.604   5.374 -0.0658 -0.0176  0.3301
14321SOL    HW154941   5.470   6.631   5.440 -0.0104 -3.1867  1.8581
14321SOL    HW254942   5.613   6.653   5.397 -0.6966  0.6349  1.1895
14322SOL     OW54943   9.858   6.368   2.609 -0.4972 -0.1525 -0.3450
14322SOL    HW154944   9.799   6.421   2.663  2.4713  3.6582 -0.3810
14322SOL    HW254945   9.890   6.299   2.667  0.6278  2.2622  2.1365
14323SOL     OW54946   2.764   5.541   5.716  0.0452 -0.2610 -0.2813
14323SOL    HW154947   2.683   5.495   5.738  0.4452 -0.8448 -0.0190
14323SOL    HW254948   2.833   5.489   5.757  0.4287  1.1484  0.9437
14324SOL     OW54949   9.544   8.289   3.368 -0.2583  0.0125  0.5953
14324SOL    HW154950   9.569   8.242   3.289  1.0601 -0.0222  1.0069
14324SOL    HW254951   9.450   8.303   3.359  0.0214  0.9476 -1.4753
14325SOL     OW54952   4.250   3.999   6.109 -0.6743 -0.2514 -0.1321
14325SOL    HW154953   4.342   4.012   6.086 -0.7854 -0.4096 -0.6697
14325SOL    HW254954   4.209   4.084   6.090 -0.6265 -0.1557  0.1848
14326SOL     OW54955   6.978   0.816   6.808  0.0444  0.0958  0.0545
14326SOL    HW154956   7.028   0.755   6.862  0.8961  0.3115 -0.4773
14326SOL    HW254957   6.936   0.876   6.870 -0.7417 -0.9636  0.5812
14327SOL     OW54958   8.214   2.721   7.618 -0.1752 -0.9699  0.1985
14327SOL    HW154959   8.212   2.652   7.685 -0.2082  0.6473  1.9457
14327SOL    HW254960   8.146   2.783   7.646  1.9790  1.3703  0.5098
14328SOL     OW54961  10.211   8.353   4.759  0.6220  0.3813  0.4682
14328SOL    HW154962  10.192   8.426   4.819  1.1301 -0.6310  1.9220
14328SOL    HW254963  10.171   8.277   4.800  1.8888 -0.5407  0.0796
14329SOL     OW54964   3.988   9.093   6.815 -1.0226  0.3810  0.3555
14329SOL    HW154965   4.020   9.035   6.883  0.4269  0.3460 -0.3229
14329SOL    HW254966   3.998   9.043   6.734 -2.0662  0.6820  0.0193
14330SOL     OW54967   0.616   7.953   3.360  0.1190  0.0154  0.0100
14330SOL    HW154968   0.573   8.020   3.307 -0.0672 -0.8744 -0.9720
14330SOL    HW254969   0.563   7.875   3.348  0.9774 -0.6157  0.2477
14331SOL     OW54970   8.400   6.600   1.978  0.2291  0.2019 -0.4168
14331SOL    HW154971   8.434   6.511   1.965  0.0495 -0.1804  1.5267
14331SOL    HW254972   8.441   6.630   2.059 -0.9712  1.2731 -0.1808
14332SOL     OW54973   8.936   3.923   9.526  0.6953  0.2679  0.0715
14332SOL    HW154974   8.936   3.871   9.606 -0.8032 -0.6661 -0.4764
14332SOL    HW254975   8.871   3.991   9.542 -0.6656 -0.7578 -0.7897
14333SOL     OW54976   5.494   1.610   7.428 -0.4987  0.1144 -0.0821
14333SOL    HW154977   5.414   1.561   7.412 -0.3483  0.5513 -2.7215
14333SOL    HW254978   5.561   1.564   7.376  0.0518  1.9541 -1.1019
14334SOL     OW54979   9.282   3.226   8.707 -0.2306 -0.1617  0.5129
14334SOL    HW154980   9.235   3.306   8.685  1.1136  0.6486  0.4969
14334SOL    HW254981   9.263   3.212   8.800  1.6551  1.7140  1.2516
14335SOL     OW54982   5.744   3.764   2.256 -0.2371 -0.0367 -0.5889
14335SOL    HW154983   5.733   3.806   2.341  1.7451  0.3661 -0.4793
14335SOL    HW254984   5.713   3.674   2.270 -2.7669  0.7833 -0.3276
14336SOL     OW54985   8.870   1.854   9.911  0.2933  0.4307  0.0574
14336SOL    HW154986   8.871   1.944   9.878 -2.2941  1.2897  1.9675
14336SOL    HW254987   8.953   1.845   9.959 -0.1790  2.5148  1.3968
14337SOL     OW54988   0.896   8.247   5.746  0.8722  0.2939  0.1869
14337SOL    HW154989   0.973   8.194   5.770  0.4236  0.1406  1.3696
14337SOL    HW254990   0.824   8.184   5.746  0.7409  0.4253 -0.9931
14338SOL     OW54991   0.811   1.939   1.297  0.3710 -0.6023 -0.5148
14338SOL    HW154992   0.866   1.864   1.274  0.4872 -0.8710  0.5857
14338SOL    HW254993   0.814   1.943   1.392  1.5844  1.6826 -0.5568
14339SOL     OW54994   4.864   7.436   1.838  0.0177 -0.0806 -0.7269
14339SOL    HW154995   4.823   7.519   1.862  0.4580 -0.2232  0.5481
14339SOL    HW254996   4.938   7.427   1.898 -0.1403 -1.4932 -0.7133
14340SOL     OW54997   5.951   8.901   0.719 -0.0022 -0.2736 -0.3502
14340SOL    HW154998   6.006   8.869   0.647  1.7227  0.4611  0.5667
14340SOL    HW254999   5.945   8.827   0.780  1.5217  0.1751  0.3877
14341SOL     OW55000   4.290   9.143   6.981  0.1450  0.5695 -0.5526
14341SOL    HW155001   4.228   9.079   7.015 -0.7619  0.0334 -3.0156
14341SOL    HW255002   4.269   9.225   7.026 -2.1703  0.3297 -1.1031
14342SOL     OW55003   4.409   0.480  10.034 -0.1732  0.3580 -0.1807
14342SOL    HW155004   4.489   0.462   9.985 -0.6353 -1.5204 -0.3212
14342SOL    HW255005   4.406   0.575  10.040  0.5640  0.6152 -2.6859
14343SOL     OW55006   2.461   3.112   4.353 -0.4343  0.3058 -0.0685
14343SOL    HW155007   2.392   3.166   4.314  0.6682  1.9122  0.0680
14343SOL    HW255008   2.473   3.040   4.292 -0.1093  1.6956 -1.7259
14344SOL     OW55009   2.949   1.099  10.014 -0.0919 -0.3408 -0.0252
14344SOL    HW155010   2.943   1.019  10.067  0.1365 -0.0206  0.4916
14344SOL    HW255011   2.862   1.110   9.977 -0.6075  0.1176  1.2941
14345SOL     OW55012   2.975   7.114   3.929  0.0709 -0.1412  0.4502
14345SOL    HW155013   3.012   7.082   3.847  2.8068 -0.8328  1.8233
14345SOL    HW255014   2.904   7.053   3.948 -0.9425  0.3310 -1.6008
14346SOL     OW55015   0.724   5.596   6.558 -0.3600 -0.1521 -0.0691
14346SOL    HW155016   0.694   5.674   6.603  1.0050  0.3978 -0.0547
14346SOL    HW255017   0.797   5.626   6.503  0.6063 -1.5043  0.4137
14347SOL     OW55018   0.366   8.405   5.596 -0.2525  0.2015  0.7289
14347SOL    HW155019   0.285   8.437   5.635 -2.5191 -2.8443 -0.9905
14347SOL    HW255020   0.361   8.310   5.606  3.3414 -0.1155  0.8198
14348SOL     OW55021   9.542   7.579   9.440 -0.0934 -0.2729 -0.5294
14348SOL    HW155022   9.560   7.619   9.355 -0.8221  1.8017  0.2469
14348SOL    HW255023   9.449   7.596   9.455 -0.5790 -2.7052 -0.3281
14349SOL     OW55024   2.484   6.773   3.660 -0.1508 -0.8464 -0.0332
14349SOL    HW155025   2.435   6.795   3.739  1.2335  0.0085  0.6352
14349SOL    HW255026   2.474   6.850   3.603 -1.5026 -1.6308 -0.9211
14350SOL     OW55027   1.035   4.179   7.216  0.3249 -0.3144 -0.5379
14350SOL    HW155028   1.043   4.128   7.297  0.9673 -0.5078 -0.7227
14350SOL    HW255029   0.984   4.256   7.242  0.0485 -0.6459 -0.0764
14351SOL     OW55030   1.980  10.186  10.312  0.1745 -0.4143  0.0125
14351SOL    HW155031   1.935  10.151  10.388  0.0095 -0.9265 -0.3168
14351SOL    HW255032   1.923  10.165  10.238  1.6575 -2.4936 -0.6440
14352SOL     OW55033   6.583  10.050   9.437 -0.0500 -0.1384 -0.0648
14352SOL    HW155034   6.619  10.031   9.350  0.4010  1.3441 -0.2364
14352SOL    HW255035   6.650  10.018   9.497  1.4395  2.1779 -0.3789
14353SOL     OW55036   1.153   3.435   5.281  0.3081  0.1289 -0.3372
14353SOL    HW155037   1.213   3.380   5.231 -0.1913 -0.0312 -0.7583
14353SOL    HW255038   1.082   3.377   5.307 -0.6001  0.7154 -1.4180
14354SOL     OW55039   7.918   4.924   1.365 -0.5183 -0.0271  0.2531
14354SOL    HW155040   7.983   4.912   1.434 -1.3187 -1.5699  0.7799
14354SOL    HW255041   7.892   4.835   1.340 -2.3698  0.5334  0.0256
14355SOL     OW55042   3.440   4.883   9.624 -0.3160  0.6211 -0.3824
14355SOL    HW155043   3.470   4.796   9.648 -2.3923 -0.3075 -0.9111
14355SOL    HW255044   3.435   4.931   9.707  1.8142  0.6327 -0.1976
14356SOL     OW55045   5.025   9.373  10.188  0.2896 -0.3115 -0.2684
14356SOL    HW155046   4.934   9.396  10.209  0.4198 -0.8470  0.9958
14356SOL    HW255047   5.076   9.407  10.262  1.2900  0.9795 -1.4954
14357SOL     OW55048   5.704   9.882   7.778  0.6697 -0.1286  0.2306
14357SOL    HW155049   5.654   9.941   7.721 -2.5905 -0.5804  2.3513
14357SOL    HW255050   5.679   9.908   7.866  2.4740 -1.9765  1.3693
14358SOL     OW55051   7.716   4.180   3.211 -0.0848 -0.3065  0.7212
14358SOL    HW155052   7.719   4.100   3.263 -1.9837 -0.4925  0.6081
14358SOL    HW255053   7.776   4.240   3.255 -0.3186 -1.0599  2.1050
14359SOL     OW55054   0.906   2.108   7.417 -0.3078 -0.1938 -0.7210
14359SOL    HW155055   0.946   2.042   7.474 -0.8620  0.7547  0.8222
14359SOL    HW255056   0.871   2.174   7.477  0.3546  1.6035 -2.2112
14360SOL     OW55057   5.765   8.818   4.956 -0.2048  0.4723 -0.0041
14360SOL    HW155058   5.702   8.889   4.946  0.8986  1.4798  0.0076
14360SOL    HW255059   5.798   8.802   4.868 -2.0868 -1.6434 -0.4289
14361SOL     OW55060   3.082   3.960   4.428 -0.4983 -0.3637  0.0843
14361SOL    HW155061   3.045   3.872   4.425  1.1344 -1.3089  3.1304
14361SOL    HW255062   3.063   3.991   4.516  3.3070  0.1601  0.9123
14362SOL     OW55063   0.808   8.095   0.241 -0.3696 -0.0390  0.2470
14362SOL    HW155064   0.871   8.077   0.171  0.1342 -1.3670  1.0139
14362SOL    HW255065   0.724   8.103   0.195  0.2931  1.5740 -0.7688
14363SOL     OW55066   7.952   6.957   8.252 -0.5212  0.3185 -0.2294
14363SOL    HW155067   8.023   6.928   8.310 -1.4099 -0.4527  0.5046
14363SOL    HW255068   7.872   6.941   8.302 -1.3129 -0.2547 -1.6159
14364SOL     OW55069   7.014   5.495   5.629  0.1515  0.3390 -0.0135
14364SOL    HW155070   7.017   5.443   5.548  0.4680  0.2021  0.0841
14364SOL    HW255071   7.033   5.432   5.698  1.2260  0.7096  0.0474
14365SOL     OW55072   5.063   7.809   6.136 -0.5851  0.1314 -0.4700
14365SOL    HW155073   5.086   7.717   6.130 -0.1819 -0.0746  2.4378
14365SOL    HW255074   4.992   7.812   6.201  0.8707  1.9614  1.1743
14366SOL     OW55075   7.249   1.182   3.474  0.0457 -0.2359 -0.2193
14366SOL    HW155076   7.163   1.202   3.511  0.5006  0.6287  0.3810
14366SOL    HW255077   7.238   1.196   3.380 -0.5863 -0.5803 -0.2059
14367SOL     OW55078  10.337   9.598   2.423  0.2774  0.3770 -0.0135
14367SOL    HW155079  10.329   9.536   2.351  0.1439 -1.1885  1.2822
14367SOL    HW255080  10.432   9.603   2.440  0.2365 -0.2308  0.4651
14368SOL     OW55081   7.074   0.375   0.109 -0.0763  0.0370 -0.2945
14368SOL    HW155082   7.088   0.469   0.096  0.3443 -0.3112 -2.9117
14368SOL    HW255083   7.112   0.334   0.031 -0.7326 -2.2864  0.5217
14369SOL     OW55084  10.029   3.734   2.678 -0.3239  0.4477  0.2342
14369SOL    HW155085  10.085   3.804   2.711  0.3217 -0.6771  1.5987
14369SOL    HW255086  10.082   3.655   2.685 -1.6847 -0.4814  0.4839
14370SOL     OW55087   8.411   8.393   7.600 -0.0460 -0.2332  0.0520
14370SOL    HW155088   8.454   8.421   7.681 -0.9034  1.3304 -0.0065
14370SOL    HW255089   8.334   8.449   7.593 -0.6111 -1.1285 -1.2671
14371SOL     OW55090   7.453   9.921   0.082 -0.0798  0.4112 -0.3259
14371SOL    HW155091   7.505   9.916   0.163  0.6197  0.8676 -0.7295
14371SOL    HW255092   7.502   9.868   0.019 -0.8818 -0.3448 -0.3258
14372SOL     OW55093   5.792   4.395   8.574 -0.7127 -0.4260  0.2176
14372SOL    HW155094   5.770   4.377   8.665  0.6756 -3.2924  0.0742
14372SOL    HW255095   5.845   4.475   8.577 -2.1201  0.5226  1.6568
14373SOL     OW55096   9.118   3.621   8.196  0.1152 -0.2245  0.2591
14373SOL    HW155097   9.206   3.601   8.163 -0.3366 -0.9940 -0.5207
14373SOL    HW255098   9.063   3.623   8.118 -1.1382 -2.9252  0.9743
14374SOL     OW55099   8.321  10.180   3.978 -0.6495  0.4314  0.2475
14374SOL    HW155100   8.252  10.203   4.040 -0.5716 -0.1922  0.5736
14374SOL    HW255101   8.276  10.133   3.908 -0.5474 -0.0733  0.5148
14375SOL     OW55102   0.664   4.702   9.914  0.1822  0.2065 -0.2704
14375SOL    HW155103   0.708   4.768   9.861 -0.0039  0.9449  0.4666
14375SOL    HW255104   0.710   4.620   9.895  0.3785  0.5281 -1.2428
14376SOL     OW55105   1.645   3.695   7.924  0.4843  0.1817 -0.2148
14376SOL    HW155106   1.702   3.672   7.851  1.7658  3.7959 -0.5471
14376SOL    HW255107   1.569   3.737   7.883  1.3861  2.5857  0.4001
14377SOL     OW55108   0.788   5.441   6.222 -0.6656  0.5299  0.0243
14377SOL    HW155109   0.852   5.370   6.228  0.0620  1.2001  0.5274
14377SOL    HW255110   0.839   5.517   6.194 -1.1827  1.1498  0.7199
14378SOL     OW55111   7.472   1.911   8.288 -0.3526  0.5202 -0.0337
14378SOL    HW155112   7.527   1.906   8.366 -1.4711  0.6704  0.7848
14378SOL    HW255113   7.533   1.932   8.217  1.2349 -2.9319  0.1362
14379SOL     OW55114   0.561   6.018   3.198 -0.2467 -0.5572  0.0623
14379SOL    HW155115   0.549   6.112   3.185  0.4523 -0.5655 -0.7066
14379SOL    HW255116   0.612   6.012   3.280 -1.3173 -0.3318  0.7586
14380SOL     OW55117   6.407  10.383   5.075 -0.1475  0.1772  0.2592
14380SOL    HW155118   6.493  10.400   5.036 -0.8135  1.3805 -0.7726
14380SOL    HW255119   6.385  10.294   5.048  0.0680  0.4545 -0.9092
14381SOL     OW55120   8.855   8.696   3.652 -0.3661  0.3128 -0.0149
14381SOL    HW155121   8.769   8.731   3.630 -1.3308 -1.1422  1.2235
14381SOL    HW255122   8.868   8.624   3.590 -0.8790 -0.6029  0.8960
14382SOL     OW55123   9.269   3.815   5.919 -0.1738  0.5177  0.3539
14382SOL    HW155124   9.296   3.798   5.829  0.1964 -0.6385  0.6626
14382SOL    HW255125   9.350   3.807   5.970 -0.7977 -1.6806  1.1256
14383SOL     OW55126   2.758   0.230   4.599 -0.4332  0.9248  0.0814
14383SOL    HW155127   2.737   0.324   4.594 -0.2912  0.9093 -1.3140
14383SOL    HW255128   2.837   0.221   4.545 -0.3150  0.0388  0.3927
14384SOL     OW55129   8.605   1.091   9.468 -0.3577  0.2813  0.1825
14384SOL    HW155130   8.539   1.161   9.467 -0.4926  0.3107  2.8027
14384SOL    HW255131   8.687   1.136   9.487 -0.5621 -0.2404  2.6492
14385SOL     OW55132   4.922   9.776   1.984  0.3442  0.3337  0.1584
14385SOL    HW155133   4.917   9.829   2.063  1.7399 -0.7435  1.0226
14385SOL    HW255134   5.015   9.755   1.975  0.5329  1.7506 -2.7052
14386SOL     OW55135   4.514   8.242   2.840  0.0585 -0.4161 -0.2716
14386SOL    HW155136   4.578   8.172   2.850  0.5051 -0.0024 -0.2234
14386SOL    HW255137   4.489   8.239   2.748 -0.3360 -0.9927 -0.1527
14387SOL     OW55138   5.853   5.667   4.032  0.3972 -0.1762  0.3081
14387SOL    HW155139   5.780   5.607   4.015  0.4644 -0.9910  2.5210
14387SOL    HW255140   5.927   5.609   4.050  0.5256  0.5073  2.2487
14388SOL     OW55141   6.615   9.200   3.463  0.3521  0.3638  0.3415
14388SOL    HW155142   6.538   9.196   3.520  1.4220 -0.8330  1.7906
14388SOL    HW255143   6.650   9.111   3.464  1.6029  0.8243 -0.5175
14389SOL     OW55144   9.525   6.266   2.401 -0.5853  0.3025 -0.0528
14389SOL    HW155145   9.566   6.282   2.316 -2.1705 -0.5635 -1.0335
14389SOL    HW255146   9.453   6.329   2.405 -1.5239 -0.7324 -0.1104
14390SOL     OW55147   4.328   5.095   4.400  0.3918 -0.4977 -0.2874
14390SOL    HW155148   4.244   5.056   4.426 -0.6820  1.1590 -1.0889
14390SOL    HW255149   4.356   5.144   4.476  0.0925 -0.1966 -0.3702
14391SOL     OW55150   1.649   3.466   0.069  0.4496 -0.5697 -0.3906
14391SOL    HW155151   1.649   3.562   0.077 -0.8480 -0.5695 -0.1120
14391SOL    HW255152   1.630   3.450  -0.023  0.2303 -0.5553 -0.3486
14392SOL     OW55153   5.696   0.127   4.702  0.5254  0.1099 -0.3512
14392SOL    HW155154   5.617   0.179   4.689  0.4074 -0.2080 -0.9541
14392SOL    HW255155   5.669   0.059   4.764  0.1550 -0.3485 -1.0022
14393SOL     OW55156   5.039   0.247   5.028 -0.0101 -0.3548 -0.0122
14393SOL    HW155157   5.041   0.180   5.096  0.6366  0.8326  1.1893
14393SOL    HW255158   4.958   0.297   5.045  0.3437  0.1793  0.1358
14394SOL     OW55159   9.823   9.953   9.854  0.0210 -0.2244  0.0533
14394SOL    HW155160   9.763   9.888   9.891  0.2770 -0.3814  0.2020
14394SOL    HW255161   9.770  10.004   9.793  0.2772 -1.9674 -1.7348
14395SOL     OW55162   3.551   1.379   4.479  0.6650 -0.4488 -0.4593
14395SOL    HW155163   3.484   1.369   4.411 -0.2527 -0.5491  0.4261
14395SOL    HW255164   3.544   1.471   4.505  1.4426 -0.2528 -0.9239
14396SOL     OW55165   8.238  10.202   5.548 -0.3289 -0.4701  0.9159
14396SOL    HW155166   8.202  10.289   5.561 -1.3827 -1.0746  2.2866
14396SOL    HW255167   8.174  10.157   5.492  0.5784 -0.1719 -0.4240
14397SOL     OW55168   6.600   8.139   8.517  0.3727  0.3498  0.4466
14397SOL    HW155169   6.578   8.056   8.561 -1.3826  0.4035 -0.2521
14397SOL    HW255170   6.687   8.161   8.550  0.6725 -1.5237  1.0175
14398SOL     OW55171   4.149   2.587   4.396 -0.4473  0.4423 -0.2404
14398SOL    HW155172   4.122   2.550   4.480  0.3811  0.6026  0.1061
14398SOL    HW255173   4.197   2.667   4.419 -0.8210  0.8627 -0.8997
14399SOL     OW55174   1.907   2.258   3.438  0.4444  0.6898 -0.1993
14399SOL    HW155175   1.871   2.259   3.527  2.3469 -0.5213  0.6695
14399SOL    HW255176   1.981   2.197   3.444  1.2264  1.3510 -2.3900
14400SOL     OW55177   9.167   2.551   5.626 -0.0041 -0.3541  0.4946
14400SOL    HW155178   9.183   2.606   5.550  0.8903  0.4254  1.2123
14400SOL    HW255179   9.147   2.465   5.590  0.3565  0.0074 -0.6150
14401SOL     OW55180   9.218   0.353   0.474  0.1339  0.2777 -0.0858
14401SOL    HW155181   9.231   0.260   0.452  1.2166  0.3464  0.2203
14401SOL    HW255182   9.142   0.353   0.531 -0.2897 -0.3486 -0.6295
14402SOL     OW55183   1.403   1.356   1.471 -0.8139 -0.7484  0.4209
14402SOL    HW155184   1.469   1.336   1.537 -1.4492 -2.2377  0.6636
14402SOL    HW255185   1.346   1.421   1.512 -0.5958 -0.8809  0.9368
14403SOL     OW55186   7.562   9.842   6.749  0.0372 -0.2569 -0.0317
14403SOL    HW155187   7.544   9.754   6.782  1.9598 -0.8423 -0.3934
14403SOL    HW255188   7.513   9.847   6.667  0.0745 -1.0954 -0.1184
14404SOL     OW55189  10.089   1.937   0.178 -0.1652  0.6837 -0.6515
14404SOL    HW155190  10.077   1.947   0.084 -1.0694 -1.4685 -0.8191
14404SOL    HW255191  10.109   1.844   0.190 -0.4709  0.8289  1.3249
14405SOL     OW55192   7.417   0.538   8.547 -0.1070  0.3714 -0.0270
14405SOL    HW155193   7.331   0.548   8.507  0.3194 -1.2242 -1.4452
14405SOL    HW255194   7.458   0.624   8.538 -1.3929  1.0618  0.3803
14406SOL     OW55195   8.617   1.544   3.737  0.1443  0.1916  0.0022
14406SOL    HW155196   8.609   1.629   3.781  0.3438  1.8526 -2.9255
14406SOL    HW255197   8.700   1.508   3.769  0.0316  1.0499  1.3309
14407SOL     OW55198   0.395   2.244   3.883 -0.2034 -1.0794  0.2829
14407SOL    HW155199   0.374   2.172   3.824  0.4325  0.1299 -1.5308
14407SOL    HW255200   0.315   2.258   3.934 -0.2880 -3.0974  0.7566
14408SOL     OW55201   9.938   6.817   6.319  0.2123 -0.0003 -0.0637
14408SOL    HW155202   9.950   6.745   6.380  0.9032 -2.9712 -3.3564
14408SOL    HW255203   9.851   6.802   6.281 -0.3696  1.9890  0.3807
14409SOL     OW55204   4.555   2.541   0.550  0.2599  0.3854  0.0576
14409SOL    HW155205   4.491   2.508   0.487 -0.5111 -1.2115  1.5993
14409SOL    HW255206   4.637   2.497   0.528  0.6808  1.8171 -1.4103
14410SOL     OW55207   0.552   4.670   2.441 -0.4829  0.7166  0.0943
14410SOL    HW155208   0.518   4.660   2.531 -1.9825 -0.2660 -0.5300
14410SOL    HW255209   0.609   4.746   2.445 -1.8413  1.7208  1.5352
14411SOL     OW55210   1.804   7.194   5.352 -0.5985  0.3558 -0.0128
14411SOL    HW155211   1.714   7.168   5.369 -0.0773  0.0080  2.6528
14411SOL    HW255212   1.857   7.124   5.391  0.8543  0.2240 -2.0931
14412SOL     OW55213   9.543  10.189   0.990 -0.4161 -0.3072 -0.4322
14412SOL    HW155214   9.630  10.217   0.963 -0.2218  1.1455  1.4524
14412SOL    HW255215   9.490  10.197   0.911  0.3783  2.3921 -0.8084
14413SOL     OW55216   4.449   7.955   7.506 -0.2816  0.5893  0.1800
14413SOL    HW155217   4.370   7.916   7.543  0.2744 -1.0541 -0.3210
14413SOL    HW255218   4.420   8.041   7.473 -1.5168  0.6271  1.2978
14414SOL     OW55219   9.156   7.584   1.765  0.7121 -0.0614  0.9419
14414SOL    HW155220   9.126   7.670   1.794  1.6002  0.5067  0.2510
14414SOL    HW255221   9.076   7.538   1.739  0.1882  0.3973  1.7155
14415SOL     OW55222   1.678   7.822   8.415  0.0741  0.8558 -0.1189
14415SOL    HW155223   1.681   7.918   8.410  0.7148  0.7601 -2.2152
14415SOL    HW255224   1.591   7.799   8.381  0.2569  0.6576 -0.4551
14416SOL     OW55225   2.838   2.299   7.821  0.3070  0.3000  0.5263
14416SOL    HW155226   2.867   2.256   7.901  0.7654 -2.2057 -0.8738
14416SOL    HW255227   2.886   2.383   7.820  3.9608 -1.5725  0.7026
14417SOL     OW55228   2.319   8.007   3.289  0.5393  0.0050 -0.0890
14417SOL    HW155229   2.301   7.983   3.198 -0.2692 -1.1976  0.3572
14417SOL    HW255230   2.388   8.073   3.284  0.5224 -0.0661 -1.5660
14418SOL     OW55231   7.342   3.216  10.304 -0.2299 -0.2380 -0.2834
14418SOL    HW155232   7.249   3.230  10.285 -0.8167  1.6005  3.1303
14418SOL    HW255233   7.376   3.173  10.226 -4.2115 -2.2708 -1.1722
14419SOL     OW55234   0.398   8.492   6.920 -0.4527  0.2583 -0.3903
14419SOL    HW155235   0.326   8.436   6.948 -0.3363  0.1483 -0.3090
14419SOL    HW255236   0.476   8.450   6.957 -0.2122 -0.3182 -1.5010
14420SOL     OW55237   7.126   6.808  10.332 -0.2750 -0.2900 -0.0475
14420SOL    HW155238   7.123   6.821  10.427  2.1597  1.3114 -0.0714
14420SOL    HW255239   7.065   6.873  10.297  1.0179  1.2304  0.3918
14421SOL     OW55240   9.561   6.366   1.703  0.1286  0.5317  0.4064
14421SOL    HW155241   9.512   6.359   1.785 -1.3373  0.1991 -0.4567
14421SOL    HW255242   9.507   6.423   1.648  1.0621  0.7093 -0.3519
14422SOL     OW55243   7.349   7.376   6.250  0.3005  0.1912  0.0053
14422SOL    HW155244   7.431   7.334   6.276  1.2100  1.5994 -0.4672
14422SOL    HW255245   7.302   7.308   6.202  1.1748 -0.6555  0.3145
14423SOL     OW55246   1.985   3.478   7.841 -0.1877  0.4223 -0.2079
14423SOL    HW155247   2.024   3.558   7.874 -0.3775  0.3938  0.0913
14423SOL    HW255248   1.920   3.454   7.907  0.4631 -0.4488  0.1408
14424SOL     OW55249   4.276   2.399  10.285  0.5656  0.2375  0.1717
14424SOL    HW155250   4.251   2.333  10.220 -0.1622  0.8576 -0.2053
14424SOL    HW255251   4.371   2.390  10.294  0.7926  0.5814 -1.5176
14425SOL     OW55252   4.925  10.039   9.266 -0.4094 -0.7055 -0.4213
14425SOL    HW155253   4.883  10.123   9.286 -1.0235 -0.6924 -1.6801
14425SOL    HW255254   4.909   9.985   9.344  0.0248  0.3414  0.4213
14426SOL     OW55255   5.932   7.979   4.340  0.6567  0.2830 -0.3405
14426SOL    HW155256   5.872   8.041   4.381 -0.5731 -1.2428  0.2518
14426SOL    HW255257   5.900   7.970   4.250  0.4971  0.0916 -0.2648
14427SOL     OW55258   3.056   9.617   4.670 -0.4895 -0.4659  0.6987
14427SOL    HW155259   2.984   9.678   4.685 -0.3117 -0.0254 -0.1632
14427SOL    HW255260   3.070   9.574   4.755 -1.8889 -0.7066  0.8238
14428SOL     OW55261   6.387   1.397   6.578  0.3577 -0.0930  0.1323
14428SOL    HW155262   6.431   1.332   6.524  1.3363  0.0007  0.7896
14428SOL    HW255263   6.394   1.362   6.667  0.1200  0.4957  0.3868
14429SOL     OW55264   3.098   6.687   2.619 -0.7615  0.5295  0.2117
14429SOL    HW155265   3.080   6.777   2.649 -2.7588  0.3553 -0.2933
14429SOL    HW255266   3.011   6.648   2.609  0.0605 -1.2898 -0.1384
14430SOL     OW55267   1.101   2.589   8.171 -0.0742  0.7053 -0.4881
14430SOL    HW155268   1.071   2.603   8.081 -0.1741  2.1745 -0.2563
14430SOL    HW255269   1.189   2.626   8.172 -1.0757  3.3155  0.6589
14431SOL     OW55270   0.356   1.154   8.115 -0.3482 -0.4058 -0.5160
14431SOL    HW155271   0.451   1.156   8.108 -0.2268 -2.3859  0.1039
14431SOL    HW255272   0.331   1.246   8.125  1.5733  0.0708  0.3767
14432SOL     OW55273   6.151   3.364   7.573 -0.6506  0.1251  0.6259
14432SOL    HW155274   6.096   3.417   7.514  0.8708 -0.2111 -1.1988
14432SOL    HW255275   6.208   3.427   7.615 -0.8710  0.2348  0.7645
14433SOL     OW55276   2.771   9.461   0.955  0.2411  0.2587  0.4221
14433SOL    HW155277   2.716   9.538   0.973  1.1568  0.5162  2.3839
14433SOL    HW255278   2.796   9.429   1.042 -0.5734 -2.6519 -0.2890
14434SOL     OW55279   2.279   3.319   0.881 -0.5726  0.1287 -0.7895
14434SOL    HW155280   2.326   3.360   0.953 -1.0293 -0.7459  0.0318
14434SOL    HW255281   2.197   3.368   0.874  0.0180  1.0275 -1.5741
14435SOL     OW55282   8.981  10.052   5.021  0.1733 -0.4279  0.9954
14435SOL    HW155283   8.922   9.977   5.022 -0.8347  0.1720 -2.0605
14435SOL    HW255284   8.927  10.124   5.055  0.5930 -0.6807  2.2717
14436SOL     OW55285   1.467   4.119   7.448  0.0368 -0.0620  0.8888
14436SOL    HW155286   1.522   4.043   7.466 -0.2417 -0.3547  0.5380
14436SOL    HW255287   1.528   4.189   7.427  0.3099 -0.0820  1.6060
14437SOL     OW55288   4.144   9.065   6.270 -0.3269 -1.2205  0.0732
14437SOL    HW155289   4.121   8.975   6.292 -1.7851 -0.2742  2.8691
14437SOL    HW255290   4.077   9.093   6.208  0.3424 -2.1295 -1.0889
14438SOL     OW55291   6.772   8.208  10.043 -0.0689 -0.0987  0.2908
14438SOL    HW155292   6.842   8.207   9.978  0.6853 -0.0253  1.0807
14438SOL    HW255293   6.764   8.117  10.071 -0.4330 -0.1408  0.0457
14439SOL     OW55294   7.588   5.315   1.965 -0.5645  0.5659  0.3137
14439SOL    HW155295   7.561   5.234   1.921 -2.8204  2.1087 -1.3990
14439SOL    HW255296   7.612   5.288   2.053 -0.4501 -2.0507 -0.4399
14440SOL     OW55297   1.081   5.353   8.013  0.6684 -0.0114  0.1606
14440SOL    HW155298   1.132   5.396   7.944  0.2947 -1.2569 -0.9288
14440SOL    HW255299   1.082   5.416   8.086  1.1993  1.2776 -0.9093
14441SOL     OW55300   8.162   0.485   3.870  0.2493  0.3308  0.3736
14441SOL    HW155301   8.191   0.570   3.902  0.0922 -0.4446  2.8773
14441SOL    HW255302   8.071   0.478   3.901 -0.4476  0.0401 -1.5820
14442SOL     OW55303   0.817   4.645  10.142  0.2205  0.2040  0.5367
14442SOL    HW155304   0.777   4.616  10.224  1.3215 -0.3372  0.8984
14442SOL    HW255305   0.746   4.690  10.096 -0.8756 -0.9479  1.0362
14443SOL     OW55306   1.693   3.095   7.998  0.3404  0.3112  0.0947
14443SOL    HW155307   1.749   3.018   7.995 -0.0063  0.0043  1.2198
14443SOL    HW255308   1.688   3.124   7.907 -0.2163 -1.4985 -0.4975
14444SOL     OW55309   6.706   8.375   0.603  0.1724  0.4788  0.0111
14444SOL    HW155310   6.769   8.336   0.543 -1.1743  0.2090 -1.3050
14444SOL    HW255311   6.701   8.467   0.576  0.7212  0.7357  0.7644
14445SOL     OW55312   7.395   2.205   1.047 -0.8926 -0.6871 -1.0534
14445SOL    HW155313   7.400   2.296   1.016  2.1373 -0.2105  0.4819
14445SOL    HW255314   7.385   2.153   0.967 -0.8193  0.8862 -2.1285
14446SOL     OW55315  10.356   7.273   7.401 -0.3132 -0.4379  0.2608
14446SOL    HW155316  10.335   7.181   7.381  0.6680 -0.4152 -0.9894
14446SOL    HW255317  10.385   7.310   7.317 -0.9808  1.1119  0.6792
14447SOL     OW55318   1.237   2.841   8.645  0.1818 -0.5399 -0.0309
14447SOL    HW155319   1.235   2.935   8.626 -1.1187 -0.6663 -0.6566
14447SOL    HW255320   1.202   2.800   8.566 -1.2094 -1.3921  0.9798
14448SOL     OW55321   1.435   9.968   4.541  0.1762  0.0227  0.1881
14448SOL    HW155322   1.451  10.062   4.549  1.2425 -0.2408  1.5392
14448SOL    HW255323   1.339   9.959   4.543  0.0930  0.9758  1.6043
14449SOL     OW55324   8.064   2.582   8.671 -0.8915  0.4144  0.4374
14449SOL    HW155325   8.029   2.513   8.614 -1.7785  0.2272  1.1851
14449SOL    HW255326   8.090   2.537   8.751  2.0171  0.4016 -0.4220
14450SOL     OW55327   2.219   5.236   1.928 -1.0605  0.1612  0.4943
14450SOL    HW155328   2.240   5.209   2.017  0.6342 -0.3104 -0.0267
14450SOL    HW255329   2.266   5.175   1.872 -0.1485  1.9095 -0.7219
14451SOL     OW55330   5.432   2.857   6.619  0.3816 -0.1297  0.3972
14451SOL    HW155331   5.393   2.942   6.641 -1.1187  0.0849 -2.5457
14451SOL    HW255332   5.526   2.873   6.616  0.0547  1.9398 -1.6376
14452SOL     OW55333   5.544   5.382   3.543 -0.2871  0.1438 -0.5680
14452SOL    HW155334   5.583   5.297   3.565 -1.1688  0.1957  1.4453
14452SOL    HW255335   5.618   5.442   3.539  0.2089 -0.4591 -0.6131
14453SOL     OW55336   3.959   3.768   6.461 -0.1136  0.0045  0.2024
14453SOL    HW155337   3.969   3.829   6.389  0.7505  0.2423  0.5077
14453SOL    HW255338   4.047   3.759   6.498 -0.0414 -2.0526 -0.3324
14454SOL     OW55339   5.673   8.641   6.403 -0.1139  0.1029 -0.0106
14454SOL    HW155340   5.710   8.711   6.457 -0.2247 -0.5222  0.8838
14454SOL    HW255341   5.678   8.676   6.314 -0.2678  1.2935  0.4259
14455SOL     OW55342   2.624   4.855   9.695  0.1717 -0.0086  0.9256
14455SOL    HW155343   2.673   4.778   9.667  0.7405  1.3656 -2.3520
14455SOL    HW255344   2.688   4.909   9.742  0.9890  0.2875 -0.4557
14456SOL     OW55345   2.406   9.234   4.664  0.1436 -0.0544  0.4257
14456SOL    HW155346   2.422   9.195   4.750  0.9404 -0.2730  0.1928
14456SOL    HW255347   2.392   9.327   4.682 -0.3138 -0.2060  0.8481
14457SOL     OW55348   0.471   5.003   8.784 -0.1870  0.0072  0.3314
14457SOL    HW155349   0.525   5.015   8.706 -0.0081 -0.1567  0.4271
14457SOL    HW255350   0.383   5.029   8.758 -0.0158  0.4928  0.2389
14458SOL     OW55351   7.647   7.481   6.100 -0.5331  0.2128  0.1173
14458SOL    HW155352   7.655   7.428   6.179  0.6691 -1.1648 -0.8981
14458SOL    HW255353   7.650   7.572   6.132 -2.0455 -0.2694  1.8149
14459SOL     OW55354   4.857  10.208   0.882  0.2822  0.2134 -0.0849
14459SOL    HW155355   4.903  10.290   0.866 -1.0376  1.0924  0.4196
14459SOL    HW255356   4.920  10.140   0.859  1.6621  1.3546  0.1630
14460SOL     OW55357   3.122   6.610   5.392 -0.2785 -0.1599  0.4283
14460SOL    HW155358   3.163   6.657   5.465 -1.5778  2.5650 -0.4492
14460SOL    HW255359   3.192   6.601   5.327  0.1493 -0.0044  0.8616
14461SOL     OW55360   0.776   5.519   1.297 -0.0019 -0.1321 -0.0027
14461SOL    HW155361   0.863   5.482   1.286  0.8428  1.5560  0.7721
14461SOL    HW255362   0.737   5.516   1.209  1.7698  1.3519 -0.8908
14462SOL     OW55363   9.928   2.591   0.970 -0.7317 -0.0617 -0.0204
14462SOL    HW155364  10.018   2.587   0.939  0.0670 -0.4447  2.2139
14462SOL    HW255365   9.907   2.501   0.995 -0.4139  0.6005  2.8887
14463SOL     OW55366   1.411   9.318   7.060  0.8895 -0.4328  0.1821
14463SOL    HW155367   1.335   9.345   7.111  0.0681 -0.4248 -1.0135
14463SOL    HW255368   1.441   9.398   7.017  1.0726 -0.5952  0.0043
14464SOL     OW55369   7.742   5.287   5.704 -0.0747  0.8077 -0.1502
14464SOL    HW155370   7.771   5.276   5.613  0.4127  0.2552  0.0664
14464SOL    HW255371   7.762   5.204   5.746 -1.9895  0.3877  0.0259
14465SOL     OW55372   9.306   2.530   6.548  0.4166 -0.4542  0.0303
14465SOL    HW155373   9.327   2.440   6.572 -0.1057 -0.6144 -0.0894
14465SOL    HW255374   9.211   2.535   6.554  0.3983 -0.0630 -0.4886
14466SOL     OW55375   7.227   1.964   5.607  0.0285  0.2282  0.1900
14466SOL    HW155376   7.280   1.986   5.531 -0.5741  1.1949  0.0302
14466SOL    HW255377   7.168   2.039   5.618 -1.0929 -0.6739  0.5443
14467SOL     OW55378   4.262   8.506   0.768  0.3571 -0.1821  0.2710
14467SOL    HW155379   4.175   8.524   0.732 -0.0021  0.8133  1.5401
14467SOL    HW255380   4.248   8.431   0.826  0.8109 -1.3920 -1.1177
14468SOL     OW55381   1.692   8.613   1.358 -0.5896  0.2402  0.2989
14468SOL    HW155382   1.643   8.531   1.345 -2.0120  0.8631  1.4500
14468SOL    HW255383   1.625   8.677   1.380  0.7673  1.1431  1.9883
14469SOL     OW55384   8.709   6.072   9.634  0.0858  0.0700  1.0206
14469SOL    HW155385   8.803   6.080   9.645 -0.0759  0.7693  2.0407
14469SOL    HW255386   8.686   6.141   9.571  0.2998 -0.4232  0.3807
14470SOL     OW55387   1.276   9.120   3.524 -0.4462  0.2445 -0.9806
14470SOL    HW155388   1.202   9.085   3.573 -1.3631  2.5297 -0.6312
14470SOL    HW255389   1.292   9.056   3.455 -0.5326 -1.9531  0.9336
14471SOL     OW55390   5.500   0.411   1.247  0.0666 -0.6602 -0.7889
14471SOL    HW155391   5.526   0.356   1.321 -0.8276  1.2821  1.0647
14471SOL    HW255392   5.511   0.500   1.278 -2.2299  0.2326 -2.2707
14472SOL     OW55393   7.365   3.481   7.202 -0.2596 -0.5856  0.0433
14472SOL    HW155394   7.425   3.441   7.265 -0.3190  1.1025  1.2459
14472SOL    HW255395   7.403   3.567   7.182 -2.1274  0.4898  0.7368
14473SOL     OW55396   8.346   6.446   4.720  0.0974 -0.2358 -0.0198
14473SOL    HW155397   8.308   6.383   4.782  1.4184  1.4105  2.6348
14473SOL    HW255398   8.408   6.497   4.772  1.7354  0.9319 -2.8732
14474SOL     OW55399   4.745   5.148   5.346  0.3223  0.1247  0.4469
14474SOL    HW155400   4.720   5.184   5.261 -0.3719 -1.0136  0.1375
14474SOL    HW255401   4.824   5.097   5.328 -0.4987 -1.1165  0.2000
14475SOL     OW55402   5.534   2.816  10.037  0.0342  0.2998  0.0044
14475SOL    HW155403   5.593   2.880   9.998  1.7327  0.4758  2.6522
14475SOL    HW255404   5.570   2.731  10.011 -1.0028  0.3394 -1.7496
14476SOL     OW55405   1.752   2.560   2.577  0.2520  0.0022  0.0645
14476SOL    HW155406   1.774   2.653   2.582 -2.0666  0.5613  1.0484
14476SOL    HW255407   1.837   2.516   2.572  1.3953  2.1794 -1.4956
14477SOL     OW55408   8.470   8.639   0.403 -0.1210  0.0629 -0.2530
14477SOL    HW155409   8.408   8.582   0.449 -0.3640  1.3488  1.1182
14477SOL    HW255410   8.542   8.582   0.378  0.7968 -0.5178  3.1902
14478SOL     OW55411  10.013   3.569   9.125  0.6615 -0.4952  0.1401
14478SOL    HW155412   9.995   3.576   9.218  3.2468  0.2436  0.6607
14478SOL    HW255413   9.931   3.594   9.082 -0.0019  1.0772  2.2061
14479SOL     OW55414   8.903   6.998   1.112  0.0902 -0.3731  0.6231
14479SOL    HW155415   8.946   6.913   1.115 -1.6156 -1.3769 -1.0533
14479SOL    HW255416   8.889   7.014   1.018 -1.1604  0.9139  0.9936
14480SOL     OW55417   3.385   1.216  10.110 -0.5387 -0.5294  0.1605
14480SOL    HW155418   3.431   1.226  10.026  0.2537  2.1382  0.8265
14480SOL    HW255419   3.308   1.271  10.101 -0.1352  0.2564  1.3791
14481SOL     OW55420   6.089   8.630   1.079 -0.3367 -0.5974  0.9099
14481SOL    HW155421   6.125   8.558   1.131  2.9561 -1.0939 -1.7549
14481SOL    HW255422   6.132   8.708   1.115 -1.2848 -0.3655  1.5768
14482SOL     OW55423   6.995   6.818   7.048 -0.2740  0.6170 -0.3022
14482SOL    HW155424   6.969   6.733   7.013  1.6763  0.0421 -0.4193
14482SOL    HW255425   6.924   6.877   7.022 -1.6639 -0.9504 -0.2086
14483SOL     OW55426   6.405   0.621   3.280 -0.3637 -0.2085 -0.5842
14483SOL    HW155427   6.396   0.543   3.226  0.6940 -1.0895  0.4663
14483SOL    HW255428   6.399   0.589   3.370 -0.0236  0.9419 -0.1328
14484SOL     OW55429   4.965   1.885   2.184 -0.3213 -0.3550 -0.0586
14484SOL    HW155430   4.990   1.833   2.261 -2.6264 -1.5096 -0.0204
14484SOL    HW255431   5.007   1.970   2.199  0.3820 -0.9724  1.7965
14485SOL     OW55432   5.318   2.004   9.663 -0.2727  0.0089  0.5866
14485SOL    HW155433   5.366   1.951   9.599 -1.2189 -0.3226  0.1351
14485SOL    HW255434   5.287   2.079   9.613 -0.2206  0.2210  0.8742
14486SOL     OW55435   1.259   4.542   7.686  0.1010  0.0224 -0.5273
14486SOL    HW155436   1.218   4.506   7.608 -0.2404 -1.0420  0.1125
14486SOL    HW255437   1.186   4.570   7.741  0.0952 -2.5828  0.9518
14487SOL     OW55438  10.154   4.342   5.642  0.0122 -0.2432  0.0467
14487SOL    HW155439  10.234   4.379   5.679  0.6251 -2.3606  0.9749
14487SOL    HW255440  10.185   4.271   5.585 -1.1279  0.3898 -1.4321
14488SOL     OW55441   1.565   8.045   0.208 -0.4664 -0.3688 -0.4643
14488SOL    HW155442   1.475   8.020   0.188 -0.4413 -0.7911 -0.0509
14488SOL    HW255443   1.574   8.031   0.302  0.2848 -1.1478 -0.6419
14489SOL     OW55444   4.407   7.556   2.367  0.0508 -0.1745 -0.2331
14489SOL    HW155445   4.436   7.466   2.384  0.3880  0.0618  0.5058
14489SOL    HW255446   4.320   7.561   2.407  0.3500  0.0426  0.3979
14490SOL     OW55447   5.113   9.073   7.415  0.1821  0.1685 -0.1633
14490SOL    HW155448   5.146   9.012   7.349  1.1514  0.4748  0.0106
14490SOL    HW255449   5.130   9.160   7.377 -0.8458  0.3408 -0.2531
14491SOL     OW55450   2.190   4.318   0.447  0.0426 -0.2985  0.0780
14491SOL    HW155451   2.163   4.227   0.454  0.4018 -0.4573 -0.5369
14491SOL    HW255452   2.124   4.366   0.497  0.1311 -0.9370  0.8186
14492SOL     OW55453   8.183   7.064   0.776 -0.7337 -0.1145 -0.2183
14492SOL    HW155454   8.182   7.159   0.769 -0.7324 -0.1581 -0.8576
14492SOL    HW255455   8.091   7.038   0.774 -0.7786 -0.0684  0.8841
14493SOL     OW55456   9.361   2.223   3.009  0.3184 -0.0104  0.8038
14493SOL    HW155457   9.350   2.274   3.090 -1.5756  0.8228  0.0946
14493SOL    HW255458   9.405   2.283   2.949 -1.1170  0.5399  0.2519
14494SOL     OW55459   6.889   4.531   0.234 -0.0530  0.5234  0.2988
14494SOL    HW155460   6.869   4.441   0.208 -0.6428  0.4274  1.0574
14494SOL    HW255461   6.942   4.522   0.313 -1.6390  0.8451  1.4439
14495SOL     OW55462   8.350   7.455   7.102  0.6465  0.0142  0.4154
14495SOL    HW155463   8.311   7.443   7.015  1.2215  0.7050  0.0462
14495SOL    HW255464   8.318   7.381   7.153  0.1706 -0.3193 -0.3396
14496SOL     OW55465   8.690   9.857   6.220 -0.2805  0.2767 -0.6051
14496SOL    HW155466   8.613   9.822   6.265 -0.6899  0.4215 -1.1887
14496SOL    HW255467   8.753   9.785   6.220 -0.6069 -0.0100 -0.5865
14497SOL     OW55468   5.104   1.807  10.266 -0.1945 -0.1152  0.2126
14497SOL    HW155469   5.131   1.751  10.194  0.0621  2.1776 -1.5994
14497SOL    HW255470   5.141   1.893  10.245 -1.1329  0.9386  2.4691
14498SOL     OW55471   5.935   9.251   5.307  0.1742  0.0540  0.2029
14498SOL    HW155472   5.919   9.316   5.375 -2.0439 -0.7316  0.5009
14498SOL    HW255473   5.914   9.167   5.348  1.9672 -0.7867 -0.4906
14499SOL     OW55474   9.144   9.998   8.129 -0.2991 -0.3629  0.0237
14499SOL    HW155475   9.146  10.082   8.176 -0.4137 -0.6816  0.6156
14499SOL    HW255476   9.066   9.954   8.163  0.0174 -0.9043  0.0641
14500SOL     OW55477   7.845   5.934   6.796  0.5521 -0.5171  0.2091
14500SOL    HW155478   7.873   6.026   6.804  1.4589 -0.6762 -0.9002
14500SOL    HW255479   7.783   5.935   6.723 -0.4119 -0.5989  1.0076
14501SOL     OW55480   1.549  10.235   1.070  0.3162  0.4784  0.9088
14501SOL    HW155481   1.638  10.271   1.076  0.8746 -0.5370 -0.6798
14501SOL    HW255482   1.526  10.245   0.977 -0.4197 -1.1178  0.8992
14502SOL     OW55483   8.609   1.065   7.302 -0.1865 -0.2397  0.5171
14502SOL    HW155484   8.574   1.108   7.380 -1.4885 -2.4661  1.2574
14502SOL    HW255485   8.571   0.977   7.304 -0.2456 -0.4120 -2.6163
14503SOL     OW55486   3.694   0.979   8.852 -0.1815 -0.4212  0.1367
14503SOL    HW155487   3.641   1.053   8.820  0.5138  0.0565  0.0541
14503SOL    HW255488   3.630   0.912   8.876 -0.8431  0.2849  0.4089
14504SOL     OW55489   9.022   8.602   0.935  0.0559 -0.7689  0.1882
14504SOL    HW155490   9.107   8.635   0.906  0.5531  0.1517  2.5011
14504SOL    HW255491   8.999   8.536   0.869  0.9908  1.2177 -2.2770
14505SOL     OW55492   4.870   6.525   7.389 -0.3452  0.0946  0.0988
14505SOL    HW155493   4.927   6.457   7.352 -1.3341 -0.3700 -0.5936
14505SOL    HW255494   4.835   6.571   7.313  1.7642  2.7004  0.5400
14506SOL     OW55495   8.336   7.003  10.332 -0.5993 -0.0972  0.1425
14506SOL    HW155496   8.278   7.062  10.379 -1.1001  0.1260 -0.7441
14506SOL    HW255497   8.291   6.918  10.334 -1.4443  0.2871 -1.3712
14507SOL     OW55498   8.776   9.438   1.675  0.2688 -0.0535 -0.6154
14507SOL    HW155499   8.704   9.499   1.690  1.8942  1.8070  0.1491
14507SOL    HW255500   8.798   9.405   1.762  1.3860  0.6971 -0.5948
14508SOL     OW55501   8.354  10.217   8.771 -0.4574  0.2585  0.2133
14508SOL    HW155502   8.410  10.145   8.743  0.1406  0.3630  1.1075
14508SOL    HW255503   8.284  10.220   8.705  0.0345 -0.5140 -0.3597
14509SOL     OW55504   6.857   9.999   8.315  0.2517 -0.0611  0.1612
14509SOL    HW155505   6.945   9.980   8.347  1.3343 -2.1646 -3.4687
14509SOL    HW255506   6.800   9.938   8.361  1.2935 -1.1587  0.0344
14510SOL     OW55507   0.186   2.634  10.013 -0.0507 -0.4880  0.1606
14510SOL    HW155508   0.255   2.698   9.992 -0.5415  0.0678  0.2174
14510SOL    HW255509   0.200   2.563   9.951 -0.5694  0.4665 -1.0976
14511SOL     OW55510   2.486   9.085   3.604  0.1308 -0.3329  0.6766
14511SOL    HW155511   2.562   9.144   3.600 -1.2233  1.4161 -0.4181
14511SOL    HW255512   2.459   9.075   3.513 -2.1395  0.7251  1.1673
14512SOL     OW55513   1.852   7.731   5.792 -0.1574  0.2475  0.5173
14512SOL    HW155514   1.760   7.712   5.773 -0.4043  0.1381  1.7297
14512SOL    HW255515   1.866   7.698   5.881  0.4182  2.2964  1.2554
14513SOL     OW55516   4.740   7.906   3.802 -0.2339  0.2470  0.0382
14513SOL    HW155517   4.747   7.830   3.861  1.0338 -0.4150 -0.9193
14513SOL    HW255518   4.752   7.869   3.715 -4.3543  0.7926 -1.0096
14514SOL     OW55519   9.195   9.912   3.592  0.2115 -0.0360  0.1747
14514SOL    HW155520   9.268   9.852   3.589 -1.8366 -2.8339  1.5565
14514SOL    HW255521   9.205   9.958   3.676 -0.5447 -1.8380  1.3101
14515SOL     OW55522   9.108   6.315   9.609  0.3425  0.2771 -0.2130
14515SOL    HW155523   9.143   6.284   9.525 -0.3740 -1.0278 -0.0599
14515SOL    HW255524   9.075   6.402   9.590 -0.6281 -0.3284 -1.5365
14516SOL     OW55525   0.632   2.136   4.842  0.1189  0.4699 -0.2856
14516SOL    HW155526   0.596   2.165   4.926 -1.8264  1.2328 -1.3323
14516SOL    HW255527   0.627   2.041   4.846 -1.6751  0.5457 -0.2291
14517SOL     OW55528   4.706   5.754   2.801 -0.8435 -0.6052 -0.4179
14517SOL    HW155529   4.729   5.824   2.739 -0.5501  0.2417  0.6183
14517SOL    HW255530   4.623   5.721   2.769 -0.8703  0.0536 -1.0720
14518SOL     OW55531   5.712   2.583   5.430 -0.5753 -0.2430 -0.1220
14518SOL    HW155532   5.787   2.527   5.450 -0.1736  0.8414  1.5742
14518SOL    HW255533   5.650   2.567   5.501 -0.6625  1.0803  0.1251
14519SOL     OW55534   1.791   6.107   9.040  0.1373 -0.2340 -0.5409
14519SOL    HW155535   1.708   6.145   9.010 -0.2082 -0.3358  0.2616
14519SOL    HW255536   1.858   6.156   8.993 -0.2885  1.4750  0.5447
14520SOL     OW55537   8.919  10.011   2.166 -0.1349  0.3172 -0.2239
14520SOL    HW155538   9.010  10.039   2.157  0.1416 -0.2210  0.8339
14520SOL    HW255539   8.921   9.917   2.148 -0.3654  0.1763  0.4660
14521SOL     OW55540   3.227   7.197   7.867 -0.6904  0.2311 -0.6203
14521SOL    HW155541   3.218   7.243   7.783  0.7956 -0.0242 -0.9504
14521SOL    HW255542   3.317   7.165   7.867 -1.4204 -2.0091 -0.0395
14522SOL     OW55543   3.384   5.959   2.000  0.2161  0.2732  0.5782
14522SOL    HW155544   3.386   5.919   1.913  1.2755  1.0030  0.2377
14522SOL    HW255545   3.316   6.026   1.994  0.6090  0.6428  0.1460
14523SOL     OW55546   0.525   7.217   2.407 -0.3470 -0.2498 -0.5116
14523SOL    HW155547   0.595   7.272   2.371 -0.0985  0.8141  1.4426
14523SOL    HW255548   0.544   7.214   2.501 -2.1918 -1.0530 -0.1367
14524SOL     OW55549   0.783   8.104   9.596  0.3897 -0.1744  0.6994
14524SOL    HW155550   0.760   8.172   9.533  1.2006 -1.5982 -1.2432
14524SOL    HW255551   0.862   8.136   9.638 -0.3040  0.9132  1.2008
14525SOL     OW55552   9.919   6.652   3.740 -0.4838  0.0683 -0.2780
14525SOL    HW155553   9.949   6.701   3.663 -0.3631 -0.3986 -0.5307
14525SOL    HW255554   9.828   6.679   3.751 -0.9499 -0.9021 -1.4358
14526SOL     OW55555   9.384   1.744   2.591  0.3338  0.1983 -0.2095
14526SOL    HW155556   9.446   1.718   2.659  0.8217 -0.0814 -0.7509
14526SOL    HW255557   9.411   1.832   2.565 -0.2511  0.5714  0.4005
14527SOL     OW55558   1.348   9.536   8.476 -0.2089  0.1094 -0.3816
14527SOL    HW155559   1.359   9.449   8.513 -1.0343 -0.7365 -2.0253
14527SOL    HW255560   1.426   9.550   8.422 -0.5421 -0.0648 -0.9259
14528SOL     OW55561   8.373   3.133   7.389  0.8118  0.3617  0.1423
14528SOL    HW155562   8.440   3.194   7.421  3.2016 -0.6052 -2.5655
14528SOL    HW255563   8.422   3.056   7.362 -1.5330 -0.7301 -1.3040
14529SOL     OW55564   2.031   0.947   6.240  0.3558  0.0731 -0.2370
14529SOL    HW155565   1.967   0.883   6.207  0.7288 -0.1507 -0.5364
14529SOL    HW255566   1.982   0.999   6.304 -0.0755 -0.2167 -0.3256
14530SOL     OW55567   9.706   1.298   0.117  0.4402  0.7818  0.5629
14530SOL    HW155568   9.753   1.296   0.033 -0.8370 -0.5794 -0.1625
14530SOL    HW255569   9.770   1.263   0.180  0.7139 -0.2855 -0.2558
14531SOL     OW55570   3.305   9.466   4.863  0.4470  0.4870 -0.5623
14531SOL    HW155571   3.213   9.447   4.883  0.7887 -0.2369  0.4389
14531SOL    HW255572   3.329   9.535   4.925  0.9972 -0.4462  0.3006
14532SOL     OW55573   4.825   0.671   7.325  0.5295  0.1340 -0.5091
14532SOL    HW155574   4.772   0.750   7.314  0.5322 -0.1692 -3.7457
14532SOL    HW255575   4.762   0.599   7.317  0.7221 -0.2636  1.1205
14533SOL     OW55576   7.652   6.835  10.002  0.3941 -0.2714  0.2306
14533SOL    HW155577   7.702   6.878  10.071 -0.0166  0.1335  0.2790
14533SOL    HW255578   7.674   6.883   9.922  2.4084 -1.9546 -0.3119
14534SOL     OW55579   0.144   6.741   9.484 -0.5985  0.0104  0.0043
14534SOL    HW155580   0.082   6.737   9.411  1.1057 -1.3344 -1.4515
14534SOL    HW255581   0.166   6.834   9.492  0.4068  0.0159 -2.3039
14535SOL     OW55582   4.730   3.060   2.682  0.8001 -0.4177 -0.5812
14535SOL    HW155583   4.766   2.976   2.653  0.6933 -0.3983 -0.7762
14535SOL    HW255584   4.749   3.120   2.610 -0.1406 -0.5448 -0.9538
14536SOL     OW55585   0.434   7.737   2.349 -0.6370 -0.2265 -0.4336
14536SOL    HW155586   0.514   7.738   2.296 -0.4866 -1.5129 -0.2530
14536SOL    HW255587   0.457   7.788   2.427  0.7331 -2.2583  0.5919
14537SOL     OW55588   9.923   1.679   1.945 -0.2601 -0.0146  0.1058
14537SOL    HW155589  10.006   1.633   1.955 -0.1345  0.3826  1.0007
14537SOL    HW255590   9.931   1.725   1.861 -0.5010 -1.7981 -0.9300
14538SOL     OW55591   9.008   8.570   8.941 -0.6619 -0.1109  0.0305
14538SOL    HW155592   8.922   8.531   8.930 -0.9095  0.7933 -1.5992
14538SOL    HW255593   9.069   8.496   8.935 -1.2587 -0.5964 -0.1469
14539SOL     OW55594   3.366   6.491   1.340  0.4984  0.0837  0.2342
14539SOL    HW155595   3.411   6.500   1.256  0.6722  0.9784  0.4167
14539SOL    HW255596   3.303   6.420   1.325 -0.4332  1.1273 -1.0923
14540SOL     OW55597   1.482   5.273  10.196 -0.8398  0.0767  0.4994
14540SOL    HW155598   1.410   5.215  10.222  0.2297 -1.6463 -0.1911
14540SOL    HW255599   1.517   5.234  10.116 -0.6433  2.2308 -0.5266
14541SOL     OW55600   8.356   1.152   4.500 -0.4301 -0.0678  0.0316
14541SOL    HW155601   8.313   1.066   4.507 -0.6683  0.0411 -0.0623
14541SOL    HW255602   8.295   1.204   4.447  0.0940 -0.0826 -0.6054
14542SOL     OW55603   9.998   1.620   8.609  0.0354  0.1309  0.1339
14542SOL    HW155604   9.958   1.546   8.654 -2.0751  0.8566 -0.4008
14542SOL    HW255605  10.011   1.589   8.519 -0.5256  0.2488  0.0004
14543SOL     OW55606   7.427   6.882   8.435  0.0308 -0.5267  0.0504
14543SOL    HW155607   7.422   6.804   8.491  1.7314  0.2399  1.3715
14543SOL    HW255608   7.375   6.948   8.481  0.0154 -0.3804 -0.1742
14544SOL     OW55609   9.209   4.151   7.073 -0.2081  0.1167 -0.1687
14544SOL    HW155610   9.158   4.157   6.992  1.6172 -0.8342 -1.4546
14544SOL    HW255611   9.213   4.058   7.092 -1.9969  0.3942  2.0295
14545SOL     OW55612   7.580   2.707   5.554 -0.1850  0.0904  0.0674
14545SOL    HW155613   7.623   2.733   5.636 -1.1564 -3.3276  1.8680
14545SOL    HW255614   7.505   2.766   5.547 -1.2002 -0.6959  2.8092
14546SOL     OW55615   5.255   3.469   7.404  0.5467  0.2465  0.5101
14546SOL    HW155616   5.318   3.487   7.335 -0.4547 -0.4836 -0.6176
14546SOL    HW255617   5.267   3.376   7.424 -0.2546  0.0789  0.2094
14547SOL     OW55618   4.272   8.379   0.019  0.0210  0.4865 -0.1179
14547SOL    HW155619   4.327   8.321  -0.034 -0.1939 -0.9167  1.1231
14547SOL    HW255620   4.310   8.466   0.006  1.4450 -0.1793 -0.6753
14548SOL     OW55621   4.294   4.697   8.727  0.0127 -0.0490  0.2776
14548SOL    HW155622   4.308   4.614   8.773 -0.2085 -1.2077 -1.6510
14548SOL    HW255623   4.208   4.689   8.688  0.5453  0.5151 -1.0719
14549SOL     OW55624   5.332   0.509   3.676 -0.7429  0.2030 -0.2300
14549SOL    HW155625   5.394   0.513   3.748 -0.4863 -0.1666 -0.4244
14549SOL    HW255626   5.289   0.594   3.676  0.0302  0.6000 -0.3302
14550SOL     OW55627   9.565   0.350   0.528  0.0247  0.0719  0.5285
14550SOL    HW155628   9.478   0.351   0.489  0.1557 -0.5251  0.2107
14550SOL    HW255629   9.620   0.396   0.465  0.4627 -1.8802 -0.5633
14551SOL     OW55630   0.394   1.067   4.776 -0.4833  0.3741  0.5215
14551SOL    HW155631   0.471   1.017   4.801 -0.7596 -0.4640 -0.2501
14551SOL    HW255632   0.422   1.159   4.780  0.6351  0.0716 -0.0086
14552SOL     OW55633   4.632   1.359   5.305 -0.6332  0.0752  0.1134
14552SOL    HW155634   4.557   1.301   5.298 -1.1106  0.6492  0.3798
14552SOL    HW255635   4.604   1.441   5.264 -0.6951  0.7935  1.5212
14553SOL     OW55636   2.115   1.651   8.535 -0.0499 -0.2943  0.6317
14553SOL    HW155637   2.169   1.598   8.476 -1.1258 -0.4328 -0.2556
14553SOL    HW255638   2.054   1.697   8.477  2.3173  3.8686  0.9960
14554SOL     OW55639   8.874   8.716   3.188 -0.1169  0.4099  0.2676
14554SOL    HW155640   8.836   8.762   3.113 -1.0303  0.7231  0.9144
14554SOL    HW255641   8.894   8.786   3.251  2.7412  0.4386 -0.5115
14555SOL     OW55642   2.797  10.175   2.768 -0.3728 -0.0538  0.1533
14555SOL    HW155643   2.754  10.089   2.765  0.4469 -0.4574 -2.3757
14555SOL    HW255644   2.731  10.233   2.806 -1.5586 -1.4920  0.3882
14556SOL     OW55645   7.554   6.695   4.487 -0.3369 -0.3887  0.2387
14556SOL    HW155646   7.492   6.768   4.477  0.2746  0.3196  1.3357
14556SOL    HW255647   7.623   6.714   4.424 -0.4922 -0.3448  0.0821
14557SOL     OW55648   9.378   0.030   7.589  0.2505 -0.7718 -0.3534
14557SOL    HW155649   9.305   0.051   7.646  0.5497 -0.4528 -0.0807
14557SOL    HW255650   9.340   0.025   7.501 -0.3546 -2.0521 -0.0398
14558SOL     OW55651   1.746   5.136   3.760  0.1404 -0.2727  0.3114
14558SOL    HW155652   1.768   5.134   3.853  0.5257  2.0509  0.3198
14558SOL    HW255653   1.748   5.229   3.736  0.1993 -0.8142 -2.0627
14559SOL     OW55654  10.003   3.089   1.251  0.1539  0.1507  0.3500
14559SOL    HW155655  10.092   3.054   1.253 -0.2490 -0.8933  0.7581
14559SOL    HW255656   9.953   3.031   1.308 -0.6177  1.2365  0.7996
14560SOL     OW55657   8.707   7.032   7.363 -0.2934 -0.0202  0.2070
14560SOL    HW155658   8.680   7.115   7.322 -0.3531  1.3424  2.7947
14560SOL    HW255659   8.637   7.012   7.425 -0.1174 -1.8850 -0.1385
14561SOL     OW55660   5.794   7.855   7.761  0.2158 -0.1741  0.1342
14561SOL    HW155661   5.851   7.799   7.709 -0.7097  0.0635 -1.1936
14561SOL    HW255662   5.842   7.937   7.772 -0.1141  0.2702 -1.5523
14562SOL     OW55663   3.816   3.968   3.859 -0.1548  0.3738 -0.2108
14562SOL    HW155664   3.826   3.894   3.919  0.8230  0.7339  0.0927
14562SOL    HW255665   3.903   4.008   3.856 -0.9235  2.1659  0.4761
14563SOL     OW55666   9.430   4.150   2.973  0.1498 -0.3411 -0.5042
14563SOL    HW155667   9.430   4.054   2.973  0.4180 -0.3456 -0.7479
14563SOL    HW255668   9.522   4.174   2.963  0.3522 -0.0327  1.7609
14564SOL     OW55669   6.138   6.712   3.475  0.0132  0.8687 -0.4465
14564SOL    HW155670   6.052   6.676   3.496  0.1748  0.6666 -0.1416
14564SOL    HW255671   6.191   6.636   3.451  0.3630  0.8985  0.2321
14565SOL     OW55672   9.512   8.413   0.228 -0.2061  0.0142  0.7477
14565SOL    HW155673   9.495   8.381   0.139 -0.2504 -0.9817  1.0986
14565SOL    HW255674   9.439   8.473   0.246 -0.8849 -0.7298  0.5555
14566SOL     OW55675   8.140   6.183   3.572  0.3334  0.2356  0.4352
14566SOL    HW155676   8.208   6.120   3.595 -0.1067 -0.1766  0.6154
14566SOL    HW255677   8.063   6.129   3.552 -0.1622  0.7306  0.9841
14567SOL     OW55678   6.247   6.327   0.007 -0.0200  0.5819  0.2169
14567SOL    HW155679   6.289   6.289   0.084 -2.5148  2.1437  2.5268
14567SOL    HW255680   6.302   6.402  -0.017  1.0302 -0.2007  0.1350
14568SOL     OW55681   1.438   9.339   3.612  0.1545 -0.0132 -0.3592
14568SOL    HW155682   1.518   9.348   3.561 -0.6928  0.0544 -1.7139
14568SOL    HW255683   1.388   9.270   3.567 -0.4801 -0.1871  0.5695
14569SOL     OW55684   2.340   8.082   0.193 -0.1332  0.5482 -0.4290
14569SOL    HW155685   2.397   8.139   0.245 -0.7530  0.4299  0.3914
14569SOL    HW255686   2.291   8.031   0.258 -1.3679  0.8379 -1.0983
14570SOL     OW55687   7.810   5.450   8.630 -0.3156 -0.1822 -0.1938
14570SOL    HW155688   7.839   5.522   8.575  1.0729  0.8276  1.7492
14570SOL    HW255689   7.729   5.481   8.670  0.5253  0.5505  1.0040
14571SOL     OW55690   7.352   9.016   1.279  0.5403 -0.3794  0.0985
14571SOL    HW155691   7.290   9.017   1.351  0.2094 -2.7231 -0.0797
14571SOL    HW255692   7.430   8.974   1.315  0.6753 -0.8073 -0.6643
14572SOL     OW55693   4.331   8.329   4.699 -0.2146  0.0763  0.5980
14572SOL    HW155694   4.414   8.369   4.727 -0.1298  0.7973 -0.5980
14572SOL    HW255695   4.291   8.395   4.643 -1.7377 -0.1647  1.3546
14573SOL     OW55696   6.404   1.256   1.671 -0.0474  0.0800 -0.4228
14573SOL    HW155697   6.440   1.344   1.662  1.3907 -0.5474 -1.0454
14573SOL    HW255698   6.389   1.246   1.765  1.1016  0.5036 -0.1774
14574SOL     OW55699   1.284   9.573   1.181 -0.6470  0.4364 -0.0795
14574SOL    HW155700   1.358   9.630   1.159 -1.4122  1.1559 -0.8652
14574SOL    HW255701   1.220   9.631   1.221 -1.1617 -0.0066 -0.2524
14575SOL     OW55702   2.660  10.185   3.234  0.1346  0.0423  0.5068
14575SOL    HW155703   2.656  10.271   3.275  0.9103 -0.6216  2.0706
14575SOL    HW255704   2.698  10.128   3.301 -1.7999 -1.8676  0.0940
14576SOL     OW55705   6.229   1.498   7.953  0.0441 -0.2972  0.2256
14576SOL    HW155706   6.297   1.444   7.993  0.5948  0.7232  0.7207
14576SOL    HW255707   6.233   1.581   8.001  0.1341  0.6629 -1.3648
14577SOL     OW55708   8.836   9.129   2.082 -0.3142  0.3539  0.2645
14577SOL    HW155709   8.853   9.117   1.989 -0.0669  1.1933  0.1937
14577SOL    HW255710   8.910   9.088   2.126  0.5494  1.5997  0.0291
14578SOL     OW55711   0.737   3.480   2.190 -0.1723  0.1476 -0.0947
14578SOL    HW155712   0.700   3.475   2.279 -0.1296 -2.1475 -0.1335
14578SOL    HW255713   0.677   3.429   2.137  1.4993 -1.2504 -0.7197
14579SOL     OW55714   3.308   2.273  10.290 -0.5386 -0.2220  0.3998
14579SOL    HW155715   3.384   2.309  10.246 -0.6019 -0.3453  0.1884
14579SOL    HW255716   3.239   2.338  10.275 -0.7354 -0.5654 -0.2428
14580SOL     OW55717  10.270   3.051  10.266 -0.1560  0.3461 -0.1515
14580SOL    HW155718  10.345   3.007  10.306 -1.1261 -0.1037  1.3074
14580SOL    HW255719  10.204   3.053  10.336 -0.9451  2.1500 -0.8806
14581SOL     OW55720   7.035   8.522   8.149 -0.0053 -0.3042  0.7159
14581SOL    HW155721   7.029   8.483   8.236 -0.6613 -3.4128 -0.5773
14581SOL    HW255722   6.973   8.471   8.096  0.9267  0.9520 -1.7454
14582SOL     OW55723   0.223   4.712   5.232  0.0827 -0.2288  0.3946
14582SOL    HW155724   0.200   4.800   5.203 -0.5933 -0.2850  0.7484
14582SOL    HW255725   0.247   4.666   5.151 -0.1214  0.1090  0.1383
14583SOL     OW55726   4.796   4.228   1.229  0.1019  0.5075  0.3700
14583SOL    HW155727   4.817   4.319   1.208  2.3022 -0.1922 -0.9002
14583SOL    HW255728   4.855   4.206   1.302 -0.8318  0.2579  1.0574
14584SOL     OW55729   9.599   9.990   3.979 -0.7180  0.2274 -0.3959
14584SOL    HW155730   9.591   9.896   3.965  0.1095  0.1939 -0.7148
14584SOL    HW255731   9.529  10.011   4.041  0.5927 -1.0322  1.6249
14585SOL     OW55732   8.854   8.119   1.949 -0.1775  0.5772  0.5053
14585SOL    HW155733   8.867   8.127   1.854  1.6319 -1.2354  0.5212
14585SOL    HW255734   8.852   8.209   1.980 -0.2602  1.2050 -1.2011
14586SOL     OW55735   2.913   8.678   0.237  0.1194 -0.1899 -0.4065
14586SOL    HW155736   2.862   8.709   0.162  0.5314  0.9269 -0.2525
14586SOL    HW255737   2.995   8.647   0.200  0.3501  0.4252 -0.4233
14587SOL     OW55738   9.035  10.044   2.581  0.0223  0.0022 -0.1854
14587SOL    HW155739   9.084  10.097   2.517 -0.8243 -0.3047 -1.1096
14587SOL    HW255740   9.102  10.011   2.641  0.9706 -0.5043 -1.4852
14588SOL     OW55741   2.939   6.461   3.760  0.1833 -0.2314 -0.7925
14588SOL    HW155742   2.906   6.442   3.848 -0.3477  0.3003 -0.8712
14588SOL    HW255743   2.959   6.555   3.762  1.9426 -0.5671 -0.6758
14589SOL     OW55744   7.193   0.638   8.930  0.4389  0.6251  0.3135
14589SOL    HW155745   7.202   0.614   9.022  0.4221 -0.5532  0.0198
14589SOL    HW255746   7.252   0.579   8.883  0.1966  0.9823 -0.4692
14590SOL     OW55747   0.675   2.350   5.609 -0.0200 -0.0560 -0.1130
14590SOL    HW155748   0.622   2.336   5.531  0.3523 -0.9873 -0.2115
14590SOL    HW255749   0.639   2.428   5.649  0.5455  1.1869 -1.8828
14591SOL     OW55750   7.194   4.000   7.478  0.7005 -0.6775 -0.3833
14591SOL    HW155751   7.109   3.981   7.517  0.8915  0.4400  0.6349
14591SOL    HW255752   7.228   4.073   7.529  1.7293 -0.2844 -1.5837
14592SOL     OW55753   9.393  10.187   3.488  0.0562  0.1803  0.3609
14592SOL    HW155754   9.337  10.157   3.560  0.4962 -1.1113  0.2015
14592SOL    HW255755   9.411  10.107   3.438 -2.8726  1.4193 -3.1253
14593SOL     OW55756   0.965   4.233   5.406 -0.2987 -0.1453  0.2392
14593SOL    HW155757   0.986   4.145   5.437  0.8173 -0.3322 -0.9722
14593SOL    HW255758   1.006   4.292   5.469  0.2142 -0.5055  0.2414
14594SOL     OW55759   6.296   0.426   2.873 -0.4794 -0.2568  0.0825
14594SOL    HW155760   6.212   0.410   2.916  0.3250  0.6686  2.0938
14594SOL    HW255761   6.348   0.348   2.894 -0.0114  0.2954  1.0186
14595SOL     OW55762   0.808   4.099   5.610 -0.5134 -0.2965 -0.2117
14595SOL    HW155763   0.830   4.184   5.572  2.3137 -1.1069 -0.5997
14595SOL    HW255764   0.809   4.039   5.535 -0.7135 -0.9687  0.3113
14596SOL     OW55765   4.422   7.236   2.966 -0.3110  0.4228 -0.7413
14596SOL    HW155766   4.387   7.175   3.031  2.4844 -0.6745 -0.1088
14596SOL    HW255767   4.421   7.187   2.884 -1.3814  0.8650 -1.0111
14597SOL     OW55768   1.602   2.549   7.423 -0.6245  0.9006 -0.2442
14597SOL    HW155769   1.585   2.547   7.329  0.5407  0.0520 -0.4716
14597SOL    HW255770   1.584   2.460   7.452 -0.2678  0.9654  0.1818
14598SOL     OW55771   0.533   5.588   4.905  0.3260  0.4671 -0.0367
14598SOL    HW155772   0.568   5.629   4.826  0.5852 -0.1710 -0.2559
14598SOL    HW255773   0.475   5.519   4.873  1.8302 -1.0073  0.3019
14599SOL     OW55774   6.749   1.904   5.208  0.2862  0.4452 -0.0392
14599SOL    HW155775   6.823   1.957   5.180  0.9570  0.9270  2.4272
14599SOL    HW255776   6.702   1.959   5.271  0.0971 -1.2727  1.3958
14600SOL     OW55777   3.204   0.081   1.579  0.0234  0.1220 -0.7684
14600SOL    HW155778   3.114   0.111   1.563 -0.4717 -0.3728  0.9340
14600SOL    HW255779   3.258   0.159   1.564 -0.6499  0.4009 -1.9293
14601SOL     OW55780   3.791   8.239   7.374 -0.0062 -0.2135 -0.3828
14601SOL    HW155781   3.868   8.184   7.389  0.2065  0.2519  0.2782
14601SOL    HW255782   3.789   8.299   7.448 -1.1353 -0.3560 -0.2699
14602SOL     OW55783   4.829   9.945   5.471  0.3292  0.1609  0.2374
14602SOL    HW155784   4.833  10.025   5.524  1.6231 -0.3745  0.9910
14602SOL    HW255785   4.915   9.938   5.430 -0.6120  0.4863 -1.8990
14603SOL     OW55786   4.724   7.255   5.440 -0.2246 -0.1817 -0.5666
14603SOL    HW155787   4.669   7.230   5.365  0.6045  0.7914 -1.5321
14603SOL    HW255788   4.762   7.173   5.471 -2.7348 -0.9986  0.5912
14604SOL     OW55789   6.105   0.941   1.139  0.4380  0.1393  0.3333
14604SOL    HW155790   6.093   1.002   1.212  0.1572  0.1275  0.2970
14604SOL    HW255791   6.030   0.957   1.082  1.0237  0.6483 -0.3174
14605SOL     OW55792   8.662   2.677   0.262  0.4925  0.0587  0.0011
14605SOL    HW155793   8.709   2.756   0.290  1.0138 -0.2799  0.1166
14605SOL    HW255794   8.582   2.676   0.315  0.2182  0.7954 -0.3957
14606SOL     OW55795   2.469   9.009   6.515  0.1644 -0.2639 -0.3235
14606SOL    HW155796   2.437   8.988   6.427  0.2999 -1.4316 -0.1046
14606SOL    HW255797   2.526   9.086   6.502 -0.2354 -0.0958 -1.1674
14607SOL     OW55798   0.522   0.790   7.009 -0.0368  0.1177  0.8208
14607SOL    HW155799   0.505   0.884   7.000 -2.3009 -0.2654  0.2286
14607SOL    HW255800   0.599   0.773   6.954 -1.2117  1.2454 -1.3145
14608SOL     OW55801   8.113   4.997   2.230 -0.2785  0.6665 -0.1351
14608SOL    HW155802   8.161   4.916   2.246  1.6508  1.9504  1.1100
14608SOL    HW255803   8.066   5.014   2.312 -0.1859  1.0987 -0.1668
14609SOL     OW55804   9.812   6.771   0.125  0.4728 -0.2539 -0.1026
14609SOL    HW155805   9.906   6.785   0.136  0.8405 -0.3463 -2.4724
14609SOL    HW255806   9.799   6.679   0.148  1.3673 -0.8001 -1.6396
14610SOL     OW55807   0.437   3.140  10.050 -0.2782 -0.2550  0.8250
14610SOL    HW155808   0.416   3.220  10.099 -0.0521 -1.0141  2.2179
14610SOL    HW255809   0.532   3.136  10.050 -0.2882 -0.5279  0.7757
14611SOL     OW55810   6.076   1.233   9.628  0.0729 -0.5661  0.1218
14611SOL    HW155811   6.149   1.287   9.598 -1.4580  0.8129 -1.2631
14611SOL    HW255812   6.039   1.195   9.549 -3.1979  2.0524  0.1429
14612SOL     OW55813   4.360   7.741   4.933 -0.6686 -0.0215 -0.0813
14612SOL    HW155814   4.327   7.777   4.850  0.0735 -0.9543 -0.8130
14612SOL    HW255815   4.455   7.748   4.925 -0.6171  1.2932  1.3694
14613SOL     OW55816   1.560   3.629   8.797  0.8619  0.0941  0.0327
14613SOL    HW155817   1.465   3.629   8.812  0.5820 -1.6180 -1.3018
14613SOL    HW255818   1.596   3.576   8.868  0.6268 -0.5040 -0.2894
14614SOL     OW55819   6.014   1.781   8.240 -0.9589 -0.6693 -0.1528
14614SOL    HW155820   6.090   1.727   8.217  1.1812  1.4103  1.5921
14614SOL    HW255821   6.025   1.800   8.333 -0.7638  3.8380 -0.8837
14615SOL     OW55822   7.966  10.017   8.280  0.5146 -0.6007 -0.0529
14615SOL    HW155823   7.992  10.103   8.313  2.1837 -0.5207 -1.4170
14615SOL    HW255824   7.940  10.033   8.189 -0.5553 -1.3305  0.1127
14616SOL     OW55825   2.803   0.075   0.232 -0.7530  0.1321  0.0896
14616SOL    HW155826   2.858   0.040   0.302 -0.3554 -0.3876 -0.4819
14616SOL    HW255827   2.808   0.170   0.244 -0.3614  0.0629  0.5144
14617SOL     OW55828  10.208   6.337   5.933 -0.2200  0.8547  0.6815
14617SOL    HW155829  10.294   6.358   5.968 -0.0969  1.3758  0.0832
14617SOL    HW255830  10.179   6.261   5.984  0.8090  0.3486  0.5374
14618SOL     OW55831   6.310   0.709   9.931  0.3042 -0.2855  0.2851
14618SOL    HW155832   6.269   0.796   9.935  1.5400  0.4113 -1.1513
14618SOL    HW255833   6.241   0.651   9.899  0.2984  0.8265 -1.9229
14619SOL     OW55834   6.733   0.371   0.659 -0.8956  0.4512  0.0867
14619SOL    HW155835   6.788   0.303   0.620 -1.4265 -0.6340  1.1443
14619SOL    HW255836   6.689   0.412   0.585  0.3428  0.4749 -0.6728
14620SOL     OW55837   4.758   3.103   6.537 -0.2185  0.4557 -0.6173
14620SOL    HW155838   4.743   3.064   6.451 -0.4509  0.0817 -0.4091
14620SOL    HW255839   4.815   3.040   6.582  0.0685  0.7480 -0.5701
14621SOL     OW55840   0.731   3.789   5.036  0.0961 -0.5591  0.5575
14621SOL    HW155841   0.711   3.714   4.980  0.8540 -1.3058  1.2721
14621SOL    HW255842   0.670   3.857   5.007 -0.0541 -1.1776 -0.6474
14622SOL     OW55843   0.486   9.145   9.574 -0.0125 -0.0064 -0.2240
14622SOL    HW155844   0.442   9.074   9.621  0.2463  0.5927  0.9605
14622SOL    HW255845   0.425   9.169   9.504 -0.8341 -0.3041  0.3771
14623SOL     OW55846   1.940  10.190   4.552 -0.0628  0.2942  0.5109
14623SOL    HW155847   1.903  10.152   4.632  1.4398  0.4299  1.3117
14623SOL    HW255848   1.954  10.115   4.495  0.7987 -0.0922  1.2076
14624SOL     OW55849   3.166   0.267   2.875  0.0714  0.1901  0.1089
14624SOL    HW155850   3.130   0.205   2.812 -3.0050  1.3674  0.5680
14624SOL    HW255851   3.109   0.260   2.951  0.9193  2.0767  0.9802
14625SOL     OW55852   2.778   1.557   9.836 -0.0472 -0.0489 -0.8482
14625SOL    HW155853   2.759   1.488   9.900  0.7801 -0.3499 -0.9075
14625SOL    HW255854   2.714   1.626   9.854  1.7590  1.0553  2.0745
14626SOL     OW55855   0.383   7.545   3.530 -0.2701 -0.0742 -0.5994
14626SOL    HW155856   0.300   7.511   3.499 -2.0345 -0.0601  3.4280
14626SOL    HW255857   0.361   7.631   3.566  1.2511 -0.4103  1.3053
14627SOL     OW55858   2.795   2.597   9.042  0.5555  0.1843  0.0211
14627SOL    HW155859   2.796   2.631   8.953  1.2864  0.2475  0.0472
14627SOL    HW255860   2.810   2.673   9.098 -0.5841  0.2538  0.2430
14628SOL     OW55861   9.493   2.239   7.876  0.8139  0.3387 -0.2701
14628SOL    HW155862   9.574   2.288   7.888  0.9605 -0.4647  2.5847
14628SOL    HW255863   9.505   2.160   7.928 -2.5882  1.1591  2.0286
14629SOL     OW55864   3.261   5.473  10.272 -0.1727  0.8293  0.1514
14629SOL    HW155865   3.272   5.432  10.186 -1.2111 -0.3102  0.5455
14629SOL    HW255866   3.347   5.510  10.292  0.2165  0.6735 -1.1546
14630SOL     OW55867  10.151   1.253   0.639  0.0148 -0.2371 -0.0076
14630SOL    HW155868  10.114   1.328   0.593  2.6805  0.2838 -1.5159
14630SOL    HW255869  10.185   1.289   0.721  2.0188  0.4773 -1.0837
14631SOL     OW55870   4.271   6.398   8.362 -0.1536  0.1266  0.0251
14631SOL    HW155871   4.301   6.319   8.317  0.9543 -0.0526  1.0212
14631SOL    HW255872   4.347   6.456   8.360 -0.6510  0.7880  0.1529
14632SOL     OW55873   6.087   0.333   0.487  0.4750 -0.0648  0.2162
14632SOL    HW155874   6.164   0.380   0.521  0.8081 -0.4891  0.0633
14632SOL    HW255875   6.041   0.304   0.565  0.5636  0.0430  0.3096
14633SOL     OW55876   9.614   0.699   1.776  0.3440 -0.1666  0.9060
14633SOL    HW155877   9.527   0.662   1.789 -0.5009  1.3813 -0.0772
14633SOL    HW255878   9.599   0.791   1.759  2.2335  0.2408  1.2008
14634SOL     OW55879   3.927   9.848   0.479  0.3593  0.2418  0.7689
14634SOL    HW155880   3.923   9.861   0.574  0.2387  0.3644  0.7482
14634SOL    HW255881   3.836   9.858   0.450  0.3638  0.0012  0.6658
14635SOL     OW55882   5.376   4.527   2.663  0.4183  0.1635 -0.5841
14635SOL    HW155883   5.438   4.455   2.670 -0.5250 -0.6055  0.1311
14635SOL    HW255884   5.319   4.517   2.739  0.2894  1.6953 -0.4372
14636SOL     OW55885   7.663   8.389   6.993 -0.4560 -0.0486  0.5659
14636SOL    HW155886   7.715   8.446   6.936 -0.2776  0.2969  1.0693
14636SOL    HW255887   7.687   8.415   7.082 -0.6552 -0.6569  0.8011
14637SOL     OW55888   0.545   9.010   3.253  0.0013  0.4842  0.0098
14637SOL    HW155889   0.547   8.914   3.243 -0.4456  0.6618 -2.2823
14637SOL    HW255890   0.466   9.037   3.207  0.1475  1.9673  0.6002
14638SOL     OW55891   8.782   0.824   2.891 -0.2041 -0.5879  0.7508
14638SOL    HW155892   8.720   0.778   2.948  1.1886 -2.1771  1.0461
14638SOL    HW255893   8.868   0.804   2.927  0.6833 -1.0474 -1.4789
14639SOL     OW55894   2.693   0.845   3.577  0.3927 -0.3364 -0.4502
14639SOL    HW155895   2.608   0.881   3.551  0.4818 -0.2753 -0.6609
14639SOL    HW255896   2.694   0.757   3.540  0.8915  0.0749 -1.4456
14640SOL     OW55897   7.398   5.177   4.707 -0.1414  0.5317  0.1956
14640SOL    HW155898   7.393   5.146   4.797  0.2668 -0.2060 -0.0239
14640SOL    HW255899   7.483   5.145   4.675  0.9962  3.1267  0.3924
14641SOL     OW55900   6.431   1.685   1.058  0.1974  0.1258 -0.1710
14641SOL    HW155901   6.393   1.692   0.970  2.5666  0.0035 -1.2549
14641SOL    HW255902   6.471   1.598   1.060  1.9365  0.8967  0.2512
14642SOL     OW55903   3.185   0.658   5.006  0.3828 -0.3187 -0.8058
14642SOL    HW155904   3.126   0.584   5.018  1.2531 -0.9486 -0.3954
14642SOL    HW255905   3.126   0.734   4.997 -0.4944 -0.9857 -0.8066
14643SOL     OW55906   9.588   1.633   6.868  0.1042  0.2299 -0.6952
14643SOL    HW155907   9.500   1.610   6.898  0.8405  0.7682  2.1189
14643SOL    HW255908   9.573   1.688   6.791 -2.1357  1.7936  0.7229
14644SOL     OW55909   8.418   7.052   6.542 -0.0439 -0.0505 -0.1102
14644SOL    HW155910   8.469   7.110   6.599  1.2296 -0.6112 -0.6375
14644SOL    HW255911   8.357   7.109   6.497  1.2637  0.9288 -0.7112
14645SOL     OW55912   0.185   3.621   7.872  1.0707 -0.3029 -0.7344
14645SOL    HW155913   0.202   3.711   7.842  1.1945 -0.5695 -1.4860
14645SOL    HW255914   0.139   3.632   7.955  1.2155  0.4574 -0.7431
14646SOL     OW55915   4.478   0.797   3.410 -0.1336 -0.0017 -0.2298
14646SOL    HW155916   4.404   0.843   3.448  0.1966  0.5444 -0.2248
14646SOL    HW255917   4.454   0.785   3.318  0.5386  1.8780 -0.6984
14647SOL     OW55918   8.748   7.343   5.009  0.2087 -0.1267 -0.1929
14647SOL    HW155919   8.690   7.406   5.052  0.6500  1.0115 -1.2016
14647SOL    HW255920   8.822   7.334   5.068  0.4117  0.7663 -0.2984
14648SOL     OW55921   8.935   9.868   8.281  0.2319  0.0809  0.1864
14648SOL    HW155922   8.996   9.858   8.354 -1.3097 -0.6915  1.4241
14648SOL    HW255923   8.935   9.783   8.237  0.7061  0.3616 -0.3779
14649SOL     OW55924   2.768   9.531   4.986 -0.2166 -0.2750 -0.3844
14649SOL    HW155925   2.741   9.439   4.989 -1.4556  0.0874  0.1249
14649SOL    HW255926   2.736   9.568   5.068  0.9423  0.4502 -0.2402
14650SOL     OW55927   3.521   8.518   1.645 -0.3932  0.4676 -0.2304
14650SOL    HW155928   3.532   8.611   1.629 -0.5758  0.5024 -0.1604
14650SOL    HW255929   3.489   8.513   1.736  0.3737  0.2898  0.0390
14651SOL     OW55930   5.262   2.012   9.029  0.6184  0.7299 -0.1616
14651SOL    HW155931   5.181   1.971   8.997  0.8985  0.4779 -0.5553
14651SOL    HW255932   5.273   2.089   8.973 -0.5495  2.0525  1.3437
14652SOL     OW55933   3.705   3.422   7.099 -0.0289  0.3970 -0.3414
14652SOL    HW155934   3.626   3.474   7.116 -0.3278 -0.3198  0.5067
14652SOL    HW255935   3.776   3.485   7.105 -0.3702  0.6936  0.8923
14653SOL     OW55936   6.477   7.394   8.848  0.0049  0.7230  0.1859
14653SOL    HW155937   6.416   7.400   8.775 -0.2291 -1.7334  0.0868
14653SOL    HW255938   6.560   7.368   8.809 -0.0828 -0.4501  0.7113
14654SOL     OW55939   2.001   7.748   4.892 -0.1851 -1.0315  0.0527
14654SOL    HW155940   1.976   7.709   4.808 -2.3185  0.8674 -0.2723
14654SOL    HW255941   1.961   7.691   4.958  0.0015 -1.5315 -0.2614
14655SOL     OW55942   8.857   4.802   4.780 -0.7768 -0.0205  0.2644
14655SOL    HW155943   8.886   4.772   4.694 -0.1497 -2.0514  1.1450
14655SOL    HW255944   8.931   4.787   4.838 -1.2825  1.0891  1.2473
14656SOL     OW55945   6.001   5.928   0.297 -0.4567 -0.6331 -0.3738
14656SOL    HW155946   6.086   5.923   0.254  0.3376  0.2592  1.0035
14656SOL    HW255947   5.995   6.018   0.330 -0.4835 -1.5016  2.3070
14657SOL     OW55948   0.023   7.353   0.164  0.0347  0.1795  0.2412
14657SOL    HW155949   0.069   7.377   0.244  0.4351 -2.2290  0.7929
14657SOL    HW255950   0.056   7.267   0.141 -0.5925  0.4843 -2.1594
14658SOL     OW55951   0.671   3.520   2.708 -0.1319 -0.0382  0.5919
14658SOL    HW155952   0.746   3.546   2.763  0.3879 -0.8169  0.2607
14658SOL    HW255953   0.640   3.439   2.747 -0.3185 -0.1287  0.2576
14659SOL     OW55954   5.064   1.970   7.552 -0.0386 -0.4729  0.7417
14659SOL    HW155955   5.069   1.901   7.618  0.0811  0.0592  1.2973
14659SOL    HW255956   5.141   2.024   7.566  0.4074 -0.7946 -0.3543
14660SOL     OW55957   1.253   6.793   0.074 -0.1402 -0.2499 -0.2355
14660SOL    HW155958   1.273   6.880   0.110 -1.1039  0.1228 -0.5555
14660SOL    HW255959   1.336   6.747   0.075  0.1499  0.2732  1.0476
14661SOL     OW55960   9.118   1.032   2.982 -0.3699 -0.3260  0.4922
14661SOL    HW155961   9.077   0.946   2.973 -1.6200  0.1537  1.2718
14661SOL    HW255962   9.079   1.069   3.062 -0.9952  1.5439 -0.6061
14662SOL     OW55963   5.990   0.135   4.774  0.3753 -0.0638  0.3751
14662SOL    HW155964   5.919   0.194   4.750  1.7267  0.8070 -1.8193
14662SOL    HW255965   6.045   0.130   4.695  1.9436 -1.8836  1.4771
14663SOL     OW55966   9.541   0.366   5.124  0.0012  0.0173 -0.1261
14663SOL    HW155967   9.548   0.405   5.211 -1.1849 -0.7816  0.3572
14663SOL    HW255968   9.450   0.380   5.099  0.3587  0.3602 -1.3136
14664SOL     OW55969   3.306   5.403   4.527 -0.8392  0.3267 -0.2130
14664SOL    HW155970   3.291   5.470   4.461 -0.8441  1.8053  1.2284
14664SOL    HW255971   3.218   5.376   4.555 -0.8663  1.4785  0.8878
14665SOL     OW55972   3.840   8.419   6.916  0.1205 -0.5950  0.2744
14665SOL    HW155973   3.750   8.400   6.943 -0.0574  1.9419  1.8830
14665SOL    HW255974   3.831   8.484   6.846  0.6447  0.6857  1.3467
14666SOL     OW55975   3.628   8.867   4.125 -0.1456 -0.0245 -0.5087
14666SOL    HW155976   3.640   8.961   4.136  0.3540  0.2908 -3.1322
14666SOL    HW255977   3.710   8.829   4.155 -0.4000  0.3246  0.6959
14667SOL     OW55978   1.511   9.846   7.686 -0.1950 -0.2385  0.6069
14667SOL    HW155979   1.593   9.803   7.660 -0.6998 -0.2571 -1.1051
14667SOL    HW255980   1.466   9.783   7.741  0.6696 -0.4662  1.0613
14668SOL     OW55981   7.632   0.313   5.148 -0.2525  0.0427  0.0387
14668SOL    HW155982   7.571   0.378   5.115 -0.2972  0.3416  0.7132
14668SOL    HW255983   7.717   0.340   5.112 -0.3526  0.1811 -0.0956
14669SOL     OW55984   0.033   5.732   1.311 -0.2870 -0.3542 -0.1831
14669SOL    HW155985  -0.005   5.770   1.232  0.6151 -1.5394 -1.2381
14669SOL    HW255986  -0.011   5.647   1.320  0.6712 -0.8731 -0.2930
14670SOL     OW55987   9.152   5.692   0.697 -0.0273 -0.3715 -0.0769
14670SOL    HW155988   9.106   5.641   0.631  0.0852 -0.0544 -0.4024
14670SOL    HW255989   9.118   5.781   0.687  1.0457 -0.0125 -0.6991
14671SOL     OW55990   0.962   4.523   0.658 -0.6427  0.4549  0.4896
14671SOL    HW155991   0.898   4.549   0.592 -0.2847  1.3516  0.4847
14671SOL    HW255992   1.046   4.551   0.622 -0.3037 -0.1685  0.7700
14672SOL     OW55993   2.335   5.003   6.344 -0.7442  0.5141 -0.2890
14672SOL    HW155994   2.377   4.918   6.360  0.5613  0.4254 -3.5122
14672SOL    HW255995   2.372   5.060   6.411 -0.2398 -0.9985  0.7926
14673SOL     OW55996   2.249   4.576   6.256  0.1016  0.1048  0.1412
14673SOL    HW155997   2.234   4.512   6.326 -1.8865  1.5095  1.1156
14673SOL    HW255998   2.308   4.641   6.295  3.1733 -1.6347 -1.2619
14674SOL     OW55999   8.006   3.615   5.317 -0.5966  0.5607  0.0202
14674SOL    HW156000   7.989   3.624   5.411 -2.1240  3.4533 -0.4156
14674SOL    HW256001   8.022   3.705   5.287 -2.1716  0.0219 -2.8069
14675SOL     OW56002   0.267   3.485  10.065 -0.1979  0.2853 -0.3261
14675SOL    HW156003   0.283   3.420   9.997 -2.5089 -0.9279  0.1807
14675SOL    HW256004   0.211   3.550  10.024 -1.2064 -0.1966  0.2513
14676SOL     OW56005   4.400   2.918   8.269 -0.1428  0.0281 -0.5726
14676SOL    HW156006   4.457   2.993   8.289  2.1017 -1.7859  0.2650
14676SOL    HW256007   4.340   2.913   8.343  0.9520 -0.1140  0.3277
14677SOL     OW56008   1.168   1.379   5.433  0.4497  0.1362  0.2056
14677SOL    HW156009   1.143   1.311   5.496  0.3253 -1.6428 -1.6775
14677SOL    HW256010   1.096   1.382   5.370  0.6851  1.6945 -0.0372
14678SOL     OW56011   1.023  10.270   4.848 -0.4431 -0.2145 -0.4212
14678SOL    HW156012   1.073  10.238   4.923 -1.0294  1.0744  0.5613
14678SOL    HW256013   0.972  10.343   4.883  0.7313  1.7313 -2.4718
14679SOL     OW56014   5.022   7.075   5.262  0.4964  0.2737  0.5682
14679SOL    HW156015   4.984   7.075   5.350  0.1448 -0.6828  0.4203
14679SOL    HW256016   5.014   6.985   5.232 -0.8376  0.8980 -1.0759
14680SOL     OW56017   7.101   5.452   7.749 -0.2586 -0.1402 -0.0312
14680SOL    HW156018   7.133   5.538   7.777  1.2621 -1.0956  1.3149
14680SOL    HW256019   7.151   5.432   7.671  0.1594 -0.2577  0.2642
14681SOL     OW56020   4.830   5.600   8.553  0.1903 -0.5652  0.3072
14681SOL    HW156021   4.749   5.587   8.504  1.9658 -0.8341 -2.8105
14681SOL    HW256022   4.868   5.512   8.560  1.6290 -0.0951 -1.0378
14682SOL     OW56023   0.810   8.972   6.709  0.2838 -0.3226 -0.1285
14682SOL    HW156024   0.878   8.966   6.777  0.6354  1.7627 -0.2183
14682SOL    HW256025   0.851   8.935   6.631  0.9667  0.0134  0.0644
14683SOL     OW56026   3.469   0.368   7.920 -0.3030  0.0303  0.6141
14683SOL    HW156027   3.545   0.405   7.966 -0.1780  0.6623 -0.0733
14683SOL    HW256028   3.506   0.304   7.860 -0.0372  1.8183 -1.2488
14684SOL     OW56029   1.576   6.934   0.721 -0.2741 -0.2654 -0.0982
14684SOL    HW156030   1.568   6.920   0.627  2.2842  0.4620 -0.5070
14684SOL    HW256031   1.523   7.012   0.738  0.7072  0.7000 -1.3100
14685SOL     OW56032   0.379   8.325   8.808 -0.3747  0.1741 -0.6012
14685SOL    HW156033   0.339   8.397   8.857  0.0565 -0.0508  0.1067
14685SOL    HW256034   0.457   8.302   8.860  0.5311  0.4276 -1.8013
14686SOL     OW56035   5.400   6.045   9.376  0.5661  0.2244  0.1359
14686SOL    HW156036   5.331   5.994   9.417  0.2263  1.5511  1.3201
14686SOL    HW256037   5.359   6.086   9.301  0.9439 -1.4846 -1.0581
14687SOL     OW56038  10.229   3.133   2.559 -0.5118  0.0130 -0.4681
14687SOL    HW156039  10.296   3.112   2.624 -0.3899 -1.6782 -1.0992
14687SOL    HW256040  10.275   3.181   2.491 -0.2927  0.3266 -0.1004
14688SOL     OW56041   8.576   3.620   9.506 -0.0425 -0.3382 -0.1307
14688SOL    HW156042   8.618   3.692   9.459  0.1737 -0.2877  0.1379
14688SOL    HW256043   8.544   3.659   9.587 -0.7463 -0.3419 -0.3945
14689SOL     OW56044   2.464   2.996   4.831 -0.1337  0.4760 -0.0713
14689SOL    HW156045   2.462   2.938   4.908 -0.4115  1.0672  0.3785
14689SOL    HW256046   2.449   2.938   4.757  0.7529 -0.1963  0.2595
14690SOL     OW56047   2.033   1.838   7.812 -0.1367 -0.7786 -0.1761
14690SOL    HW156048   2.064   1.885   7.735 -0.2489 -1.9626 -0.9798
14690SOL    HW256049   1.999   1.755   7.777 -0.5534 -1.1728  1.1062
14691SOL     OW56050   6.432   0.246   7.930 -0.7661  0.3107 -0.3084
14691SOL    HW156051   6.421   0.327   7.981 -0.3062  0.1840  0.0031
14691SOL    HW256052   6.349   0.200   7.940  0.2847 -1.1722  2.9202
14692SOL     OW56053   9.751   6.584   5.089  0.2776  0.2840  0.1167
14692SOL    HW156054   9.775   6.618   5.175  1.0408 -0.6357  0.2831
14692SOL    HW256055   9.656   6.597   5.084 -0.0717 -1.1923  1.8158
14693SOL     OW56056   3.284   3.566   5.461 -0.5479 -0.4801  0.7939
14693SOL    HW156057   3.336   3.496   5.500 -0.3799 -0.1000  1.2690
14693SOL    HW256058   3.342   3.606   5.396 -0.4582 -0.4447  0.8949
14694SOL     OW56059   3.628   5.304   9.365 -0.2159 -0.4655 -0.1350
14694SOL    HW156060   3.547   5.329   9.409 -1.1932 -0.1595 -2.0318
14694SOL    HW256061   3.642   5.372   9.299  2.3277  0.2205  0.9825
14695SOL     OW56062   5.710   3.802   5.355  0.0184 -0.2660 -0.0653
14695SOL    HW156063   5.793   3.756   5.341 -0.1389 -1.3221  2.1553
14695SOL    HW256064   5.667   3.800   5.269  2.9525  1.8716 -1.8091
14696SOL     OW56065   1.458   1.786   5.910  0.2571  0.0899 -0.0091
14696SOL    HW156066   1.463   1.730   5.988 -2.7996  0.7698  0.7911
14696SOL    HW256067   1.531   1.757   5.855  0.7435 -2.4256  1.8056
14697SOL     OW56068   2.566   4.350   1.507 -0.0282  0.0466  0.4052
14697SOL    HW156069   2.656   4.317   1.504  0.1427  0.3332  1.8111
14697SOL    HW256070   2.526   4.317   1.426  1.4647  0.3325 -0.4817
14698SOL     OW56071   2.289  10.045   6.151  0.7409 -0.6262 -0.4236
14698SOL    HW156072   2.208  10.022   6.105  1.1412 -0.6463 -1.1246
14698SOL    HW256073   2.322  10.122   6.106  0.2249  0.4416  0.9502
14699SOL     OW56074   5.495   0.331   8.307 -0.0730  0.5466 -0.3124
14699SOL    HW156075   5.551   0.269   8.354 -0.0941  0.8727  0.1513
14699SOL    HW256076   5.505   0.413   8.356  0.5954  1.1237 -1.3948
14700SOL     OW56077   8.588   5.078   6.363  0.1811 -0.4057 -0.2278
14700SOL    HW156078   8.652   5.008   6.361  0.4184 -0.2015  0.1588
14700SOL    HW256079   8.639   5.158   6.353  0.1187 -0.1658  1.1382
14701SOL     OW56080   7.243   2.960   2.309  0.1087 -0.2291 -0.1881
14701SOL    HW156081   7.308   2.967   2.379  1.0461  0.3719 -1.0835
14701SOL    HW256082   7.159   2.969   2.353  0.7012  0.6434  0.8066
14702SOL     OW56083   4.261   0.201   2.806 -0.2397 -0.4718  0.0511
14702SOL    HW156084   4.311   0.282   2.799  1.0838 -1.3549 -2.1388
14702SOL    HW256085   4.317   0.142   2.856 -0.3566 -0.5924  0.0412
14703SOL     OW56086   9.158   4.696   3.341  0.8951 -0.5346 -0.3204
14703SOL    HW156087   9.080   4.705   3.396  0.0734  0.5706 -1.5848
14703SOL    HW256088   9.214   4.635   3.388 -1.0213 -1.9032  0.3123
14704SOL     OW56089  10.385   1.102   8.384 -0.0591  0.7433  0.4362
14704SOL    HW156090  10.445   1.175   8.365  1.2095 -0.1722  0.7576
14704SOL    HW256091  10.422   1.061   8.463 -0.9101 -0.0679  0.4265
14705SOL     OW56092   0.106   2.764   8.319 -0.2185  0.0457 -0.1958
14705SOL    HW156093   0.040   2.832   8.325 -1.0640 -0.8360  1.1243
14705SOL    HW256094   0.093   2.725   8.233 -1.0317  0.2794 -0.1862
14706SOL     OW56095   2.791   8.301   2.540  0.7580 -0.3345 -0.0524
14706SOL    HW156096   2.800   8.245   2.617  3.6527 -1.3739 -1.0164
14706SOL    HW256097   2.772   8.388   2.575 -3.0629 -1.5854  1.5156
14707SOL     OW56098   8.823   0.513   0.289 -0.3196 -0.0510 -0.0889
14707SOL    HW156099   8.909   0.538   0.322  0.9208 -1.3396 -2.1299
14707SOL    HW256100   8.799   0.436   0.340  0.6308 -0.7999 -0.7420
14708SOL     OW56101   0.445   4.489   0.015  0.3428 -0.4595  0.1040
14708SOL    HW156102   0.367   4.486   0.072 -0.9729 -2.7723 -1.6415
14708SOL    HW256103   0.501   4.419   0.048 -0.7452 -2.2978 -1.7154
14709SOL     OW56104   6.353   6.153   6.997  0.1317  0.1397  0.0144
14709SOL    HW156105   6.445   6.174   7.008  0.1711 -0.3352  0.6745
14709SOL    HW256106   6.310   6.188   7.075  0.2579 -2.4231  1.3545
14710SOL     OW56107   0.899   2.355   3.198 -0.3738 -0.3504 -0.3637
14710SOL    HW156108   0.937   2.424   3.144  1.6008 -0.6306  0.5684
14710SOL    HW256109   0.860   2.402   3.272 -1.8457 -0.0688 -1.2710
14711SOL     OW56110   1.707   7.330  10.060 -0.4076 -0.3318 -0.1492
14711SOL    HW156111   1.631   7.284  10.025 -1.5058  2.7987 -2.2734
14711SOL    HW256112   1.671   7.397  10.118  0.8635  0.0047  0.2932
14712SOL     OW56113   7.239   2.236   1.912  0.2066  0.1485 -0.0895
14712SOL    HW156114   7.278   2.153   1.940  0.9733  1.1900  2.1541
14712SOL    HW256115   7.301   2.303   1.940 -0.0562  1.5109 -2.4438
14713SOL     OW56116   2.285   5.617   5.243 -0.2664 -0.5165  0.6059
14713SOL    HW156117   2.268   5.703   5.280  0.2658 -0.6470  1.1640
14713SOL    HW256118   2.357   5.631   5.181 -0.2134 -0.5527  0.6596
14714SOL     OW56119   5.429   0.723   8.996  0.3829  0.2998 -0.0320
14714SOL    HW156120   5.392   0.801   9.037  0.0260  0.8205 -1.3079
14714SOL    HW256121   5.523   0.737   8.998  0.3977  0.1518  0.9016
14715SOL     OW56122   5.581   0.695   1.288  0.6464 -0.4986  0.8655
14715SOL    HW156123   5.613   0.696   1.378  2.4721 -0.3222  0.2561
14715SOL    HW256124   5.660   0.692   1.234 -0.3736  0.3625 -0.7638
14716SOL     OW56125   8.689   3.616   7.217 -0.3275  0.3232 -0.0703
14716SOL    HW156126   8.686   3.521   7.202  1.2231  0.2876 -0.3459
14716SOL    HW256127   8.659   3.654   7.134  0.0649  0.0701 -0.3332
14717SOL     OW56128   7.433   1.719   3.915  0.1786 -0.4212  0.0678
14717SOL    HW156129   7.392   1.786   3.970  1.1402  0.9396 -0.8187
14717SOL    HW256130   7.395   1.731   3.829 -0.6656 -1.9639  0.1948
14718SOL     OW56131   9.366   7.392   3.282  0.1202  0.6247 -0.4086
14718SOL    HW156132   9.372   7.350   3.368  1.5600  1.6376  0.0291
14718SOL    HW256133   9.275   7.419   3.275  0.0792  0.9636  1.0305
14719SOL     OW56134   9.104   6.039   9.388 -0.3716  0.2977 -0.2789
14719SOL    HW156135   9.028   6.096   9.402  1.5420  2.8631  0.5385
14719SOL    HW256136   9.144   6.071   9.307  0.4901 -0.2269 -0.0765
14720SOL     OW56137   0.330   7.564   1.440 -0.5054 -0.3387  0.2888
14720SOL    HW156138   0.240   7.540   1.418 -0.0212 -1.4507 -0.5637
14720SOL    HW256139   0.366   7.487   1.483  0.2096 -0.1011  0.1392
14721SOL     OW56140   8.056   5.933   9.950  0.3408  0.2144 -0.0127
14721SOL    HW156141   8.069   5.846   9.989 -2.6841 -0.6899 -0.8127
14721SOL    HW256142   8.067   5.919   9.856  1.1250  1.0248 -0.0590
14722SOL     OW56143   8.995   2.715   6.721 -0.0042  0.6671 -0.3528
14722SOL    HW156144   8.900   2.719   6.732 -0.0641  0.7437 -0.8618
14722SOL    HW256145   9.028   2.784   6.778 -0.3680  1.6904 -1.3238
14723SOL     OW56146  10.100   6.607   8.508  0.4627  0.1936 -0.3703
14723SOL    HW156147  10.157   6.684   8.521  0.0633  0.3557  0.4404
14723SOL    HW256148  10.075   6.581   8.596 -1.7194  0.8643 -0.7493
14724SOL     OW56149   1.155   0.507   4.536  0.1129 -0.1002 -0.0167
14724SOL    HW156150   1.138   0.524   4.444 -1.7859 -2.0944 -0.1225
14724SOL    HW256151   1.248   0.481   4.539 -0.2602 -1.8516 -1.7041
14725SOL     OW56152   5.941   1.842   9.475 -0.2690  0.1015  0.5365
14725SOL    HW156153   6.007   1.807   9.534 -0.4712 -0.7664  0.2734
14725SOL    HW256154   5.983   1.916   9.432  0.6899 -0.6835  0.0723
14726SOL     OW56155   5.173   3.734   5.039 -0.1862 -0.5411 -0.2698
14726SOL    HW156156   5.170   3.813   4.985 -1.1936 -0.6257 -0.3445
14726SOL    HW256157   5.133   3.666   4.985 -0.9417 -0.6959  0.4617
14727SOL     OW56158   0.568   8.081   0.108 -0.1640 -0.1110 -0.0350
14727SOL    HW156159   0.606   8.008   0.060 -0.4997  1.5841 -3.1054
14727SOL    HW256160   0.503   8.040   0.166  0.7542 -2.3397 -0.4859
14728SOL     OW56161  10.342   2.016   3.847 -0.0592  0.2912  0.6223
14728SOL    HW156162  10.336   1.949   3.915  3.4747 -1.0686 -0.1669
14728SOL    HW256163  10.314   1.972   3.767  0.3904  0.3830  0.4136
14729SOL     OW56164   0.283   3.308   3.375  0.1308  0.0501  0.0075
14729SOL    HW156165   0.314   3.393   3.342  1.3734 -1.1114 -2.0245
14729SOL    HW256166   0.359   3.269   3.418 -0.1346 -0.4591  0.0245
14730SOL     OW56167  10.311   9.224   8.523 -0.2208  0.2880  0.5994
14730SOL    HW156168  10.380   9.241   8.586 -0.4337 -0.1423  0.9512
14730SOL    HW256169  10.246   9.292   8.539 -1.3789 -1.1608  2.4495
14731SOL     OW56170   9.070   8.117   6.341 -0.0106 -0.3721 -0.6945
14731SOL    HW156171   9.087   8.202   6.381 -1.3905 -0.4055  0.0326
14731SOL    HW256172   8.993   8.131   6.286 -0.0799 -1.0755 -0.7918
14732SOL     OW56173   5.923   4.820   1.334  0.2002 -0.2548  0.5927
14732SOL    HW156174   5.844   4.846   1.381 -0.2917 -0.4058 -0.1271
14732SOL    HW256175   5.991   4.878   1.367 -0.8807  2.1313 -1.1143
14733SOL     OW56176   3.142   2.204  10.030  0.3363 -0.9148  0.5180
14733SOL    HW156177   3.160   2.295  10.051  0.1210 -1.4165  3.2935
14733SOL    HW256178   3.226   2.170   9.997  1.3073 -0.3982  2.2940
14734SOL     OW56179   0.927   3.753   5.220 -0.1622 -0.5462 -0.1614
14734SOL    HW156180   0.857   3.752   5.155 -1.3072  0.7600  0.9774
14734SOL    HW256181   0.905   3.682   5.280  0.2735 -1.0285 -0.5644
14735SOL     OW56182   7.608   2.750   6.691  0.0386  0.8620  1.3338
14735SOL    HW156183   7.671   2.725   6.759  0.4219 -0.6638  0.4624
14735SOL    HW256184   7.525   2.714   6.722  0.2357  0.0642  0.9750
14736SOL     OW56185   0.295   2.744   0.426 -0.3676  0.3169 -0.4796
14736SOL    HW156186   0.301   2.752   0.331  3.2918 -1.1903 -0.5543
14736SOL    HW256187   0.248   2.662   0.440 -0.1618  0.0958 -1.0472
14737SOL     OW56188   5.549   6.436   3.059  0.1777  0.0379  0.4341
14737SOL    HW156189   5.505   6.356   3.087 -0.6108  0.1627 -0.3792
14737SOL    HW256190   5.609   6.458   3.130 -0.6211 -0.4972  1.2812
14738SOL     OW56191   9.780   8.655   7.255  0.1928  0.2191  0.0469
14738SOL    HW156192   9.780   8.629   7.347 -1.1832  1.2343  0.3693
14738SOL    HW256193   9.703   8.613   7.218  0.9231 -0.4501 -0.7379
14739SOL     OW56194   8.594   7.298   7.245 -0.6687 -0.5780 -0.0520
14739SOL    HW156195   8.633   7.344   7.319  0.0348 -0.8340 -0.2605
14739SOL    HW256196   8.502   7.326   7.245  0.0145  1.8402 -0.9665
14740SOL     OW56197   6.448   1.580   3.203 -0.3190  0.1580 -0.0271
14740SOL    HW156198   6.504   1.502   3.205  0.9630  0.9846 -1.5664
14740SOL    HW256199   6.359   1.546   3.210  0.1632 -1.5287 -1.4210
14741SOL     OW56200   0.894   2.189   1.254 -0.6984  0.1498  0.0181
14741SOL    HW156201   0.863   2.103   1.284  1.0522  0.2890  2.5177
14741SOL    HW256202   0.972   2.169   1.202 -0.8065  0.1853 -0.1579
14742SOL     OW56203   0.245   6.198   2.776  0.4172 -0.1921 -0.4807
14742SOL    HW156204   0.249   6.285   2.737  2.6347 -0.0151 -0.0375
14742SOL    HW256205   0.195   6.209   2.856  1.8647  1.0580  0.3126
14743SOL     OW56206   2.516   1.759   1.273 -0.3110  0.2313 -0.1909
14743SOL    HW156207   2.484   1.765   1.183  0.8657  0.2022 -0.6317
14743SOL    HW256208   2.596   1.706   1.266  0.0979  0.7013  0.7801
14744SOL     OW56209   1.638   3.053   5.527 -1.0013  0.5662 -0.4695
14744SOL    HW156210   1.600   3.115   5.465 -1.0648  0.5640 -0.4327
14744SOL    HW256211   1.607   3.082   5.613 -2.5100 -0.5740 -0.5923
14745SOL     OW56212   6.150  10.100   2.727 -0.0627  0.1569 -0.4673
14745SOL    HW156213   6.129  10.044   2.802 -1.7362  0.5912 -0.5759
14745SOL    HW256214   6.227  10.150   2.755  1.3033 -1.9358 -0.2617
14746SOL     OW56215   7.304   1.220   0.110  0.2510  0.5143 -0.9220
14746SOL    HW156216   7.242   1.275   0.064  1.5086  1.5445 -1.4393
14746SOL    HW256217   7.390   1.256   0.088  1.0371 -0.7448 -0.0820
14747SOL     OW56218   7.475   1.115   7.490 -0.2311  0.3508 -0.7048
14747SOL    HW156219   7.543   1.140   7.428  1.2409 -0.4927  0.5056
14747SOL    HW256220   7.416   1.057   7.441  0.6934 -0.0061 -1.4070
14748SOL     OW56221   1.430   0.077   8.136  0.3428  0.2071  0.1280
14748SOL    HW156222   1.467   0.155   8.095  2.0664  0.5574  2.1608
14748SOL    HW256223   1.405   0.021   8.062  2.5406  1.0953 -1.4078
14749SOL     OW56224   1.203   9.965   9.439 -0.6237  0.1291  0.2492
14749SOL    HW156225   1.250  10.049   9.448 -1.1031  0.2776  1.6995
14749SOL    HW256226   1.191   9.954   9.345  1.1765  0.7234 -0.0879
14750SOL     OW56227   3.283   0.816   6.555  0.2815  0.5155  0.2375
14750SOL    HW156228   3.195   0.852   6.542  0.0085  0.4415  1.6314
14750SOL    HW256229   3.286   0.797   6.649  1.1249 -1.2374 -0.1159
14751SOL     OW56230   4.479   2.767   2.528 -0.5269 -0.6256  0.0970
14751SOL    HW156231   4.553   2.774   2.469 -1.0685 -0.6485 -0.5985
14751SOL    HW256232   4.495   2.834   2.595 -0.2331 -0.1550 -0.4365
14752SOL     OW56233  10.155   7.516   8.738 -0.7748  0.2441  0.3538
14752SOL    HW156234  10.160   7.530   8.644 -3.0843  1.6955  0.3802
14752SOL    HW256235  10.175   7.423   8.750  0.1069  0.1590 -1.4745
14753SOL     OW56236   8.084   3.051   8.618  0.3382 -0.7566  0.1751
14753SOL    HW156237   8.156   3.008   8.666  1.8197  1.2383 -0.1258
14753SOL    HW256238   8.041   3.105   8.684 -0.3393 -1.2520  0.1487
14754SOL     OW56239   3.466  10.333   6.116 -0.0955  0.2153 -0.1515
14754SOL    HW156240   3.461  10.277   6.194  0.5237  0.7759  0.3051
14754SOL    HW256241   3.502  10.415   6.149  0.2387  0.4296 -1.0492
14755SOL     OW56242   9.079   1.416  10.220 -0.7982 -0.5057 -0.5340
14755SOL    HW156243   9.058   1.416  10.313 -1.8877  0.4447 -0.7541
14755SOL    HW256244   9.171   1.440  10.216 -1.3507  2.0947  0.2397
14756SOL     OW56245   3.259   5.525   8.185  0.1019  0.3158 -0.3466
14756SOL    HW156246   3.256   5.610   8.141  0.0783  0.7669  0.5018
14756SOL    HW256247   3.195   5.472   8.138 -1.6435  1.4988  0.5720
14757SOL     OW56248   8.400   8.455   9.111 -0.1702  0.2454  0.4342
14757SOL    HW156249   8.454   8.491   9.041 -1.4079  2.3506  0.4997
14757SOL    HW256250   8.463   8.433   9.180  0.9973 -1.2877 -1.0308
14758SOL     OW56251   8.019   2.624   9.988 -0.2631  0.6070  0.3136
14758SOL    HW156252   7.969   2.543   9.998  0.8789 -0.4943 -2.1087
14758SOL    HW256253   8.109   2.599  10.009 -0.1098  1.6453  0.9716
14759SOL     OW56254   9.165  10.382   1.305  0.1943 -0.0283 -0.2281
14759SOL    HW156255   9.152  10.391   1.399 -0.0720 -0.3504 -0.2292
14759SOL    HW256256   9.103  10.314   1.279  0.5417 -0.2203 -0.5713
14760SOL     OW56257   6.304   6.337   5.444  0.3957 -0.3010  0.0276
14760SOL    HW156258   6.378   6.397   5.449  0.6118 -0.5643 -0.0451
14760SOL    HW256259   6.290   6.309   5.535  0.8664 -0.8399 -0.0636
14761SOL     OW56260   7.246  10.253   0.141  0.3056  0.3234 -0.1612
14761SOL    HW156261   7.241  10.161   0.165 -1.6322  0.1903 -0.8298
14761SOL    HW256262   7.327  10.284   0.180  0.3054 -1.3198  1.2820
14762SOL     OW56263   1.591   6.899   5.069 -0.1157 -0.0886 -0.0509
14762SOL    HW156264   1.504   6.937   5.053 -0.3348 -0.6693 -0.2619
14762SOL    HW256265   1.588   6.870   5.160  0.3471  1.1529  0.3813
14763SOL     OW56266   5.561   5.751   3.724 -0.2022  0.4566 -0.0130
14763SOL    HW156267   5.615   5.675   3.703 -0.6996  0.2857 -0.7174
14763SOL    HW256268   5.471   5.719   3.718 -0.4124  1.0645 -0.1722
14764SOL     OW56269   5.329   3.339   8.826  0.1905  0.2392 -0.4076
14764SOL    HW156270   5.309   3.431   8.844 -0.4586  0.1648 -0.6979
14764SOL    HW256271   5.411   3.322   8.872  1.7982  1.7109 -2.5373
14765SOL     OW56272   6.675   4.931   7.961 -0.0335  0.4158 -0.2832
14765SOL    HW156273   6.731   4.854   7.953 -3.3768 -2.3523  0.3138
14765SOL    HW256274   6.614   4.909   8.031 -1.6653  3.3095 -0.6516
14766SOL     OW56275   4.564   1.004   6.535  0.0016 -0.2241 -0.0010
14766SOL    HW156276   4.509   0.955   6.475  0.0642  1.6092 -1.6740
14766SOL    HW256277   4.502   1.046   6.595 -0.2792  0.1498 -0.5474
14767SOL     OW56278   4.002   9.186   4.007 -0.5175  0.2011  0.0861
14767SOL    HW156279   3.917   9.187   3.963 -0.7346 -0.2190  0.4958
14767SOL    HW256280   4.049   9.113   3.967  0.4080  1.6012 -1.5403
14768SOL     OW56281  10.048   2.774   8.921 -0.3932  0.2752 -0.6266
14768SOL    HW156282  10.110   2.749   8.989 -1.6410  1.8962  1.1969
14768SOL    HW256283  10.041   2.696   8.865  1.7947 -0.5802  0.1923
14769SOL     OW56284   2.617   0.237  10.283  1.0693 -0.1484  0.0513
14769SOL    HW156285   2.525   0.227  10.307  0.1434  3.0937 -1.6515
14769SOL    HW256286   2.656   0.282  10.358  0.9689 -0.2971  0.1967
14770SOL     OW56287   2.680   1.628   8.096  0.4714 -0.0239 -0.5841
14770SOL    HW156288   2.674   1.680   8.016  0.0988 -1.0654 -1.2484
14770SOL    HW256289   2.590   1.607   8.119  0.6480 -1.1975 -0.8903
14771SOL     OW56290   1.664   4.716   0.312  0.4921  0.2418 -0.1075
14771SOL    HW156291   1.685   4.632   0.272 -1.4531 -0.3797  0.0702
14771SOL    HW256292   1.668   4.779   0.240  0.7086 -0.2259 -0.5030
14772SOL     OW56293   0.357   6.446   9.243 -0.5487  0.2226 -0.2377
14772SOL    HW156294   0.373   6.376   9.307 -0.5302 -0.9396 -1.4849
14772SOL    HW256295   0.282   6.416   9.192  0.2903  0.4748 -1.6654
14773SOL     OW56296   3.034   9.915   4.906  0.3468  0.0844  0.2258
14773SOL    HW156297   2.970   9.902   4.836  1.2519 -2.6737 -0.2172
14773SOL    HW256298   3.117   9.930   4.861  0.2469  2.8493  0.7957
14774SOL     OW56299   2.699   7.472   1.169 -0.0321 -0.3261  0.0527
14774SOL    HW156300   2.768   7.510   1.114 -0.9510 -0.7868 -1.5021
14774SOL    HW256301   2.676   7.542   1.230  0.8924  0.2989 -0.2898
14775SOL     OW56302   7.464   6.491   5.572  0.2959  0.4627 -0.1342
14775SOL    HW156303   7.383   6.539   5.585 -0.5412 -1.0000  0.2322
14775SOL    HW256304   7.445   6.432   5.499  0.5221 -0.9326  0.9045
14776SOL     OW56305   3.624   9.653  10.101  0.4674  0.0567  0.6186
14776SOL    HW156306   3.680   9.676  10.027  0.5522 -0.5312  0.4888
14776SOL    HW256307   3.656   9.567  10.129 -0.3956 -0.3126  0.5091
14777SOL     OW56308  10.250   9.581   1.070 -0.0980  0.1522  0.2607
14777SOL    HW156309  10.328   9.526   1.067  0.4809  0.9789 -0.5306
14777SOL    HW256310  10.181   9.523   1.103  1.0531 -0.3091  1.9835
14778SOL     OW56311   7.196   5.219   7.862 -0.4773 -0.2957  0.4497
14778SOL    HW156312   7.253   5.230   7.938  2.7511 -0.4559 -1.6936
14778SOL    HW256313   7.174   5.308   7.835 -1.3072 -0.2305  1.3129
14779SOL     OW56314   8.459   8.322   2.104 -0.3296 -0.3188  0.3811
14779SOL    HW156315   8.402   8.379   2.156 -1.0682 -0.1065 -0.6295
14779SOL    HW256316   8.499   8.381   2.040 -0.5257 -0.8113 -0.1990
14780SOL     OW56317   6.893   0.188   0.213 -0.4254  0.3670 -0.3028
14780SOL    HW156318   6.813   0.188   0.160  0.4635 -1.2737 -1.7494
14780SOL    HW256319   6.950   0.251   0.169  0.4587 -1.2753 -1.6630
14781SOL     OW56320   8.132   2.863   6.769 -0.1232 -0.4634  0.1952
14781SOL    HW156321   8.113   2.774   6.738  2.8827 -0.4431 -2.1913
14781SOL    HW256322   8.099   2.920   6.699  0.2307  0.1344  0.5059
14782SOL     OW56323   9.295   9.428   4.778 -0.1716 -0.4266  0.1956
14782SOL    HW156324   9.311   9.391   4.866  0.7579  0.2212  0.3085
14782SOL    HW256325   9.382   9.451   4.746 -0.6246  0.5370 -0.3741
14783SOL     OW56326  10.032   0.403   3.549  0.2244 -0.0654  0.0197
14783SOL    HW156327  10.066   0.328   3.501 -1.4269 -1.0338  0.2894
14783SOL    HW256328  10.011   0.369   3.636  1.5201  1.2455  0.8881
14784SOL     OW56329   3.892   2.340   9.588 -0.0452 -0.3475 -0.7701
14784SOL    HW156330   3.861   2.251   9.600 -1.2949 -0.1907 -2.4038
14784SOL    HW256331   3.816   2.395   9.606  0.7231  0.4334  0.2886
14785SOL     OW56332   9.815   8.527   1.006 -0.7181  0.0271  0.0821
14785SOL    HW156333   9.906   8.510   1.030 -0.6286  1.4277  0.7955
14785SOL    HW256334   9.767   8.451   1.038  0.3447 -1.3513 -1.4358
14786SOL     OW56335   7.681   9.153   6.096  1.0122  0.4367  0.5079
14786SOL    HW156336   7.611   9.211   6.066  1.4652  1.3063  1.0965
14786SOL    HW256337   7.656   9.130   6.186  0.5916 -0.6818  0.1187
14787SOL     OW56338   6.413   2.835   6.536  0.1277 -0.6308 -0.3010
14787SOL    HW156339   6.441   2.824   6.627  0.2537  0.5327 -0.1848
14787SOL    HW256340   6.493   2.858   6.489 -0.2562  0.7995 -0.3158
14788SOL     OW56341   8.958   4.451   7.311 -0.5412  0.4151 -0.3746
14788SOL    HW156342   9.022   4.505   7.265 -0.0317 -0.5342 -0.8186
14788SOL    HW256343   8.873   4.488   7.286 -0.1869  1.5835  0.0881
14789SOL     OW56344   7.023   3.562   6.780 -0.6037 -0.0467  0.4710
14789SOL    HW156345   6.941   3.520   6.806  0.8452 -1.3668  3.4517
14789SOL    HW256346   7.034   3.632   6.844  0.6111  0.0776  0.1392
14790SOL     OW56347   7.623   5.340   8.056  0.2254  0.0232 -0.3462
14790SOL    HW156348   7.677   5.309   8.128 -1.5704 -2.1786  0.1854
14790SOL    HW256349   7.671   5.313   7.977  1.2680  0.7192  0.0291
14791SOL     OW56350   1.170   6.116   5.964 -0.3460 -0.2135  0.0315
14791SOL    HW156351   1.200   6.202   5.993  0.8952 -1.2297  1.8751
14791SOL    HW256352   1.160   6.065   6.044 -1.7067 -1.6148 -0.9722
14792SOL     OW56353  10.134   2.776   0.091 -0.5374 -0.2584  0.1999
14792SOL    HW156354  10.148   2.870   0.090  0.7641 -0.4344  0.1862
14792SOL    HW256355  10.082   2.760   0.169  2.2521  0.1145  2.2618
14793SOL     OW56356   7.180   3.201   3.575 -0.0946  0.2881 -0.2129
14793SOL    HW156357   7.251   3.262   3.590 -1.6230  1.5046  3.0285
14793SOL    HW256358   7.125   3.208   3.653 -1.8125 -3.2942 -0.8878
14794SOL     OW56359   6.290   8.881  10.371 -0.0689  0.3759  0.4124
14794SOL    HW156360   6.370   8.933  10.371 -0.5238  1.1062 -0.8290
14794SOL    HW256361   6.222   8.941  10.401 -0.4105  0.1993  0.0098
14795SOL     OW56362   8.264   8.960   6.979  0.2993  0.1400 -0.0310
14795SOL    HW156363   8.349   9.005   6.980  1.4018 -1.7632 -1.4402
14795SOL    HW256364   8.259   8.922   6.892 -1.7662 -0.2765  0.2361
14796SOL     OW56365   7.020   2.365   4.376  0.0976 -0.2071 -0.1586
14796SOL    HW156366   7.110   2.349   4.349 -0.0332 -0.4146 -0.4635
14796SOL    HW256367   6.994   2.443   4.327  0.3818  0.3532  0.5450
14797SOL     OW56368   9.050   1.712   6.074 -0.4621  0.3467  0.8337
14797SOL    HW156369   9.115   1.646   6.097 -0.6787 -0.2541 -0.1919
14797SOL    HW256370   8.995   1.669   6.008 -0.6452  1.5344  0.1777
14798SOL     OW56371   2.288   2.945   4.644  0.2680  0.1033  0.2531
14798SOL    HW156372   2.257   2.906   4.726 -0.3120  0.9222  0.4370
14798SOL    HW256373   2.260   3.036   4.649  1.7454  0.6028 -0.0759
14799SOL     OW56374   5.013   3.478   2.938  0.1087  0.3024  0.7436
14799SOL    HW156375   5.011   3.556   2.994 -1.9542 -1.0230  2.6983
14799SOL    HW256376   5.090   3.430   2.967  0.5946  0.9237  0.5102
14800SOL     OW56377   3.974   7.762   7.225 -0.3937 -0.4132 -0.6708
14800SOL    HW156378   3.922   7.691   7.262  0.3106 -0.9632 -0.7266
14800SOL    HW256379   3.979   7.827   7.295  3.4556 -2.6901  1.4766
14801SOL     OW56380   3.635   5.943  10.202  0.4015 -0.6031  0.0815
14801SOL    HW156381   3.585   6.024  10.197  0.6040 -0.5492 -2.0347
14801SOL    HW256382   3.572   5.874  10.180  0.7853 -0.7353 -0.6511
14802SOL     OW56383   1.120   2.756   7.061 -0.4278  0.0810  0.5435
14802SOL    HW156384   1.206   2.719   7.081  0.6149  0.7859 -2.1397
14802SOL    HW256385   1.058   2.696   7.101  1.2889 -1.6866  0.7175
14803SOL     OW56386   0.434  10.344  10.205  0.0490 -0.6271  0.6590
14803SOL    HW156387   0.480  10.313  10.127 -1.3146  0.3244 -0.5582
14803SOL    HW256388   0.440  10.270  10.266  1.7453 -1.1363 -0.0486
14804SOL     OW56389   2.049   4.366   4.354  0.1830 -0.1292 -0.1874
14804SOL    HW156390   2.037   4.369   4.449 -1.3683  0.2427 -0.3744
14804SOL    HW256391   2.094   4.448   4.333 -1.7283  1.0100 -0.0309
14805SOL     OW56392   3.678   4.344  10.262 -0.1416  0.0226 -0.2154
14805SOL    HW156393   3.658   4.389  10.344  0.0896  0.8132 -0.5835
14805SOL    HW256394   3.639   4.257  10.272  2.2498 -0.9399  1.8627
14806SOL     OW56395  10.240   2.364   0.853 -0.3019 -0.3042  0.2909
14806SOL    HW156396  10.157   2.365   0.806 -0.5549  0.0616  0.7428
14806SOL    HW256397  10.234   2.437   0.915  0.3186 -0.3307  0.3867
14807SOL     OW56398   4.893   3.821   0.629  0.6037 -0.2210  0.0719
14807SOL    HW156399   4.955   3.815   0.701  0.2674  0.0061  0.3882
14807SOL    HW256400   4.815   3.862   0.668  0.6639  0.5281 -0.5726
14808SOL     OW56401   0.344   5.030   7.611  0.1929  0.4438 -0.1485
14808SOL    HW156402   0.365   5.121   7.632  1.5052 -0.0326  0.7239
14808SOL    HW256403   0.355   5.024   7.516 -0.3392  1.2936 -0.2666
14809SOL     OW56404   8.592   3.648   6.968  0.2687 -0.0792 -0.5620
14809SOL    HW156405   8.630   3.709   6.904  0.0984 -0.8504 -1.4170
14809SOL    HW256406   8.570   3.570   6.917 -0.2716 -0.5513  0.3667
14810SOL     OW56407   2.802   2.981   8.855  0.1179 -0.0176  0.3463
14810SOL    HW156408   2.734   2.925   8.820 -0.8218  1.9691 -1.1956
14810SOL    HW256409   2.761   3.026   8.929  0.7256 -0.9845  1.2962
14811SOL     OW56410   9.962   4.522   9.192  0.0996  0.6674  0.1925
14811SOL    HW156411  10.052   4.490   9.190 -0.6473 -1.6839  0.8523
14811SOL    HW256412   9.935   4.511   9.284 -2.1437 -2.7944 -0.7054
14812SOL     OW56413   9.262   7.613   9.851 -0.1366  0.5398  0.5200
14812SOL    HW156414   9.229   7.679   9.791 -3.5787 -0.4579  1.0841
14812SOL    HW256415   9.209   7.536   9.833  2.0937 -1.3688  1.5299
14813SOL     OW56416   0.424   9.399   6.514 -0.0881 -0.2484 -0.4140
14813SOL    HW156417   0.338   9.385   6.473 -0.7662  1.8965  0.1304
14813SOL    HW256418   0.427   9.338   6.587 -2.4869  1.5998  1.3828
14814SOL     OW56419   8.295   7.767   4.449 -0.3381 -0.2743  0.1959
14814SOL    HW156420   8.272   7.807   4.365  1.3764  2.8850  1.0584
14814SOL    HW256421   8.214   7.773   4.500 -0.4909  1.0499 -0.1496
14815SOL     OW56422   1.000   3.562   8.424  0.5924 -0.3719 -0.0879
14815SOL    HW156423   0.966   3.477   8.450 -0.4330 -0.5756 -1.9418
14815SOL    HW256424   0.928   3.623   8.439  1.2095  0.1637  0.9087
14816SOL     OW56425   4.405   5.359   5.574  0.3290 -0.0712  0.1240
14816SOL    HW156426   4.392   5.271   5.538 -1.1770  0.7866 -1.5520
14816SOL    HW256427   4.327   5.375   5.627  1.0109 -0.0465  1.1472
14817SOL     OW56428   4.658   5.243   6.869  0.1903  0.6696 -0.3038
14817SOL    HW156429   4.595   5.316   6.862 -0.0020  0.3970 -1.9909
14817SOL    HW256430   4.624   5.188   6.939  1.0985  2.8783  2.0042
14818SOL     OW56431   2.912   9.529   9.628 -0.0623  0.0515 -0.1302
14818SOL    HW156432   2.933   9.435   9.625  0.2114  0.1289 -0.6045
14818SOL    HW256433   2.943   9.564   9.545 -1.0833  0.3765 -0.3839
14819SOL     OW56434   2.448   7.746   4.769  0.2509 -0.1679 -0.2290
14819SOL    HW156435   2.483   7.662   4.740 -0.7954 -0.7528  0.1436
14819SOL    HW256436   2.523   7.805   4.771  0.9360 -1.0095 -0.8092
14820SOL     OW56437   7.118   7.429   0.901  0.5562  0.1144 -0.3352
14820SOL    HW156438   7.060   7.353   0.908  0.8344 -0.0548  0.2302
14820SOL    HW256439   7.082   7.481   0.830 -0.3195  0.0388  0.0436
14821SOL     OW56440   4.373   8.620   2.228  0.5091 -0.1447 -0.1452
14821SOL    HW156441   4.330   8.644   2.146  0.1373  1.2207  0.4137
14821SOL    HW256442   4.363   8.525   2.234 -1.4252 -0.0122 -0.6089
14822SOL     OW56443   9.621   5.955   9.655  0.2543 -0.2529  0.1897
14822SOL    HW156444   9.693   5.997   9.700 -0.1970 -0.4034  1.0699
14822SOL    HW256445   9.578   6.026   9.607  0.9334 -0.1532 -0.2905
14823SOL     OW56446   6.653   5.612   8.427 -0.4178 -0.4505  0.0078
14823SOL    HW156447   6.623   5.571   8.508 -0.3384  0.4061  0.4847
14823SOL    HW256448   6.717   5.551   8.391  0.0741 -0.5273  0.9665
14824SOL     OW56449   2.889   7.121   2.754 -0.0416  0.8665 -0.0303
14824SOL    HW156450   2.882   7.066   2.832 -2.7869  1.2119  0.0506
14824SOL    HW256451   2.910   7.208   2.788  0.4288  0.6765  0.1731
14825SOL     OW56452  10.145   2.687   0.743 -0.5462 -0.0220 -0.2065
14825SOL    HW156453  10.133   2.600   0.705 -1.2808  0.8152 -1.9877
14825SOL    HW256454  10.193   2.736   0.676  0.7363  0.7015  1.1675
14826SOL     OW56455   1.395   7.878   2.860 -0.6663  0.4457  0.1586
14826SOL    HW156456   1.478   7.923   2.847 -0.6209 -0.3696 -3.4194
14826SOL    HW256457   1.414   7.811   2.927  0.5295  2.4248  1.9198
14827SOL     OW56458   8.896   5.588   7.031  1.0267  0.0917  0.1667
14827SOL    HW156459   8.955   5.662   7.017  1.0697 -0.3158 -2.0689
14827SOL    HW256460   8.810   5.628   7.049  1.2710  0.6670  0.0536
14828SOL     OW56461   7.421   4.524   1.266 -0.2020  0.3712 -0.6620
14828SOL    HW156462   7.479   4.472   1.210  1.3610  1.3384 -0.0190
14828SOL    HW256463   7.372   4.459   1.316 -0.5488 -0.4887 -2.0518
14829SOL     OW56464   7.250   2.628   6.260  0.3541  0.0830 -0.7918
14829SOL    HW156465   7.252   2.588   6.347  1.5272  1.6934 -0.0122
14829SOL    HW256466   7.159   2.621   6.231 -1.2171  3.4022  2.5189
14830SOL     OW56467   7.723  10.252   4.998 -0.7039  0.3569  0.5159
14830SOL    HW156468   7.730  10.261   5.093 -0.9229 -1.2526  0.7258
14830SOL    HW256469   7.753  10.336   4.963  0.0378  0.7438  1.9868
14831SOL     OW56470   9.568   8.055   5.209  0.0635  0.1675  0.0235
14831SOL    HW156471   9.662   8.054   5.227 -0.3017  0.1162  2.1726
14831SOL    HW256472   9.542   8.147   5.216 -0.5498 -0.1467  2.6590
14832SOL     OW56473   0.684   8.592   8.349  0.5888  0.2452 -0.7819
14832SOL    HW156474   0.619   8.569   8.284 -0.4890 -0.1824  0.3996
14832SOL    HW256475   0.662   8.538   8.425 -0.0840  2.8149  0.9992
14833SOL     OW56476   0.654   0.487   5.084 -0.3483  0.0230 -0.0986
14833SOL    HW156477   0.699   0.522   5.008  0.8365 -0.0768  0.5274
14833SOL    HW256478   0.566   0.465   5.053 -0.5352  1.8408 -0.9374
14834SOL     OW56479   5.202   0.733   3.703 -0.1878  0.3372  0.1773
14834SOL    HW156480   5.215   0.768   3.791  0.0486 -0.4604  0.4633
14834SOL    HW256481   5.107   0.720   3.696 -0.0918 -0.8482  0.8148
14835SOL     OW56482   0.412   6.891  10.200  0.0082 -0.6635 -0.2156
14835SOL    HW156483   0.408   6.804  10.159  0.3610 -0.4371 -0.7524
14835SOL    HW256484   0.451   6.876  10.285  0.4893 -0.9757 -0.4856
14836SOL     OW56485   7.649   5.202   1.469 -0.0961 -0.2635  0.4776
14836SOL    HW156486   7.663   5.171   1.380  0.2555  0.7842  0.1603
14836SOL    HW256487   7.572   5.153   1.499  0.7338 -1.8002  0.1834
14837SOL     OW56488   5.095   7.601   2.371 -0.2925  0.0486  0.3293
14837SOL    HW156489   5.171   7.647   2.406 -0.3495  1.6398 -1.4426
14837SOL    HW256490   5.117   7.585   2.279 -1.6471 -0.4350  0.0649
14838SOL     OW56491   5.591   7.105   7.769 -0.1018 -0.9194  0.2363
14838SOL    HW156492   5.612   7.044   7.699 -1.8195 -3.3190  1.6550
14838SOL    HW256493   5.543   7.053   7.833 -1.2171  1.8279  1.8293
14839SOL     OW56494   1.984   1.174   9.418  0.4796 -0.1830 -0.6329
14839SOL    HW156495   1.940   1.093   9.444  1.9371 -1.3185 -1.5496
14839SOL    HW256496   1.977   1.175   9.322 -0.6336  1.4625 -0.5822
14840SOL     OW56497   6.533  10.368   9.528  0.0420  0.3467  0.3298
14840SOL    HW156498   6.447  10.358   9.569  0.4001 -1.0226  0.8195
14840SOL    HW256499   6.538  10.294   9.467  0.3503  1.1822 -0.6738
14841SOL     OW56500   0.188   9.907   3.920  0.3235  0.3054 -0.0243
14841SOL    HW156501   0.196   9.854   3.841 -0.0715 -0.3046  0.3341
14841SOL    HW256502   0.271   9.953   3.928  2.8938 -4.0663  2.3755
14842SOL     OW56503   8.003   6.846  10.262  0.3026  0.2425 -0.5733
14842SOL    HW156504   7.927   6.897  10.234 -0.9628 -0.7920  0.7988
14842SOL    HW256505   8.043   6.900  10.331 -0.9837 -0.5042  0.8164
14843SOL     OW56506   9.484   1.509   4.894 -0.2505 -0.0697 -0.1520
14843SOL    HW156507   9.499   1.472   4.981 -0.0057 -1.8319 -0.8905
14843SOL    HW256508   9.422   1.579   4.908  0.3422  0.1675  1.5388
14844SOL     OW56509   5.623   4.540   5.493 -0.2191  0.2019 -0.4836
14844SOL    HW156510   5.663   4.584   5.568 -0.4631 -0.4165  0.0226
14844SOL    HW256511   5.558   4.602   5.460  2.2422  1.9448 -2.3773
14845SOL     OW56512   6.272   4.416   4.535 -0.2421 -0.0567 -0.2675
14845SOL    HW156513   6.288   4.508   4.517 -1.6628  0.1065 -0.8589
14845SOL    HW256514   6.313   4.369   4.463  0.5054  0.0933  0.0492
14846SOL     OW56515  10.185   7.102   4.861 -0.0171  0.2373  0.1559
14846SOL    HW156516  10.162   7.009   4.863  1.9148 -0.3084  2.5083
14846SOL    HW256517  10.251   7.109   4.792  0.0036 -0.1871  0.1280
14847SOL     OW56518   0.730   2.117  10.270 -0.1586  0.0109 -0.1868
14847SOL    HW156519   0.794   2.137  10.202  0.9259 -1.5956  0.3161
14847SOL    HW256520   0.710   2.024  10.258 -1.3188  0.1352  0.5881
14848SOL     OW56521   0.151   8.141   2.209  0.4975 -0.3107 -0.2830
14848SOL    HW156522   0.179   8.169   2.122  0.3615  1.3738  0.1988
14848SOL    HW256523   0.233   8.121   2.255  0.5435 -1.8325 -0.9707
14849SOL     OW56524   8.431   7.789   3.234 -0.5270 -0.3298  0.1413
14849SOL    HW156525   8.391   7.876   3.232  0.8121  0.3242 -1.3799
14849SOL    HW256526   8.480   7.787   3.316 -1.0017  0.1334  0.4446
14850SOL     OW56527   5.987   7.153   7.219 -0.0108 -0.0868  0.5835
14850SOL    HW156528   6.046   7.179   7.149 -1.7193  4.0142  0.4076
14850SOL    HW256529   6.023   7.194   7.298 -1.2177  0.3570  0.9311
14851SOL     OW56530   3.988   0.390   3.814  0.0769 -0.3133 -0.2901
14851SOL    HW156531   3.959   0.324   3.752  0.9167 -0.1046 -0.9238
14851SOL    HW256532   3.991   0.471   3.763  0.6786 -0.1214  0.0401
14852SOL     OW56533   1.242   5.788   1.177  0.2885  0.3120 -0.0974
14852SOL    HW156534   1.300   5.828   1.242  0.2782 -0.8218  0.6370
14852SOL    HW256535   1.185   5.731   1.228 -1.1776  1.0463 -0.8693
14853SOL     OW56536   9.780   2.265   5.262 -0.3423  0.4213  0.7362
14853SOL    HW156537   9.786   2.258   5.167  1.4763 -1.6600  0.9208
14853SOL    HW256538   9.827   2.346   5.283  0.6521  0.0699 -0.0497
14854SOL     OW56539   4.145   1.963   5.788 -0.1589  0.5853  0.2182
14854SOL    HW156540   4.155   1.875   5.752  0.1609  0.3085  0.9664
14854SOL    HW256541   4.062   1.994   5.753  0.2123  0.3823 -0.8682
14855SOL     OW56542   7.305   7.974   1.883  0.3052 -0.0431 -0.0787
14855SOL    HW156543   7.222   7.927   1.878 -0.4808  1.3960 -1.6492
14855SOL    HW256544   7.309   8.008   1.972  0.2481 -1.8818  0.6607
14856SOL     OW56545   9.189   3.935  10.317  0.2791 -0.2033 -0.0738
14856SOL    HW156546   9.232   3.869  10.372 -0.3085 -0.5093  0.0175
14856SOL    HW256547   9.262   3.984  10.279  0.7029  0.6752  1.7731
14857SOL     OW56548   0.919   8.356   4.037  0.5994  0.1769  0.5178
14857SOL    HW156549   0.903   8.382   4.127 -0.5926 -1.9364  0.9783
14857SOL    HW256550   1.014   8.342   4.032  0.8840  1.6797  0.9870
14858SOL     OW56551   1.165   1.305   0.007 -0.2816 -0.8390 -0.3670
14858SOL    HW156552   1.237   1.283  -0.053  0.0437 -0.9323  0.0508
14858SOL    HW256553   1.199   1.380   0.057 -0.2089 -1.3106  0.2988
14859SOL     OW56554   6.829   9.447   5.334 -0.0154 -0.3065 -0.9717
14859SOL    HW156555   6.825   9.357   5.366  1.8336 -0.3567 -0.7501
14859SOL    HW256556   6.745   9.461   5.290 -1.1663 -1.4246  0.7680
14860SOL     OW56557   0.216   3.020   3.807  0.0304 -0.3655 -0.4293
14860SOL    HW156558   0.239   3.096   3.859  0.7757  0.0780 -1.3728
14860SOL    HW256559   0.141   2.981   3.852 -0.4855  1.0327 -0.0425
14861SOL     OW56560   4.253   2.491   8.452 -0.1529 -0.0901 -0.2281
14861SOL    HW156561   4.255   2.414   8.395  0.1824 -0.8002  0.7183
14861SOL    HW256562   4.327   2.544   8.424  0.3151 -0.6817 -0.1282
14862SOL     OW56563   4.524   7.978   9.798  0.2377 -0.2618 -0.1465
14862SOL    HW156564   4.479   8.056   9.767 -1.9032 -2.1364 -2.0788
14862SOL    HW256565   4.613   7.987   9.764  0.5736  2.0428  1.1000
14863SOL     OW56566   6.307   9.811   3.036  0.2660 -0.1651  0.3629
14863SOL    HW156567   6.346   9.764   2.963  1.6261 -0.9713  1.5624
14863SOL    HW256568   6.231   9.855   2.998  0.5601 -1.0744 -1.3849
14864SOL     OW56569   0.994   2.287   1.658  0.5465 -0.2723 -0.1599
14864SOL    HW156570   1.051   2.251   1.590  0.1377  0.5771 -0.9673
14864SOL    HW256571   0.924   2.331   1.611  0.2388  0.3241  0.8131
14865SOL     OW56572   2.027   3.843   9.007  0.3865  0.2013 -0.1009
14865SOL    HW156573   1.936   3.871   8.993  0.4720  0.5983  0.1510
14865SOL    HW256574   2.065   3.839   8.919  0.1030 -0.0545 -0.2161
14866SOL     OW56575   9.594   8.926   4.091  0.2832  0.2789 -0.6548
14866SOL    HW156576   9.636   8.877   4.161 -0.0047 -0.4826 -1.0112
14866SOL    HW256577   9.512   8.879   4.075 -0.1606  1.0697 -0.7684
14867SOL     OW56578   4.396   9.600   9.923  0.0033 -0.1508 -0.5101
14867SOL    HW156579   4.319   9.546   9.905 -0.0597  0.0073 -0.7171
14867SOL    HW256580   4.388   9.674   9.863  0.1157  0.0623 -0.2638
14868SOL     OW56581   3.354   3.801   5.641 -0.1290 -0.2502 -0.1776
14868SOL    HW156582   3.427   3.796   5.580 -1.2628  0.3297 -1.6285
14868SOL    HW256583   3.306   3.880   5.616  1.3302  2.2061  3.7383
14869SOL     OW56584   6.512   3.315   8.827  0.9895  0.0432 -0.4789
14869SOL    HW156585   6.447   3.365   8.778 -2.1270 -2.1644  1.0863
14869SOL    HW256586   6.528   3.237   8.773  0.2023 -0.6960  0.3005
14870SOL     OW56587   2.629   9.929   2.775 -0.2808  0.2861  0.5264
14870SOL    HW156588   2.670   9.843   2.783  0.2999  0.6564  1.6138
14870SOL    HW256589   2.601   9.951   2.863 -2.5341  0.2197 -0.1146
14871SOL     OW56590   0.053   8.585   4.663  0.3825 -0.0326 -0.5063
14871SOL    HW156591  -0.032   8.603   4.622 -0.0420 -1.1507 -0.1363
14871SOL    HW256592   0.087   8.510   4.615  0.8623 -0.0058 -0.2105
14872SOL     OW56593   5.816   2.384   9.512 -0.6293 -0.3646  0.0949
14872SOL    HW156594   5.754   2.348   9.576 -1.6342 -1.4909 -1.4676
14872SOL    HW256595   5.879   2.314   9.497 -1.8765 -1.1000 -2.0255
14873SOL     OW56596   9.992   8.165   5.686  0.1029  0.7504 -0.6196
14873SOL    HW156597  10.046   8.178   5.764 -0.5201  0.4396 -0.1186
14873SOL    HW256598   9.925   8.102   5.714 -1.2353  2.0088 -0.8447
14874SOL     OW56599   7.275   6.463   1.002 -0.5898 -0.1036 -0.1109
14874SOL    HW156600   7.322   6.386   1.035  0.7198  0.6676 -0.1222
14874SOL    HW256601   7.244   6.435   0.915 -2.4690 -1.5041  0.9475
14875SOL     OW56602   6.852   6.431   4.090  0.2184  0.3079 -0.1698
14875SOL    HW156603   6.885   6.464   4.174 -0.9907  0.5229  0.2469
14875SOL    HW256604   6.800   6.354   4.114 -0.7213  0.7871 -0.6311
14876SOL     OW56605   6.358   8.331   3.218 -0.0104 -0.0827  0.5160
14876SOL    HW156606   6.336   8.381   3.139 -0.4480 -1.1853 -0.0837
14876SOL    HW256607   6.421   8.386   3.264 -0.8839  1.2696  0.1558
14877SOL     OW56608   3.295   7.059   5.019 -0.3276 -0.4995 -0.1619
14877SOL    HW156609   3.291   7.018   5.106  1.0111  0.8910  0.6046
14877SOL    HW256610   3.206   7.052   4.985 -0.7017 -1.7668  0.9804
14878SOL     OW56611   5.589  10.336   1.210 -0.0853 -0.3307  0.1194
14878SOL    HW156612   5.573  10.348   1.116 -0.3675  1.2398  0.3498
14878SOL    HW256613   5.641  10.412   1.236  1.1399 -1.4103  0.9958
14879SOL     OW56614   2.747   8.259   8.527 -0.3891 -0.1116 -0.1562
14879SOL    HW156615   2.837   8.261   8.558 -0.2446  0.4206 -0.6114
14879SOL    HW256616   2.737   8.172   8.488 -0.5897 -0.8247  1.4009
14880SOL     OW56617   1.907   7.479   4.895 -0.0887 -0.1456 -0.0980
14880SOL    HW156618   1.974   7.415   4.871 -0.3331 -0.6864  0.6262
14880SOL    HW256619   1.837   7.466   4.830  1.3676  1.9355 -2.2688
14881SOL     OW56620   9.031   9.650   5.788 -0.3230  0.4524  0.1470
14881SOL    HW156621   9.018   9.687   5.876  1.8349 -1.1418  1.2320
14881SOL    HW256622   9.079   9.717   5.740  1.5356  0.0717  1.3582
14882SOL     OW56623   1.127   0.760   6.639 -0.0902 -0.0634  0.7608
14882SOL    HW156624   1.187   0.743   6.713  1.7158 -1.2910 -0.8624
14882SOL    HW256625   1.050   0.707   6.658  0.5928 -0.8183  1.5098
14883SOL     OW56626   2.222   8.781   1.474  0.1425  0.3581  0.3890
14883SOL    HW156627   2.267   8.852   1.428 -1.5996 -0.1338 -2.3193
14883SOL    HW256628   2.264   8.702   1.442  2.0212  0.0224  3.3375
14884SOL     OW56629   6.892   3.790   8.641 -0.4909  0.6831  0.2974
14884SOL    HW156630   6.834   3.742   8.580  2.1072 -1.6817 -0.5487
14884SOL    HW256631   6.868   3.757   8.727 -0.7125  0.0667  0.0082
14885SOL     OW56632   5.728   1.478   9.972  0.5262 -0.1232  0.9127
14885SOL    HW156633   5.711   1.552  10.030  0.3367 -0.5269  1.3869
14885SOL    HW256634   5.716   1.512   9.884  1.2887  0.6233  1.0902
14886SOL     OW56635   8.950   9.736   9.353  0.1601 -0.1853  0.1415
14886SOL    HW156636   8.906   9.807   9.400  1.5128  2.3090 -2.0694
14886SOL    HW256637   8.895   9.721   9.276  0.9873 -0.0329 -0.4862
14887SOL     OW56638   7.874   0.925   6.708 -0.0007  0.6024 -0.2998
14887SOL    HW156639   7.781   0.919   6.726  0.2126 -0.9481  0.5269
14887SOL    HW256640   7.880   0.969   6.623 -1.4439  1.1220 -0.1562
14888SOL     OW56641   6.959   1.732   8.694  0.4270  0.4702  0.3770
14888SOL    HW156642   7.001   1.647   8.712 -1.3954 -0.3534  0.9573
14888SOL    HW256643   6.866   1.711   8.685  0.1363  2.2112 -1.0450
14889SOL     OW56644   8.795   0.923   6.673 -0.3772  0.3700 -0.4546
14889SOL    HW156645   8.799   1.015   6.700 -1.1212 -0.1953  1.8529
14889SOL    HW256646   8.739   0.881   6.739  2.4764 -2.3290  0.5264
14890SOL     OW56647   5.206   3.372   7.906 -0.2467  0.3621 -0.4278
14890SOL    HW156648   5.191   3.354   7.813 -0.7911 -1.1330 -0.0891
14890SOL    HW256649   5.295   3.406   7.910  0.0871 -0.3407 -1.4165
14891SOL     OW56650   0.136   7.227   2.645 -0.0014  0.5204  0.0277
14891SOL    HW156651   0.115   7.176   2.566 -2.2914 -0.8180  1.3958
14891SOL    HW256652   0.198   7.173   2.693  1.4722  1.3809 -0.8283
14892SOL     OW56653   7.464   4.288   4.001 -0.5779 -0.2994 -0.3339
14892SOL    HW156654   7.486   4.380   3.984  0.9849 -0.4002  0.9078
14892SOL    HW256655   7.491   4.242   3.921  2.8355 -0.2188  0.5997
14893SOL     OW56656   4.956   4.478   0.677 -0.1518  0.4426 -0.5122
14893SOL    HW156657   4.877   4.425   0.674 -0.0147  0.2039  0.0228
14893SOL    HW256658   5.009   4.439   0.746 -1.1903  2.8376  1.8129
14894SOL     OW56659   4.550   0.918   9.784 -0.1739 -0.3004 -0.0521
14894SOL    HW156660   4.624   0.978   9.797  1.8091 -3.1001  3.6399
14894SOL    HW256661   4.562   0.883   9.696  0.9294  1.6880 -0.7564
14895SOL     OW56662   7.733   0.009   6.009  0.2122  0.2780 -0.2522
14895SOL    HW156663   7.825  -0.016   6.012 -0.0104 -0.5065  1.6088
14895SOL    HW256664   7.733   0.105   6.003  1.0946  0.1988 -2.4860
14896SOL     OW56665   3.356   6.014  10.027 -0.1792 -0.3597 -0.2134
14896SOL    HW156666   3.282   5.956  10.043  0.2715 -0.8007  0.2861
14896SOL    HW256667   3.423   5.958   9.986 -0.4416  0.2314 -1.5151
14897SOL     OW56668   2.482   0.730   8.364 -0.8470 -0.0043  0.0181
14897SOL    HW156669   2.437   0.814   8.368  2.4181  2.0878 -2.2325
14897SOL    HW256670   2.421   0.672   8.319 -1.6990  2.4752 -2.2975
14898SOL     OW56671   0.853   1.652   4.796 -0.2607  0.8045 -0.2255
14898SOL    HW156672   0.813   1.585   4.851  1.9442 -0.7864 -0.4156
14898SOL    HW256673   0.923   1.688   4.850  0.9259  0.3290 -1.3901
14899SOL     OW56674   0.891   8.814   3.787  0.2378 -0.1164 -0.0418
14899SOL    HW156675   0.935   8.767   3.716  0.7666  0.0667  0.1645
14899SOL    HW256676   0.893   8.754   3.861  1.8896  0.6291  0.5520
14900SOL     OW56677   8.607   3.377   8.277  0.0985  0.4475 -0.0645
14900SOL    HW156678   8.515   3.351   8.276  0.0603  0.6102 -0.7813
14900SOL    HW256679   8.650   3.316   8.217  0.1906  1.3524 -0.9389
14901SOL     OW56680   1.141   5.791   4.677 -0.3291 -0.6293  0.0568
14901SOL    HW156681   1.115   5.759   4.763 -1.5859 -0.6013 -0.2946
14901SOL    HW256682   1.060   5.794   4.627  0.2483  0.2049 -0.8623
14902SOL     OW56683   9.816   2.038   7.340 -0.3941  0.2054  0.4053
14902SOL    HW156684   9.744   2.088   7.378 -1.2376 -0.9904  0.4449
14902SOL    HW256685   9.782   1.948   7.334  1.4384 -0.6165  1.3732
14903SOL     OW56686   0.832   4.143   0.584 -0.6386 -0.0634  0.0136
14903SOL    HW156687   0.839   4.208   0.515 -0.4961 -0.0761  0.0153
14903SOL    HW256688   0.784   4.187   0.654  1.2508  0.7547  0.8553
14904SOL     OW56689   6.272   8.504   9.743 -0.3351 -0.7279  0.1710
14904SOL    HW156690   6.345   8.478   9.686 -0.6506  1.0505 -1.1117
14904SOL    HW256691   6.238   8.421   9.776  1.6020 -1.6660 -0.0134
14905SOL     OW56692   6.129   9.471   6.621 -0.1442  0.7663  0.6839
14905SOL    HW156693   6.087   9.451   6.537  0.7227  1.2992  0.1116
14905SOL    HW256694   6.056   9.495   6.679 -0.7261  0.6240  0.0179
14906SOL     OW56695   1.642   7.521  10.228 -0.2152 -0.1859  0.2763
14906SOL    HW156696   1.692   7.527  10.310 -0.5655  0.8747  0.4245
14906SOL    HW256697   1.665   7.601  10.180  0.5541 -1.1394 -0.9991
14907SOL     OW56698   4.272   2.423   4.195  0.2917 -0.1643  0.5702
14907SOL    HW156699   4.244   2.492   4.256  1.6638 -0.1603  1.2398
14907SOL    HW256700   4.193   2.370   4.181 -1.4684  2.7848 -1.7704
14908SOL     OW56701   4.479   2.881   7.998  0.8168  0.0769  0.2958
14908SOL    HW156702   4.505   2.789   7.988  1.1159  0.1333  0.5368
14908SOL    HW256703   4.446   2.887   8.088  0.6060  0.1608  0.2134
14909SOL     OW56704   4.299   0.515   2.274  0.9139  0.2852 -0.5642
14909SOL    HW156705   4.217   0.503   2.322  0.6983  1.1175 -0.7030
14909SOL    HW256706   4.365   0.471   2.328  0.4598  0.0334 -0.2042
14910SOL     OW56707   9.984   0.006   0.640 -0.2775  0.5459  0.1770
14910SOL    HW156708  10.037   0.027   0.717  1.8073 -0.0093 -1.0187
14910SOL    HW256709   9.957   0.091   0.605  1.0036  0.9457  0.0845
14911SOL     OW56710  10.381   8.310   0.135  0.1388 -0.0438 -0.2829
14911SOL    HW156711  10.316   8.347   0.075 -1.7440 -0.2848  1.4729
14911SOL    HW256712  10.463   8.353   0.112 -0.8606  1.1159 -1.8873
14912SOL     OW56713   8.430   1.502   1.214 -0.4594 -0.7992  0.3145
14912SOL    HW156714   8.465   1.507   1.125  0.8694  0.6562  0.8642
14912SOL    HW256715   8.472   1.424   1.252 -1.2075 -1.5580 -0.3780
14913SOL     OW56716   2.850   3.496   6.324  0.0594 -0.0356  0.3316
14913SOL    HW156717   2.821   3.511   6.234 -0.5038 -0.0865  0.4988
14913SOL    HW256718   2.772   3.464   6.369 -0.1912  1.8094  1.3157
14914SOL     OW56719   5.482  10.091   4.847  0.1070  0.0285 -0.5514
14914SOL    HW156720   5.386  10.091   4.844  0.0032 -3.0912 -1.5525
14914SOL    HW256721   5.508  10.108   4.756  0.4396 -0.5544 -0.5672
14915SOL     OW56722   7.967   2.232   0.562 -0.0764  0.1737  0.4257
14915SOL    HW156723   7.926   2.318   0.568 -1.3644 -0.3602 -0.3601
14915SOL    HW256724   7.913   2.175   0.616  1.0320 -0.0800  1.3147
14916SOL     OW56725  10.320   8.553   0.855 -0.2035 -0.0158 -0.0138
14916SOL    HW156726  10.345   8.544   0.763 -1.5929  1.1336 -0.5314
14916SOL    HW256727  10.240   8.501   0.863  1.1182 -2.0229  1.1494
14917SOL     OW56728   2.939   4.510   5.776  0.1731  0.0211 -0.2924
14917SOL    HW156729   3.008   4.526   5.712 -0.7879 -0.0399 -1.3800
14917SOL    HW256730   2.963   4.564   5.852  1.3845  0.0149 -0.6544
14918SOL     OW56731   0.035   5.319   9.779  0.4717 -0.3810  0.0534
14918SOL    HW156732  -0.047   5.287   9.816  0.2347 -1.1809 -1.1033
14918SOL    HW256733   0.009   5.396   9.728  0.3766 -0.8289 -0.5836
14919SOL     OW56734   2.365   6.254   3.166  0.0059 -0.1859 -0.4225
14919SOL    HW156735   2.445   6.307   3.169  0.1484 -0.3738 -0.8094
14919SOL    HW256736   2.388   6.180   3.109 -0.8270  0.3829 -1.5328
14920SOL     OW56737   7.339   2.363   0.283 -0.0055  0.7189 -0.2102
14920SOL    HW156738   7.402   2.331   0.348 -0.5730 -0.0052 -0.0013
14920SOL    HW256739   7.254   2.357   0.327 -0.3669  0.4849 -0.9216
14921SOL     OW56740   8.318   0.699   1.784  0.2165  0.4241  0.1279
14921SOL    HW156741   8.373   0.656   1.719  0.6814 -1.7627  1.8334
14921SOL    HW256742   8.367   0.777   1.809  0.8392  0.3842 -0.9115
14922SOL     OW56743   8.148   4.265   5.284  0.5048  0.2756 -0.0421
14922SOL    HW156744   8.231   4.308   5.264  1.7648 -1.4242  1.2179
14922SOL    HW256745   8.173   4.183   5.327 -1.8349 -0.2752  0.4222
14923SOL     OW56746   5.193   4.948   7.167  0.1678  0.3180 -0.0428
14923SOL    HW156747   5.192   5.036   7.129 -1.6776 -0.1951 -1.3723
14923SOL    HW256748   5.135   4.953   7.242  1.1876  0.5504  0.7424
14924SOL     OW56749   7.109   0.424   0.907  0.3597  0.8825  0.0466
14924SOL    HW156750   7.176   0.486   0.936  0.0101  0.8447  0.9808
14924SOL    HW256751   7.085   0.376   0.986 -1.8251  1.9091  0.0878
14925SOL     OW56752   3.506   7.375   0.503  0.3441 -0.5413  0.6306
14925SOL    HW156753   3.471   7.380   0.414 -0.2354  1.4312  0.9010
14925SOL    HW256754   3.437   7.331   0.553 -0.7835  1.2005  0.6864
14926SOL     OW56755   5.652   8.146   2.536  0.1579  0.0836  0.0309
14926SOL    HW156756   5.729   8.103   2.573 -1.2053  0.9084  4.3898
14926SOL    HW256757   5.579   8.088   2.559 -0.8889  1.0313 -0.8163
14927SOL     OW56758   9.365   1.419   2.140 -0.1648  0.0148  0.3124
14927SOL    HW156759   9.371   1.492   2.079 -2.3616 -0.3930 -0.4943
14927SOL    HW256760   9.274   1.422   2.171 -0.5364 -2.7436 -0.2611
14928SOL     OW56761   4.341   7.673   6.075  0.1722  0.0521 -0.4312
14928SOL    HW156762   4.292   7.720   6.008  1.1269  0.0473 -1.1552
14928SOL    HW256763   4.347   7.734   6.148  1.3322  1.0632 -1.3280
14929SOL     OW56764   9.083   2.513   7.524  0.2112 -0.2520  0.1608
14929SOL    HW156765   9.104   2.568   7.600  0.5563  1.5029 -1.1243
14929SOL    HW256766   9.097   2.424   7.554  0.8624  0.4215  1.9977
14930SOL     OW56767   5.926   1.437   8.366  0.0277  0.6228  0.5572
14930SOL    HW156768   5.999   1.484   8.407  0.6529 -0.8020  1.1800
14930SOL    HW256769   5.969   1.370   8.313 -0.7784 -0.9887  1.8251
14931SOL     OW56770   7.690   9.543   5.996 -0.1493 -0.4704 -0.3033
14931SOL    HW156771   7.615   9.521   6.050  0.4248 -0.0921  0.6849
14931SOL    HW256772   7.762   9.493   6.033  0.0773 -0.8956 -1.2934
14932SOL     OW56773   6.944   3.396   6.528 -0.2254 -0.2936 -0.0179
14932SOL    HW156774   6.863   3.438   6.498 -0.2903 -0.1659  0.3295
14932SOL    HW256775   6.920   3.352   6.609  0.7865  2.6591  2.0804
14933SOL     OW56776   1.177   7.515   0.916  1.1101  0.2376  0.1198
14933SOL    HW156777   1.151   7.597   0.874 -0.4520  0.2565  1.0117
14933SOL    HW256778   1.107   7.453   0.893  2.0417 -0.7255 -0.1773
14934SOL     OW56779   7.249   7.292   9.916  0.0182 -0.4190  0.3604
14934SOL    HW156780   7.299   7.232   9.862 -0.0646  1.1873 -1.5963
14934SOL    HW256781   7.268   7.379   9.881 -0.1459  0.7272  2.8393
14935SOL     OW56782   1.167   4.741   5.638  0.0743 -0.5524 -0.5810
14935SOL    HW156783   1.230   4.731   5.710 -0.9659  0.1403  0.4671
14935SOL    HW256784   1.164   4.655   5.597  1.3084 -0.7433 -0.3358
14936SOL     OW56785   4.273  10.009   7.127  0.4446  0.1705  0.4402
14936SOL    HW156786   4.353  10.014   7.075  0.1567 -0.9100 -0.1364
14936SOL    HW256787   4.284   9.931   7.181  0.4903  0.9531  1.6260
14937SOL     OW56788   5.068   0.486   7.391  0.1009  0.2284  0.0869
14937SOL    HW156789   5.012   0.562   7.376 -0.6750 -0.3740 -0.1496
14937SOL    HW256790   5.137   0.492   7.325  1.2801  1.8461  1.3870
14938SOL     OW56791   3.477   9.427   7.700  0.2411  0.0473  0.1927
14938SOL    HW156792   3.500   9.357   7.761 -0.8910 -0.3167  0.2252
14938SOL    HW256793   3.390   9.403   7.668  1.2267 -0.3725 -2.4468
14939SOL     OW56794   2.620   8.831   5.797 -0.0100  0.4071  0.0379
14939SOL    HW156795   2.663   8.866   5.875 -1.3042  0.8369  0.5890
14939SOL    HW256796   2.526   8.841   5.815 -0.3356  1.0502 -1.8076
14940SOL     OW56797   2.096   3.195   9.531  0.2324 -0.0627 -0.5230
14940SOL    HW156798   2.131   3.125   9.477 -0.3613  0.3689 -1.4926
14940SOL    HW256799   2.162   3.264   9.529  0.5227 -0.3281 -0.1137
14941SOL     OW56800   3.205   1.904   3.574  0.1006 -0.0581  0.1176
14941SOL    HW156801   3.114   1.896   3.602  0.7876  0.4150  2.6525
14941SOL    HW256802   3.201   1.894   3.478 -2.2457 -3.2259  0.3680
14942SOL     OW56803   6.715  10.160   2.570 -0.2398 -0.2782 -0.1535
14942SOL    HW156804   6.744  10.252   2.567 -0.2222 -0.2478  0.7024
14942SOL    HW256805   6.794  10.109   2.553 -0.0500 -0.1508  0.3232
14943SOL     OW56806   8.938   9.067   6.606 -0.1553  0.0507  0.2356
14943SOL    HW156807   8.994   9.118   6.664  1.9321 -1.6607 -0.1556
14943SOL    HW256808   8.950   8.976   6.634 -0.1540 -0.6954 -1.9546
14944SOL     OW56809   8.684   1.916   7.117 -0.1873 -0.5690 -0.1218
14944SOL    HW156810   8.591   1.905   7.095 -0.1433  0.4788 -0.9388
14944SOL    HW256811   8.696   2.011   7.123  0.9663 -0.6647 -0.6398
14945SOL     OW56812   7.039   8.595   7.188 -0.2352  0.3791 -0.1404
14945SOL    HW156813   7.086   8.586   7.105 -0.9893  2.9825 -0.9486
14945SOL    HW256814   6.947   8.602   7.163 -0.7869 -1.3306  1.1666
14946SOL     OW56815   9.834   6.395   9.301 -0.4878 -0.6318  0.5852
14946SOL    HW156816   9.822   6.347   9.383  1.1985  1.3566  2.1145
14946SOL    HW256817   9.929   6.408   9.295 -0.7109  0.6048 -0.8649
14947SOL     OW56818   9.085   6.793   5.561 -0.3789  0.2280  0.0102
14947SOL    HW156819   9.053   6.779   5.472 -2.5802 -0.7533  0.8686
14947SOL    HW256820   9.085   6.888   5.572  0.4066  0.3806 -1.1783
14948SOL     OW56821   8.417   1.731   0.536 -0.0396 -0.5049  0.4727
14948SOL    HW156822   8.455   1.747   0.450  0.9521  0.8888  1.1290
14948SOL    HW256823   8.424   1.636   0.549 -2.2195 -1.0905 -1.8346
14949SOL     OW56824   8.844   8.264   2.712 -0.1496 -0.3504  0.0238
14949SOL    HW156825   8.935   8.235   2.705  0.1761  0.4960  0.5790
14949SOL    HW256826   8.851   8.358   2.730 -1.1720  0.4851 -3.2964
14950SOL     OW56827   9.958   9.458   1.472  0.4791  0.0345 -0.4981
14950SOL    HW156828  10.019   9.410   1.418 -1.4480 -2.3179 -0.7503
14950SOL    HW256829   9.988   9.443   1.562  0.1100 -1.4420 -0.5941
14951SOL     OW56830   6.419  10.047   3.840 -0.5469 -0.1160  0.2683
14951SOL    HW156831   6.513  10.060   3.851 -0.5366 -0.8328  1.2126
14951SOL    HW256832   6.410   9.996   3.760 -0.2474  1.1972 -0.6269
14952SOL     OW56833   2.218   8.873   9.032 -0.0845 -0.3675  0.2987
14952SOL    HW156834   2.123   8.873   9.044  0.1661 -1.0341  2.9183
14952SOL    HW256835   2.238   8.960   8.998 -1.5225  0.3632  1.2110
14953SOL     OW56836   7.702   2.248   3.939  0.0857 -0.3778  0.1410
14953SOL    HW156837   7.668   2.163   3.966 -3.9571  1.8670  3.1101
14953SOL    HW256838   7.676   2.255   3.847 -1.0503 -1.6348  0.3312
14954SOL     OW56839   0.787   8.436   2.277 -0.5412  0.3454  0.6831
14954SOL    HW156840   0.817   8.367   2.218 -0.0802  0.4494  0.7974
14954SOL    HW256841   0.749   8.502   2.219 -1.9515 -0.4550  0.6247
14955SOL     OW56842   7.557   8.848   7.219 -0.1619 -0.5396  0.1808
14955SOL    HW156843   7.599   8.776   7.267 -0.0550  0.1848  1.2250
14955SOL    HW256844   7.522   8.905   7.288  0.8620  1.0567 -0.5457
14956SOL     OW56845   2.015   8.519   0.296 -0.5873  0.4926  0.1276
14956SOL    HW156846   1.935   8.543   0.249 -0.1225  1.1188 -0.3772
14956SOL    HW256847   2.034   8.430   0.266 -0.8955  0.4770 -0.0299
14957SOL     OW56848   6.274   4.069   2.816  0.2615  0.3041 -0.3424
14957SOL    HW156849   6.182   4.093   2.822 -0.1092 -0.4063 -2.4117
14957SOL    HW256850   6.285   4.002   2.883 -1.0039 -0.3255 -0.7282
14958SOL     OW56851   8.880   2.511   5.714 -0.1894  0.7182  0.5714
14958SOL    HW156852   8.974   2.515   5.698 -0.0664 -0.3024  0.9620
14958SOL    HW256853   8.858   2.598   5.748  0.9949  0.3623  2.3989
14959SOL     OW56854   5.307   4.831   1.553  0.1947  0.6815  0.1988
14959SOL    HW156855   5.224   4.790   1.530  0.1655  1.0752 -0.4317
14959SOL    HW256856   5.365   4.811   1.480  1.2248 -1.1306  1.4394
14960SOL     OW56857   0.338   3.267   5.707  0.4575 -0.4460 -0.3189
14960SOL    HW156858   0.335   3.323   5.785 -0.3422  0.6554 -1.1142
14960SOL    HW256859   0.366   3.326   5.636 -0.0944 -1.1274 -1.1166
14961SOL     OW56860   7.839  10.290   8.826  0.6275 -0.3585  0.3875
14961SOL    HW156861   7.901  10.353   8.864  0.1297  0.2569  0.2049
14961SOL    HW256862   7.772  10.345   8.785 -0.2122 -1.0042  0.8652
14962SOL     OW56863  10.205   8.045   5.053  0.0578 -0.2195  0.6069
14962SOL    HW156864  10.181   8.081   5.138 -0.0568 -0.1763  0.5575
14962SOL    HW256865  10.299   8.032   5.057  0.4542  2.0052 -0.0792
14963SOL     OW56866  10.057   3.488   8.435  0.1505 -0.0199 -0.4972
14963SOL    HW156867  10.147   3.483   8.469  0.1395  0.4990 -0.3798
14963SOL    HW256868  10.054   3.423   8.366 -0.4626 -2.7425  1.8976
14964SOL     OW56869   5.974   5.778   3.571 -0.4584 -0.1381 -0.6259
14964SOL    HW156870   5.960   5.873   3.571  1.7953  0.2742 -1.7563
14964SOL    HW256871   5.944   5.750   3.484 -1.3553 -0.5138 -0.1994
14965SOL     OW56872   5.678  10.375   0.640 -0.3298 -0.1904  0.3208
14965SOL    HW156873   5.728  10.399   0.562 -1.4362  0.6905 -0.1426
14965SOL    HW256874   5.624  10.301   0.611  1.1051 -1.5661  0.9967
14966SOL     OW56875   0.677   2.975   6.204  0.3773 -0.1420  0.4298
14966SOL    HW156876   0.735   2.898   6.200 -0.6195 -0.8983  0.1147
14966SOL    HW256877   0.701   3.027   6.127  1.7728  0.4120  1.2017
14967SOL     OW56878   4.602   9.436   6.097 -0.6936  0.1383  0.2036
14967SOL    HW156879   4.588   9.371   6.029  1.0388  1.1254 -1.1655
14967SOL    HW256880   4.672   9.400   6.152 -1.1480 -0.0404  0.6816
14968SOL     OW56881   9.970   7.848   8.373 -0.3014  1.1285  0.7215
14968SOL    HW156882   9.950   7.823   8.463  0.8388 -0.7031  0.5237
14968SOL    HW256883   9.979   7.765   8.327  0.1256  2.0172 -0.8636
14969SOL     OW56884   4.602   0.623   8.361 -0.3278  0.1637  0.4424
14969SOL    HW156885   4.533   0.651   8.421 -1.1424 -0.7095 -0.0725
14969SOL    HW256886   4.616   0.531   8.381 -1.6207 -0.5511 -1.6368
14970SOL     OW56887   8.349   9.848   7.964 -0.1222 -0.4212 -0.0900
14970SOL    HW156888   8.356   9.941   7.943 -0.7989 -0.1486  0.8255
14970SOL    HW256889   8.257   9.827   7.948  0.0258 -0.9305 -0.2754
14971SOL     OW56890   0.297   4.234   3.258 -0.6838  0.1140 -0.3334
14971SOL    HW156891   0.376   4.285   3.278  0.8572 -2.3684  0.3412
14971SOL    HW256892   0.234   4.260   3.325  0.4569  0.2906  0.7079
14972SOL     OW56893   4.103   1.453   2.700  0.5281  0.1720  0.6132
14972SOL    HW156894   4.041   1.522   2.724  1.2727  0.1220  2.9149
14972SOL    HW256895   4.050   1.373   2.699  0.2068  0.3783  0.8484
14973SOL     OW56896   5.876   8.875   7.548  0.0253 -0.2082  0.1875
14973SOL    HW156897   5.819   8.860   7.624 -1.0963  1.6060 -0.2220
14973SOL    HW256898   5.834   8.827   7.477 -1.0947  1.1919 -0.1321
14974SOL     OW56899   2.115   4.680   6.522 -0.3349  0.0416  0.0664
14974SOL    HW156900   2.151   4.715   6.603 -0.7358 -0.5498  0.4995
14974SOL    HW256901   2.170   4.605   6.501  0.0569  0.4633 -0.4669
14975SOL     OW56902   4.836   8.428   3.427  0.1594  0.0287  0.3657
14975SOL    HW156903   4.800   8.353   3.380  0.6940  0.6855 -1.1616
14975SOL    HW256904   4.926   8.436   3.395  0.9508 -0.1521  2.3524
14976SOL     OW56905   5.389  10.215   8.925 -0.4223 -0.0928  0.2561
14976SOL    HW156906   5.481  10.238   8.937 -0.4419 -0.2981  0.8246
14976SOL    HW256907   5.345  10.299   8.915 -0.0783 -0.0187 -0.8060
14977SOL     OW56908   2.162   4.856   4.362 -0.2161 -0.1440 -0.1666
14977SOL    HW156909   2.142   4.903   4.443 -1.1659 -0.8631  0.0395
14977SOL    HW256910   2.150   4.921   4.293  1.7161  0.7937  0.3054
14978SOL     OW56911   0.799   1.446   8.385  0.0706 -0.1501  0.4286
14978SOL    HW156912   0.850   1.492   8.451 -1.1430  0.2948  1.0884
14978SOL    HW256913   0.711   1.440   8.422 -0.1765 -1.6658 -0.2898
14979SOL     OW56914   4.903   3.644   8.383  0.3495  0.1145  0.1250
14979SOL    HW156915   4.874   3.555   8.363  2.1757 -0.7433  1.0428
14979SOL    HW256916   4.872   3.660   8.472 -1.4019  1.0772 -0.6164
14980SOL     OW56917   1.964   3.451   8.728 -0.6214  0.8389 -0.4084
14980SOL    HW156918   1.986   3.515   8.795 -1.2361  0.4631  0.1710
14980SOL    HW256919   2.036   3.456   8.665  0.2265  0.8329  0.5416
14981SOL     OW56920   8.381   0.897   0.381  0.0703 -0.1089  0.3995
14981SOL    HW156921   8.460   0.948   0.362 -0.0505 -0.4306 -1.0398
14981SOL    HW256922   8.412   0.826   0.437  0.6497  0.2392  0.5309
14982SOL     OW56923   5.712   0.244   1.735 -0.0614  0.4361 -0.1403
14982SOL    HW156924   5.684   0.170   1.790  0.3932  0.1091 -0.3379
14982SOL    HW256925   5.727   0.315   1.797  2.2100 -0.4352  0.4215
14983SOL     OW56926  10.150   1.932   8.795 -0.2828 -0.1854  0.0942
14983SOL    HW156927  10.165   1.922   8.701 -1.5450 -1.4020 -0.0176
14983SOL    HW256928  10.059   1.906   8.808 -0.5614  1.2775  1.4824
14984SOL     OW56929   8.344   9.443   7.616 -0.0338 -0.0830  0.9277
14984SOL    HW156930   8.430   9.427   7.656  1.5517  1.6878 -1.4433
14984SOL    HW256931   8.343   9.537   7.597 -2.5676 -0.0396  0.9538
14985SOL     OW56932   7.109  10.080   1.843 -0.4276 -0.2885 -0.0802
14985SOL    HW156933   7.060  10.028   1.907  1.4043 -0.9721  0.8510
14985SOL    HW256934   7.136  10.017   1.777  0.6862 -0.3123  0.3666
14986SOL     OW56935  10.140   4.511   1.643  0.0364 -0.3888  0.1149
14986SOL    HW156936  10.062   4.546   1.600 -1.2331 -1.9013  1.0495
14986SOL    HW256937  10.148   4.562   1.724  0.5349  0.3216 -0.3700
14987SOL     OW56938   2.824   9.852   5.387 -0.0899  0.7598  0.4678
14987SOL    HW156939   2.741   9.804   5.388  1.2863 -1.8258  0.6992
14987SOL    HW256940   2.868   9.822   5.308  0.5515  2.2734  0.2189
14988SOL     OW56941   4.684   6.932   3.260  0.3663  0.3283 -0.9382
14988SOL    HW156942   4.624   6.889   3.321  1.8757  0.3045  0.5802
14988SOL    HW256943   4.655   6.901   3.173 -1.0466 -0.6087 -0.1814
14989SOL     OW56944   6.322   8.633   4.278  0.3787  0.3306 -0.2671
14989SOL    HW156945   6.330   8.712   4.332 -0.2335  0.0795  0.1892
14989SOL    HW256946   6.229   8.615   4.275  0.6117 -1.2681  0.9287
14990SOL     OW56947   2.340   0.984   3.742 -0.2015 -0.3602  0.4199
14990SOL    HW156948   2.388   0.913   3.784 -1.0731 -2.9467 -2.5826
14990SOL    HW256949   2.250   0.952   3.734 -1.1865  2.0429  0.8875
14991SOL     OW56950   8.428   7.636   2.890 -0.1383  0.6220  0.3573
14991SOL    HW156951   8.442   7.580   2.814 -2.0909 -0.6903  0.8885
14991SOL    HW256952   8.435   7.725   2.856  0.1420  0.0613 -1.1222
14992SOL     OW56953   9.870   3.227   6.835  0.0250  0.0403  0.2225
14992SOL    HW156954   9.892   3.141   6.799  1.0634  0.7855 -0.9932
14992SOL    HW256955   9.952   3.262   6.868 -0.3029  0.7621  0.2949
14993SOL     OW56956   4.501   2.179   5.236 -0.3956 -0.2209 -0.0141
14993SOL    HW156957   4.444   2.188   5.312  0.2952 -0.6945  0.5662
14993SOL    HW256958   4.460   2.109   5.184 -1.8768  1.3093 -1.0276
14994SOL     OW56959   6.558   6.136   5.541  0.2891  0.0631  0.2715
14994SOL    HW156960   6.557   6.127   5.636 -1.2662 -0.2143  0.2485
14994SOL    HW256961   6.551   6.046   5.509  1.5571  0.0886 -0.1316
14995SOL     OW56962   2.523  10.188   2.964 -0.2409  0.3878  0.0473
14995SOL    HW156963   2.568  10.209   3.045  1.2043 -1.4022 -0.2320
14995SOL    HW256964   2.565  10.243   2.898 -0.1627  0.5162  0.2053
14996SOL     OW56965   9.712  10.034  10.152  0.6251  0.0553  0.6680
14996SOL    HW156966   9.647  10.016  10.084  0.7162  1.3911  0.1940
14996SOL    HW256967   9.661  10.050  10.231  0.2182  2.6087 -0.0324
14997SOL     OW56968   0.637   0.596   0.764 -0.3226  0.3496 -0.7792
14997SOL    HW156969   0.680   0.519   0.800 -1.5222 -0.2857 -0.6631
14997SOL    HW256970   0.690   0.620   0.688  0.4861 -0.1304 -0.3830
14998SOL     OW56971   3.252   0.822   8.494  0.4528  0.2214  0.1788
14998SOL    HW156972   3.200   0.742   8.501  0.5155  0.1734  0.0910
14998SOL    HW256973   3.257   0.855   8.584 -2.5561  1.9968 -0.1573
14999SOL     OW56974   0.730   7.096   5.151  1.0005  0.7498 -0.7747
14999SOL    HW156975   0.781   7.128   5.076  2.0645  1.3214  0.1684
14999SOL    HW256976   0.738   7.166   5.216 -0.0059  0.3041 -0.1665
15000SOL     OW56977   5.487   8.910   7.365 -0.3063  0.1678 -0.3227
15000SOL    HW156978   5.398   8.944   7.354 -0.5679 -0.5435 -0.5143
15000SOL    HW256979   5.544   8.985   7.351 -0.8922  0.7559  0.3432
15001SOL     OW56980  10.216   1.734   4.457 -0.4167 -0.1100  0.2102
15001SOL    HW156981  10.260   1.716   4.540  0.3419 -0.3297 -0.2278
15001SOL    HW256982  10.260   1.676   4.394 -0.9459  0.0921 -0.3515
15002SOL     OW56983   0.844  10.302   9.804  0.2528  0.4286  0.7289
15002SOL    HW156984   0.812  10.382   9.844 -0.8564 -0.3455  1.4172
15002SOL    HW256985   0.868  10.328   9.715 -1.1482  1.2903  0.5798
15003SOL     OW56986   4.665   2.693   7.950  0.1136  0.1244  0.7596
15003SOL    HW156987   4.755   2.674   7.975 -0.1862  0.9191  2.5306
15003SOL    HW256988   4.673   2.754   7.877  0.9982 -0.0652  0.6838
15004SOL     OW56989   2.307   9.003   3.033 -0.3029  0.1859  0.2202
15004SOL    HW156990   2.390   9.044   3.008 -0.6329  0.4235 -0.5280
15004SOL    HW256991   2.259   9.073   3.077  0.1999 -0.1773  1.3959
15005SOL     OW56992   5.719   8.098   0.056  0.4533  0.4010  0.6400
15005SOL    HW156993   5.760   8.046  -0.013 -0.3405  0.3492  0.1874
15005SOL    HW256994   5.638   8.049   0.076  0.2767  0.8501  1.0260
15006SOL     OW56995   0.915   6.017   6.920  0.4754 -0.2705 -0.3491
15006SOL    HW156996   0.916   6.102   6.963  0.9536 -0.6230  0.3536
15006SOL    HW256997   0.997   5.975   6.947  0.1575 -1.0319 -0.5271
15007SOL     OW56998   0.815   0.499   5.314 -0.0620 -0.0097 -0.0433
15007SOL    HW156999   0.732   0.493   5.267 -0.6364  2.9677  0.3580
15007SOL    HW257000   0.862   0.570   5.270  2.8764 -2.3844 -1.0166
15008SOL     OW57001   8.359   6.075   4.575  0.0322 -0.7045 -0.1024
15008SOL    HW157002   8.420   6.003   4.588  1.3187  0.2598 -0.5250
15008SOL    HW257003   8.414   6.147   4.545 -1.1952  0.4818  0.3920
15009SOL     OW57004   8.256   9.008   6.574  0.2653 -0.0196 -0.0027
15009SOL    HW157005   8.344   9.037   6.553  0.0618 -0.2045 -1.1747
15009SOL    HW257006   8.206   9.089   6.586  0.3550  0.0998 -0.4131
15010SOL     OW57007   9.449   3.467   5.786 -0.0833 -0.0293  0.4687
15010SOL    HW157008   9.523   3.427   5.742 -1.1737 -0.1629 -1.3636
15010SOL    HW257009   9.421   3.538   5.727 -0.6782  0.8091  1.6949
15011SOL     OW57010   2.237   3.797   1.809  0.0393  0.1776  0.2487
15011SOL    HW157011   2.156   3.751   1.789 -0.3510  1.1969 -0.5832
15011SOL    HW257012   2.300   3.764   1.746  0.0073  0.1070  0.2535
15012SOL     OW57013   5.735   1.496   6.287  0.4019  0.3618  0.4642
15012SOL    HW157014   5.782   1.560   6.234 -0.7814  0.2513 -0.7821
15012SOL    HW257015   5.779   1.413   6.268  0.2584  0.3920 -0.0222
15013SOL     OW57016   0.274   4.253   0.805  0.2587 -0.0433 -0.0302
15013SOL    HW157017   0.233   4.292   0.728  0.3234 -1.2455 -0.6945
15013SOL    HW257018   0.203   4.244   0.869  0.0716  0.3753 -0.1792
15014SOL     OW57019   0.828   6.447   1.187 -0.4315 -0.2236  0.1738
15014SOL    HW157020   0.781   6.430   1.269  0.6017  0.4202  0.9403
15014SOL    HW257021   0.886   6.521   1.209  0.7322 -0.8270 -0.7967
15015SOL     OW57022   8.962   0.337   9.995  0.3020 -0.0822 -0.1516
15015SOL    HW157023   9.034   0.312   9.937  0.5946 -0.5739  0.4238
15015SOL    HW257024   8.986   0.423  10.028  0.8227 -0.4193  0.3564
15016SOL     OW57025   9.638   1.680   1.817 -0.4128 -0.2153  0.0180
15016SOL    HW157026   9.694   1.632   1.755  2.2635  1.1579  1.2338
15016SOL    HW257027   9.602   1.752   1.765 -0.5706 -0.7340 -0.6177
15017SOL     OW57028   1.219   9.825   3.714  0.4615 -0.4367 -0.1487
15017SOL    HW157029   1.288   9.774   3.672  0.0824 -1.3413  0.3030
15017SOL    HW257030   1.260   9.861   3.793  0.0373 -2.2033  0.9196
15018SOL     OW57031   7.807   8.629   4.309  0.2798 -0.6478 -0.2130
15018SOL    HW157032   7.716   8.602   4.305  0.1313 -0.2282  0.2978
15018SOL    HW257033   7.833   8.641   4.217 -1.0065  1.9712 -0.3201
15019SOL     OW57034   3.808   9.526   8.639 -0.1122 -0.0453 -0.0806
15019SOL    HW157035   3.736   9.495   8.585 -0.4012 -0.8601  0.7512
15019SOL    HW257036   3.769   9.595   8.694 -0.0762  0.0327 -0.1531
15020SOL     OW57037   8.853   0.420   9.093 -0.3489 -0.8925  0.3014
15020SOL    HW157038   8.885   0.440   9.180 -0.5271 -1.1273  0.4238
15020SOL    HW257039   8.931   0.417   9.038 -0.4817  2.7298 -0.2946
15021SOL     OW57040   1.718   8.264   2.669  0.2106  0.1044  0.2518
15021SOL    HW157041   1.805   8.255   2.630  0.6880 -0.0565  1.3196
15021SOL    HW257042   1.695   8.356   2.656 -0.5644 -0.3581 -2.2408
15022SOL     OW57043   9.876   4.283   5.640  0.0921  0.0618 -0.0434
15022SOL    HW157044   9.969   4.301   5.654 -0.5656  2.9668  1.2697
15022SOL    HW257045   9.868   4.269   5.546  1.7375  0.5710 -0.2868
15023SOL     OW57046   9.252  10.001   5.083 -0.1227 -0.3924  0.6415
15023SOL    HW157047   9.310  10.064   5.126 -1.3912 -0.0719  1.9476
15023SOL    HW257048   9.165  10.040   5.091 -0.5397 -0.7739 -1.4314
15024SOL     OW57049   6.405   8.432   1.674  0.5527  0.2962 -0.0389
15024SOL    HW157050   6.382   8.358   1.618  1.7925  0.4708 -0.8452
15024SOL    HW257051   6.347   8.426   1.749 -1.3979  0.2154 -1.4734
15025SOL     OW57052   1.435   9.165   2.785  0.1452 -0.2432 -0.3077
15025SOL    HW157053   1.450   9.143   2.877  0.2280  1.9590  0.2692
15025SOL    HW257054   1.520   9.153   2.743  0.5328  0.3587  0.2850
15026SOL     OW57055   6.869   4.231   5.293 -0.7361  0.1894  0.5463
15026SOL    HW157056   6.904   4.157   5.341 -2.7763  0.3602  2.4191
15026SOL    HW257057   6.776   4.232   5.313 -1.3751  1.4041 -1.9861
15027SOL     OW57058   4.568   0.031   0.312 -0.6842  0.5630 -0.0451
15027SOL    HW157059   4.485   0.070   0.341 -0.9227 -0.9450  1.4755
15027SOL    HW257060   4.542  -0.035   0.248 -0.4266  1.6179 -1.2815
15028SOL     OW57061   9.267   3.472   0.208 -0.8188 -0.1179  0.0488
15028SOL    HW157062   9.274   3.567   0.199 -1.2557 -0.1888 -1.1648
15028SOL    HW257063   9.356   3.441   0.193 -0.9714 -0.0070 -1.1294
15029SOL     OW57064   3.123   8.606   6.078 -0.0709 -0.2697  0.1240
15029SOL    HW157065   3.054   8.593   6.013 -1.5745 -2.2531  1.9891
15029SOL    HW257066   3.099   8.687   6.123  0.9562  1.0943 -1.6343
15030SOL     OW57067   6.494   5.603   7.191  0.9205  0.1672 -0.1968
15030SOL    HW157068   6.539   5.519   7.189  2.6843  1.0523 -2.4297
15030SOL    HW257069   6.496   5.633   7.100  2.1354  3.4621  0.7647
15031SOL     OW57070   4.455   9.928   1.519  0.3332 -0.4623  0.4480
15031SOL    HW157071   4.373   9.921   1.469  0.2858 -1.1190  0.6072
15031SOL    HW257072   4.522   9.947   1.453  0.1106 -0.3085  0.2677
15032SOL     OW57073   5.036   9.489   7.828  0.4003 -0.8103 -0.3878
15032SOL    HW157074   5.054   9.583   7.818 -0.4786 -0.6108 -0.1576
15032SOL    HW257075   5.028   9.456   7.739 -1.3209 -0.2550 -0.4563
15033SOL     OW57076   5.155   5.203   4.672  0.6265  0.1199 -0.3531
15033SOL    HW157077   5.092   5.139   4.707 -0.2378  1.3403  0.3990
15033SOL    HW257078   5.189   5.247   4.749  0.4623  1.2406 -0.9046
15034SOL     OW57079   7.524   8.162   4.122 -0.3216  0.5173 -0.4499
15034SOL    HW157080   7.530   8.236   4.061 -0.7164 -0.8945 -2.3015
15034SOL    HW257081   7.431   8.159   4.146 -0.3311  0.5556 -0.4805
15035SOL     OW57082   2.118   0.852   1.006  0.0898  0.4075 -0.1882
15035SOL    HW157083   2.190   0.818   0.953 -0.1545 -1.2965  0.4850
15035SOL    HW257084   2.052   0.782   1.003 -1.7440  2.0734 -1.1206
15036SOL     OW57085   6.265   9.991   3.293 -0.8418 -0.2872 -0.0231
15036SOL    HW157086   6.180   9.948   3.308 -0.3089 -1.6149 -0.6767
15036SOL    HW257087   6.315   9.928   3.242  0.2270  0.8633 -0.4474
15037SOL     OW57088   5.822   1.882   9.723 -0.1721 -0.1889 -0.0168
15037SOL    HW157089   5.737   1.840   9.710 -0.4023  0.1660  0.3474
15037SOL    HW257090   5.870   1.864   9.641 -1.1964  1.0573 -0.9350
15038SOL     OW57091   8.464   2.334   0.765  0.5990 -0.2847 -0.3901
15038SOL    HW157092   8.469   2.238   0.764  1.0410 -0.2616 -0.6024
15038SOL    HW257093   8.471   2.359   0.673  0.1905 -0.0597 -0.3607
15039SOL     OW57094   6.705   8.535   4.347 -0.2188 -0.3169  0.0806
15039SOL    HW157095   6.692   8.628   4.367  0.1770 -0.4353  0.8995
15039SOL    HW257096   6.723   8.494   4.431 -0.8278 -1.2218 -0.2080
15040SOL     OW57097   1.800   2.486   7.855 -0.4540  0.8453  0.4229
15040SOL    HW157098   1.799   2.429   7.777 -1.1707 -0.2585  1.1989
15040SOL    HW257099   1.712   2.524   7.858 -0.1413  1.6062  0.2008
15041SOL     OW57100   4.782   0.137   5.560  0.6290  0.6314  0.3757
15041SOL    HW157101   4.702   0.088   5.541  0.7318  0.5290  0.1985
15041SOL    HW257102   4.793   0.129   5.655  0.6063  0.3686  0.3588
15042SOL     OW57103   3.238   9.786   1.693  0.2113 -0.6401  0.1322
15042SOL    HW157104   3.214   9.693   1.689  2.0330 -1.1535  0.4593
15042SOL    HW257105   3.243   9.805   1.787 -0.9913  0.0481  0.0797
15043SOL     OW57106   3.594   4.066   2.145 -0.3616  0.2110 -0.2761
15043SOL    HW157107   3.509   4.063   2.188 -0.6243 -0.5080 -0.8214
15043SOL    HW257108   3.578   4.117   2.065 -0.5595 -0.8496 -0.9360
15044SOL     OW57109   2.857   3.941   8.934  0.1120  0.3259 -0.6722
15044SOL    HW157110   2.850   4.002   8.861 -0.0330  1.6619  0.4133
15044SOL    HW257111   2.790   3.970   8.996 -0.6773 -1.5913 -0.5580
15045SOL     OW57112   9.788   8.723   8.897  0.2888 -0.3393  0.2038
15045SOL    HW157113   9.816   8.704   8.808  1.1577 -0.7000  0.5425
15045SOL    HW257114   9.869   8.727   8.947 -0.1359  0.6901  0.8258
15046SOL     OW57115   0.523   4.807   6.335 -0.5653 -0.2555 -0.7156
15046SOL    HW157116   0.475   4.859   6.398 -0.5287  0.1099 -0.9866
15046SOL    HW257117   0.476   4.820   6.252 -1.6251 -2.0473 -0.4633
15047SOL     OW57118   9.273   8.756   5.598  0.8326 -0.4826 -0.1547
15047SOL    HW157119   9.349   8.706   5.569  1.2948 -0.4496  0.9218
15047SOL    HW257120   9.276   8.749   5.694 -0.8031 -0.8905 -0.1138
15048SOL     OW57121   8.172   8.350   4.907  0.1228  0.0384  0.0169
15048SOL    HW157122   8.153   8.437   4.871 -0.7660 -0.1443  0.0065
15048SOL    HW257123   8.102   8.335   4.971 -0.3219 -1.0711 -0.6929
15049SOL     OW57124   1.487   7.612   4.693 -0.5561  0.1413  0.2193
15049SOL    HW157125   1.475   7.617   4.598 -2.1535 -2.2364  0.2017
15049SOL    HW257126   1.398   7.608   4.728  0.0199 -0.4697  1.6794
15050SOL     OW57127  10.220   4.941   7.611 -0.7925 -0.1049 -0.4450
15050SOL    HW157128  10.302   4.898   7.638 -0.7772  0.2703  0.1288
15050SOL    HW257129  10.240   4.979   7.526 -0.8584 -1.3659 -1.0435
15051SOL     OW57130   5.364   9.614   1.532 -0.0822 -1.1308 -0.1737
15051SOL    HW157131   5.377   9.625   1.438 -0.9901 -1.3749 -0.3429
15051SOL    HW257132   5.428   9.673   1.573  1.7162 -2.4943 -0.8967
15052SOL     OW57133   5.012   8.896   4.058 -0.2567 -0.1590 -0.2891
15052SOL    HW157134   5.090   8.869   4.010  0.3454  0.4706  0.3251
15052SOL    HW257135   5.034   8.982   4.095 -0.8799 -0.4073  0.7055
15053SOL     OW57136   1.465   7.156  10.174 -0.2588 -0.0611  0.7078
15053SOL    HW157137   1.452   7.184  10.264  0.1603 -0.4842  0.9050
15053SOL    HW257138   1.403   7.208  10.123 -0.8130 -0.1402  1.2920
15054SOL     OW57139   3.495   4.033   8.149  0.7587 -0.7227 -0.3014
15054SOL    HW157140   3.575   3.981   8.148  0.9608 -0.5632  2.3011
15054SOL    HW257141   3.474   4.045   8.241 -1.4981  0.4595 -0.8748
15055SOL     OW57142   8.606   5.363   8.003  0.1078  0.3648 -0.0058
15055SOL    HW157143   8.629   5.449   8.037 -0.3921 -0.4267  2.5340
15055SOL    HW257144   8.528   5.337   8.052  1.1159 -2.1483  0.4036
15056SOL     OW57145   0.861   2.208   6.261  0.3252 -0.2834  0.4964
15056SOL    HW157146   0.828   2.132   6.213 -0.8413  1.1279 -1.0709
15056SOL    HW257147   0.828   2.283   6.211  2.5063  1.2576  1.2393
15057SOL     OW57148   3.693   1.091   0.870 -0.2133 -0.1795  0.6836
15057SOL    HW157149   3.707   1.182   0.845  0.8648 -0.1801  1.2111
15057SOL    HW257150   3.604   1.088   0.903 -0.5892  0.4736 -0.2303
15058SOL     OW57151   3.552   9.672   9.527 -0.7409 -0.0551 -0.0036
15058SOL    HW157152   3.644   9.695   9.513 -0.2578 -1.3121  0.8903
15058SOL    HW257153   3.504   9.753   9.511  0.4801  0.5305 -0.8584
15059SOL     OW57154   9.993   3.663   9.849  0.0008 -0.3176  0.1566
15059SOL    HW157155  10.062   3.661   9.915  0.5124  1.0427 -0.3089
15059SOL    HW257156   9.934   3.732   9.878  0.4477  0.5728 -0.9861
15060SOL     OW57157   1.063   7.088   3.807 -0.8156  0.0351 -0.0427
15060SOL    HW157158   1.009   7.045   3.873  1.4889 -1.0282  1.2935
15060SOL    HW257159   1.120   7.019   3.773 -0.1640  1.1141 -1.2532
15061SOL     OW57160   6.949   7.813   5.573  0.0861  0.0982 -0.1793
15061SOL    HW157161   7.002   7.767   5.508 -1.8769 -1.1340 -1.0057
15061SOL    HW257162   6.964   7.906   5.555  0.8562 -0.2228 -1.2920
15062SOL     OW57163   8.901   4.082   5.915 -0.3443  0.7306  0.3797
15062SOL    HW157164   8.993   4.071   5.935 -0.3451  1.8324  1.0824
15062SOL    HW257165   8.894   4.173   5.884 -1.3622  1.0403  1.4458
15063SOL     OW57166   2.206   6.009   3.401  0.3145 -0.2174 -0.8049
15063SOL    HW157167   2.159   6.091   3.384  1.6542  0.3223 -2.1718
15063SOL    HW257168   2.285   6.015   3.346  0.6553 -2.2370 -0.6109
15064SOL     OW57169   7.236   5.770   9.828 -0.1318  0.0766  0.0930
15064SOL    HW157170   7.245   5.728   9.742 -1.6082 -1.5908  0.6735
15064SOL    HW257171   7.202   5.857   9.809 -0.5640 -0.3161 -1.0136
15065SOL     OW57172   5.842   5.402   9.635  0.1253 -0.2835  0.1697
15065SOL    HW157173   5.826   5.338   9.705 -0.6406  0.1482  0.4101
15065SOL    HW257174   5.811   5.359   9.555  0.4114 -0.5391  0.1969
15066SOL     OW57175   8.382   9.907  10.327 -0.1936 -0.0744 -0.3223
15066SOL    HW157176   8.473   9.915  10.358  0.7308  0.4662 -2.9082
15066SOL    HW257177   8.336   9.863  10.399  1.6105  1.4559  1.9235
15067SOL     OW57178   8.011   4.336   9.974  0.7151 -0.1610 -0.8407
15067SOL    HW157179   8.102   4.367   9.964  1.0433 -0.5245  0.8224
15067SOL    HW257180   7.979   4.379  10.053  0.4048 -2.2075  0.2098
15068SOL     OW57181   6.990   3.390   9.421  0.0399  0.1134  0.5730
15068SOL    HW157182   6.949   3.313   9.382  1.2100  0.0405 -0.6019
15068SOL    HW257183   7.082   3.384   9.394  0.1336  1.9683  0.3539
15069SOL     OW57184   6.217   0.447   8.052 -0.5454 -0.0547 -0.1787
15069SOL    HW157185   6.171   0.514   8.003  0.3100  1.7956  1.3850
15069SOL    HW257186   6.148   0.396   8.094 -1.2426 -1.0178 -2.3889
15070SOL     OW57187   4.701   1.811   8.250 -0.4746 -0.0044  0.5690
15070SOL    HW157188   4.695   1.895   8.296  0.4143  0.2252  0.2867
15070SOL    HW257189   4.675   1.831   8.160  2.8569  0.7577 -0.3791
15071SOL     OW57190   7.286   4.696   9.625 -0.0597  0.0576 -0.6235
15071SOL    HW157191   7.280   4.635   9.551  1.3027 -0.5651 -0.2488
15071SOL    HW257192   7.273   4.642   9.702  0.4890  0.3440 -0.3199
15072SOL     OW57193   4.679   7.612   1.346 -0.0625  0.0080 -0.2430
15072SOL    HW157194   4.766   7.584   1.377 -0.1466 -0.9120 -0.7869
15072SOL    HW257195   4.665   7.697   1.386  1.0524  0.1169 -0.0601
15073SOL     OW57196   4.666   1.962   7.275 -0.2718  0.1401  0.2302
15073SOL    HW157197   4.654   1.910   7.354 -0.4423  0.6590  0.5471
15073SOL    HW257198   4.760   1.956   7.256 -0.3133 -0.4166  0.1629
15074SOL     OW57199   6.658   7.899   8.625  0.5145  0.1994  0.2623
15074SOL    HW157200   6.590   7.848   8.670 -1.1229  1.9833 -0.0164
15074SOL    HW257201   6.739   7.877   8.671 -0.4975 -0.8004  1.6875
15075SOL     OW57202   7.408   6.449   4.213  0.2668  0.3688  0.6340
15075SOL    HW157203   7.360   6.531   4.227 -0.9506 -0.1542 -0.2661
15075SOL    HW257204   7.359   6.385   4.266 -0.1589 -0.2082 -0.4323
15076SOL     OW57205   7.567   2.309   8.865  0.2692 -0.5550  0.0923
15076SOL    HW157206   7.575   2.404   8.856  1.3179 -0.8193 -2.8350
15076SOL    HW257207   7.655   2.280   8.887 -0.0122 -0.9021  0.7973
15077SOL     OW57208   1.465  10.146   1.319  0.2470 -0.1570 -0.2930
15077SOL    HW157209   1.498  10.192   1.242 -0.0625  0.8580  0.1493
15077SOL    HW257210   1.469  10.053   1.297  0.7368  0.0941 -1.2902
15078SOL     OW57211   9.129   5.451   6.667 -0.0360  0.3649  0.5249
15078SOL    HW157212   9.110   5.359   6.651 -1.4060  0.4733  1.4477
15078SOL    HW257213   9.046   5.489   6.695  0.3349  2.0399 -0.4621
15079SOL     OW57214   0.615   9.678   0.227  0.2801  0.5065 -0.1427
15079SOL    HW157215   0.565   9.597   0.238  2.7382 -1.1778 -0.6295
15079SOL    HW257216   0.575   9.720   0.150  0.4035 -1.4463 -1.3442
15080SOL     OW57217  10.133   3.744   6.436 -0.0602  0.4429 -0.0584
15080SOL    HW157218  10.072   3.720   6.505  0.9294  0.8138  0.9727
15080SOL    HW257219  10.145   3.839   6.446  2.0445  0.1346  0.9548
15081SOL     OW57220   6.098   8.390   5.367 -0.4371  0.3807  0.3396
15081SOL    HW157221   6.183   8.348   5.381 -1.2241 -1.8169 -1.0282
15081SOL    HW257222   6.120   8.473   5.323  1.0025  0.0419  0.3672
15082SOL     OW57223   8.089   0.427   3.164 -0.3153  0.2357  0.2684
15082SOL    HW157224   8.101   0.464   3.252 -1.2545 -1.6089  1.2329
15082SOL    HW257225   7.995   0.425   3.151 -0.3243 -1.6375  0.2414
15083SOL     OW57226   7.837   8.671   0.370 -0.2334  0.2047 -0.6409
15083SOL    HW157227   7.797   8.584   0.376  3.0679 -1.4017  0.9174
15083SOL    HW257228   7.805   8.717   0.447 -0.7708 -0.2246 -0.6003
15084SOL     OW57229   7.152   7.724   7.691 -0.4294 -0.7568 -0.3724
15084SOL    HW157230   7.078   7.782   7.708  0.6283  0.6116 -0.2622
15084SOL    HW257231   7.113   7.647   7.649 -1.8454  0.1458 -0.7780
15085SOL     OW57232   1.155   5.293   0.297 -0.0286 -0.3842  0.6214
15085SOL    HW157233   1.116   5.379   0.284 -0.5518 -0.8242 -0.9150
15085SOL    HW257234   1.207   5.277   0.218 -0.2791 -1.6403  0.6819
15086SOL     OW57235   8.547   9.753   4.624 -0.2469 -0.3456 -0.0552
15086SOL    HW157236   8.555   9.762   4.529  0.9408  0.2799  0.0802
15086SOL    HW257237   8.615   9.811   4.659 -0.3648 -0.9150  1.1679
15087SOL     OW57238   8.966   8.673  10.012 -0.1047 -0.1313  0.5523
15087SOL    HW157239   9.013   8.592  10.034 -1.1210 -0.3294  2.1062
15087SOL    HW257240   9.023   8.743  10.043  0.1814 -0.2858  0.3818
15088SOL     OW57241   9.810   0.708   4.303 -1.0437  0.1152 -0.3099
15088SOL    HW157242   9.882   0.678   4.359  0.3021 -1.3159 -2.6193
15088SOL    HW257243   9.731   0.672   4.345 -0.1572 -0.5316  0.8858
15089SOL     OW57244   0.743   9.404   9.979  0.5090 -0.3921  0.5522
15089SOL    HW157245   0.690   9.465   9.928  0.9631 -0.6263 -0.2193
15089SOL    HW257246   0.815   9.457  10.013  0.6361 -0.3880  0.2843
15090SOL     OW57247   9.605   9.939   6.637 -0.6548  0.0665  0.1671
15090SOL    HW157248   9.541  10.009   6.647 -0.8641 -0.3624  2.6858
15090SOL    HW257249   9.648   9.934   6.723  0.3286 -1.9330 -0.3805
15091SOL     OW57250   9.378   1.559   1.597  0.4726 -0.6121  0.3532
15091SOL    HW157251   9.322   1.493   1.556 -0.1994 -0.7952  1.5342
15091SOL    HW257252   9.449   1.572   1.534 -1.4642  0.4856 -1.7109
15092SOL     OW57253   9.523   8.253   0.005  0.2397  0.0735 -0.9344
15092SOL    HW157254   9.514   8.197   0.081 -0.9116  1.5275  0.0645
15092SOL    HW257255   9.572   8.201  -0.058  1.8740 -0.9215  1.0476
15093SOL     OW57256   2.605   3.293   2.965  0.5893  0.0503 -0.6718
15093SOL    HW157257   2.596   3.225   2.897  0.6378  1.3413 -2.0198
15093SOL    HW257258   2.692   3.329   2.951 -0.1631  1.7247 -1.3083
15094SOL     OW57259   4.908   5.352   8.607 -0.0709  0.1506  0.1368
15094SOL    HW157260   4.958   5.356   8.688 -2.5826  0.8432  1.7464
15094SOL    HW257261   4.888   5.259   8.595  1.0787 -0.0718 -0.2650
15095SOL     OW57262   2.871   8.684   5.959  0.3688  0.4454  0.6156
15095SOL    HW157263   2.822   8.630   6.020 -0.4170  0.4487  0.0045
15095SOL    HW257264   2.841   8.774   5.976 -0.6719  0.3362 -0.4775
15096SOL     OW57265   2.426   6.592   9.940  0.0017 -0.3478 -0.2156
15096SOL    HW157266   2.360   6.525   9.923  1.0549 -1.1661 -1.2183
15096SOL    HW257267   2.416   6.655   9.869 -1.4096  0.9630  1.0647
15097SOL     OW57268  10.080   7.215   7.126  0.0147 -0.2774  0.2441
15097SOL    HW157269  10.139   7.159   7.075 -2.0191 -0.9000 -1.5487
15097SOL    HW257270  10.032   7.266   7.061 -1.7385 -0.1221  1.5734
15098SOL     OW57271   8.680   9.897   5.451 -0.2277  0.0565  0.0344
15098SOL    HW157272   8.586   9.901   5.465 -0.3549  0.3734 -0.8539
15098SOL    HW257273   8.701   9.977   5.402  0.2238 -0.7743 -1.2042
15099SOL     OW57274   9.454   5.719   3.116 -0.2193  0.2770 -0.3573
15099SOL    HW157275   9.481   5.653   3.179  1.5150 -0.9011 -2.2128
15099SOL    HW257276   9.359   5.728   3.129 -0.3544 -1.9433  0.5398
15100SOL     OW57277   9.116   0.935   1.538  0.3553 -0.1087 -0.3436
15100SOL    HW157278   9.193   0.921   1.593  1.1700  1.5806 -0.9696
15100SOL    HW257279   9.055   0.866   1.564  1.8675 -1.1823  0.5338
15101SOL     OW57280   6.003   9.687   3.618  0.7415 -0.1175  0.0252
15101SOL    HW157281   6.037   9.723   3.700 -1.4535 -1.0486  1.4332
15101SOL    HW257282   5.908   9.696   3.626  0.2912 -3.0481 -1.0409
15102SOL     OW57283   0.578   2.610   7.772 -0.2961  0.4141 -0.2700
15102SOL    HW157284   0.556   2.650   7.856 -3.3262  0.1973 -0.8543
15102SOL    HW257285   0.566   2.516   7.786 -1.6915  0.4307 -1.0965
15103SOL     OW57286   9.403   3.694   2.217  0.2135 -0.5160  0.1306
15103SOL    HW157287   9.387   3.699   2.311  0.8786  0.1034  0.2247
15103SOL    HW257288   9.493   3.663   2.209  0.3051 -0.1675 -0.2849
15104SOL     OW57289   3.137   1.598   1.565 -0.3833  0.1471 -0.1693
15104SOL    HW157290   3.073   1.529   1.578 -0.7601  0.6599  0.8343
15104SOL    HW257291   3.110   1.642   1.484 -2.3295  1.4087  1.0962
15105SOL     OW57292   2.326   9.034  10.251  0.1802 -1.0461 -0.2490
15105SOL    HW157293   2.419   9.024  10.230  0.1150 -1.2408 -0.4469
15105SOL    HW257294   2.324   9.054  10.344  0.6441  2.3220 -0.8516
15106SOL     OW57295   0.666   4.427   5.547 -0.1528 -0.1558  0.4889
15106SOL    HW157296   0.683   4.366   5.476 -1.0736 -1.1061  1.0642
15106SOL    HW257297   0.618   4.499   5.507  4.1796  2.2665 -1.0525
15107SOL     OW57298   5.659   9.380   3.719  0.0176 -0.1443  0.0452
15107SOL    HW157299   5.722   9.386   3.792 -0.1599  1.9252  0.0929
15107SOL    HW257300   5.695   9.438   3.652 -0.7159 -0.6775 -0.8266
15108SOL     OW57301   6.363   0.014   6.523  0.5742 -0.2681 -0.1406
15108SOL    HW157302   6.441  -0.029   6.558  0.5029 -0.9457 -0.7959
15108SOL    HW257303   6.393   0.056   6.442  0.6321  0.9015  0.4568
15109SOL     OW57304   8.298   8.378   5.899  0.2860  0.4636 -0.2794
15109SOL    HW157305   8.216   8.418   5.869  0.0113  0.4051  0.3733
15109SOL    HW257306   8.330   8.437   5.966  1.5786  1.2795 -1.5584
15110SOL     OW57307   7.623   9.388   0.855  0.3711 -0.0175 -0.4378
15110SOL    HW157308   7.535   9.350   0.858  0.8769 -1.3573 -1.3307
15110SOL    HW257309   7.642   9.397   0.762  0.7696  1.3249 -0.2496
15111SOL     OW57310   3.059   6.526   8.933  0.4202  0.0714 -0.2031
15111SOL    HW157311   3.074   6.614   8.900 -0.7543  0.1215 -0.6806
15111SOL    HW257312   2.968   6.507   8.910  0.0093 -0.4990  1.6417
15112SOL     OW57313   0.713   2.944   8.399  0.3455 -0.0607  0.7130
15112SOL    HW157314   0.690   3.035   8.418 -3.2238 -0.6299 -0.1055
15112SOL    HW257315   0.689   2.897   8.479  2.8189 -0.2770  1.3894
15113SOL     OW57316   4.018  10.293   7.768 -0.1884  0.2287  0.3311
15113SOL    HW157317   4.062  10.282   7.684  0.5904  1.2540  0.5737
15113SOL    HW257318   4.071  10.358   7.814 -0.2409 -0.7625  1.8673
15114SOL     OW57319   4.341   1.738   9.753  0.2743  0.0839  0.3278
15114SOL    HW157320   4.373   1.659   9.710 -0.6240  0.0201 -0.2465
15114SOL    HW257321   4.258   1.713   9.793  1.1808  0.0878  2.3327
15115SOL     OW57322   6.894   1.503   8.239 -0.3092  0.0889  0.0804
15115SOL    HW157323   6.873   1.589   8.202 -1.4859 -0.6559 -1.0565
15115SOL    HW257324   6.924   1.451   8.164 -0.2533 -0.6838  0.6285
15116SOL     OW57325   3.723   9.195   8.374 -0.0254 -0.0408 -0.2128
15116SOL    HW157326   3.742   9.289   8.370 -0.0394  0.0463  1.2441
15116SOL    HW257327   3.808   9.154   8.391 -0.4595  0.0579  2.7736
15117SOL     OW57328   4.823  10.253   0.366 -0.0548 -0.0003 -0.7845
15117SOL    HW157329   4.909  10.251   0.409  0.0027 -0.6957 -0.9221
15117SOL    HW257330   4.829  10.188   0.296 -0.8690 -0.4582 -0.4503
15118SOL     OW57331   2.426   1.365   8.023 -0.5041  0.5026 -0.0455
15118SOL    HW157332   2.473   1.341   8.103  0.2400  1.4507 -0.1798
15118SOL    HW257333   2.429   1.460   8.021 -0.5044  0.4872 -1.2099
15119SOL     OW57334   5.331   4.067   8.828 -0.1741  0.1213 -0.2834
15119SOL    HW157335   5.254   4.103   8.784 -0.0184 -1.0180 -1.5632
15119SOL    HW257336   5.311   4.074   8.921 -2.0348 -0.5689 -0.5839
15120SOL     OW57337   0.207   7.261   7.925 -0.1461 -0.1530 -0.3999
15120SOL    HW157338   0.258   7.342   7.927  0.3735 -0.4587  2.2067
15120SOL    HW257339   0.236   7.216   7.845  1.1338  1.2533 -0.7610
15121SOL     OW57340   5.833   5.770   3.005 -0.2642 -0.1901 -0.4852
15121SOL    HW157341   5.904   5.760   2.941  0.7937  1.2727  0.4051
15121SOL    HW257342   5.848   5.700   3.068  0.2802  0.0097 -0.3924
15122SOL     OW57343   6.976   8.253   7.940  0.6938 -1.2914 -0.3540
15122SOL    HW157344   7.070   8.252   7.957  0.5844 -3.0744  0.3746
15122SOL    HW257345   6.966   8.210   7.855  0.5387 -1.0434 -0.4627
15123SOL     OW57346   6.682   7.311   2.010 -0.1506 -0.4161 -0.0608
15123SOL    HW157347   6.636   7.384   2.049  1.9513  2.0156 -1.7884
15123SOL    HW257348   6.769   7.313   2.049 -0.0677 -2.1282 -0.0454
15124SOL     OW57349   2.737   1.353   8.660  0.8614  0.2166  0.2958
15124SOL    HW157350   2.830   1.375   8.673  0.3522  2.6235  0.1819
15124SOL    HW257351   2.738   1.287   8.590  2.4760  0.2419  0.2579
15125SOL     OW57352   1.815   2.364  10.017  0.2433  0.2430  0.3504
15125SOL    HW157353   1.850   2.306  10.084 -0.4782 -0.5705  0.0316
15125SOL    HW257354   1.728   2.388  10.048 -0.1313 -0.2102 -0.3212
15126SOL     OW57355   8.015   1.751   1.027 -0.8267  0.1384 -0.4204
15126SOL    HW157356   7.953   1.758   1.100  0.6277  1.1534  0.7899
15126SOL    HW257357   8.039   1.658   1.025 -0.9818  0.0686  0.3401
15127SOL     OW57358   3.341   0.305   5.296  0.0474  0.2432  0.4004
15127SOL    HW157359   3.354   0.211   5.308  0.5345  0.3028  0.3799
15127SOL    HW257360   3.403   0.329   5.227 -0.7070  0.4202 -0.2298
15128SOL     OW57361   3.830   0.590   8.384 -0.5007  0.3625  0.5514
15128SOL    HW157362   3.854   0.618   8.295  1.5976 -2.8418 -0.0889
15128SOL    HW257363   3.735   0.596   8.387 -0.5349  1.6545 -1.4944
15129SOL     OW57364   1.299   0.882   9.443 -0.3431  0.2547 -0.0187
15129SOL    HW157365   1.384   0.839   9.455  0.4297  1.5219 -0.7275
15129SOL    HW257366   1.269   0.901   9.532  1.0168  1.4372  0.2384
15130SOL     OW57367   1.105   9.446   4.840 -0.0431  0.4448 -0.1603
15130SOL    HW157368   1.194   9.435   4.874  0.0393 -0.0098 -0.5131
15130SOL    HW257369   1.102   9.537   4.812  0.2510  0.5136  0.0239
15131SOL     OW57370   5.709   8.847  10.225 -0.3969 -0.2265 -0.1439
15131SOL    HW157371   5.702   8.799  10.308  0.9107  0.5359  0.4410
15131SOL    HW257372   5.755   8.788  10.166 -0.2239 -0.3055  0.0696
15132SOL     OW57373   5.667   6.299   3.611  0.1923 -0.2541 -0.4649
15132SOL    HW157374   5.717   6.375   3.582  2.6447 -1.8779 -0.8400
15132SOL    HW257375   5.631   6.262   3.530 -1.0274  0.4990 -0.2791
15133SOL     OW57376   9.250   1.601   0.820  0.0537 -0.0667  0.3138
15133SOL    HW157377   9.300   1.671   0.862  0.5991 -0.0128 -0.4169
15133SOL    HW257378   9.166   1.641   0.796  0.5881  0.5126 -0.6383
15134SOL     OW57379   1.777   9.319   9.647 -0.4409 -0.5600 -0.0998
15134SOL    HW157380   1.737   9.285   9.728  0.5204 -1.4777  0.0181
15134SOL    HW257381   1.824   9.397   9.675  0.8849 -1.5309  0.5048
15135SOL     OW57382   2.608   9.205   5.731  0.4775 -0.1112 -0.0212
15135SOL    HW157383   2.518   9.211   5.762  0.5649 -0.5247  0.3216
15135SOL    HW257384   2.617   9.116   5.698  0.4526  0.2445 -1.0547
15136SOL     OW57385   9.768   4.295   0.509  0.1962 -0.4663 -0.3806
15136SOL    HW157386   9.833   4.272   0.441  0.8229 -0.7736  0.3094
15136SOL    HW257387   9.692   4.324   0.459  0.0993 -2.0905 -1.2796
15137SOL     OW57388   9.368   1.803   8.423 -0.1362 -0.0166 -0.0414
15137SOL    HW157389   9.339   1.762   8.342  0.6682 -0.6166 -0.0469
15137SOL    HW257390   9.349   1.738   8.491  2.1636 -0.9557 -0.1853
15138SOL     OW57391   0.928   8.263   1.415 -0.2099 -0.4368 -0.8422
15138SOL    HW157392   0.940   8.350   1.454  2.7837 -1.2637  0.3808
15138SOL    HW257393   1.009   8.217   1.435 -1.2200 -3.1514 -2.4999
15139SOL     OW57394   1.116   2.770   7.536 -0.0173 -0.2380 -0.3610
15139SOL    HW157395   1.074   2.807   7.458  0.6357  0.1880 -0.5183
15139SOL    HW257396   1.105   2.676   7.526 -2.0602 -0.1218  0.2423
15140SOL     OW57397   3.543   0.044   4.759 -0.4157 -0.4013 -0.3256
15140SOL    HW157398   3.616   0.069   4.703 -0.2704  0.1516  0.0998
15140SOL    HW257399   3.553  -0.051   4.771  0.5306 -0.2515  0.1415
15141SOL     OW57400   0.809   0.812   1.737 -0.5597  0.0377  0.1348
15141SOL    HW157401   0.806   0.777   1.826 -0.2211 -0.8003 -0.1778
15141SOL    HW257402   0.721   0.797   1.703 -0.3164 -0.8524 -0.1206
15142SOL     OW57403   2.694   1.645   9.086  0.6662  0.2075 -0.1845
15142SOL    HW157404   2.646   1.633   9.004 -1.6936  0.1366  1.1233
15142SOL    HW257405   2.721   1.737   9.084 -1.9751  1.0692  0.1953
15143SOL     OW57406   2.307   7.577   9.120 -1.0989  0.0734  0.4833
15143SOL    HW157407   2.309   7.522   9.199 -1.0455  0.0792  0.4857
15143SOL    HW257408   2.301   7.515   9.048 -0.5046  0.0444  0.4558
15144SOL     OW57409   9.780   4.795   9.351 -0.2424 -0.6941 -0.0953
15144SOL    HW157410   9.872   4.778   9.374 -0.2333 -0.9192 -0.2884
15144SOL    HW257411   9.739   4.708   9.350 -0.2444 -0.6978 -0.8916
15145SOL     OW57412   4.037   3.137   7.059  0.0081  0.5400 -0.1043
15145SOL    HW157413   4.068   3.113   7.146  1.4106  3.5599  0.3558
15145SOL    HW257414   3.943   3.151   7.070  0.0141  0.0222  0.6956
15146SOL     OW57415   8.395   5.318   0.606  0.1053  0.6871  0.0583
15146SOL    HW157416   8.361   5.321   0.695 -0.5399  0.5967 -0.1775
15146SOL    HW257417   8.490   5.311   0.617 -0.0811 -1.8289  0.7908
15147SOL     OW57418   8.329   9.313   2.900 -0.2295  0.1454 -0.0561
15147SOL    HW157419   8.339   9.381   2.967  0.0852  1.3663 -1.3018
15147SOL    HW257420   8.418   9.293   2.873 -0.4233  1.5335 -1.8952
15148SOL     OW57421  10.344   1.137   4.471 -0.7269  0.0746 -0.4310
15148SOL    HW157422  10.375   1.081   4.542 -1.8701  0.8476  0.7411
15148SOL    HW257423  10.373   1.094   4.391 -2.2812 -2.6948  0.3512
15149SOL     OW57424   3.911   9.267   1.128  0.3029 -0.1694  0.7286
15149SOL    HW157425   3.928   9.178   1.157 -1.6903  0.0248  2.7790
15149SOL    HW257426   3.816   9.273   1.119  0.4322  1.5533 -0.1205
15150SOL     OW57427   9.292   5.881   4.707 -0.1871  0.3799 -0.3668
15150SOL    HW157428   9.264   5.937   4.635 -0.0828  2.3713  1.0522
15150SOL    HW257429   9.211   5.851   4.747 -0.2439 -0.1110 -0.8404
15151SOL     OW57430   8.173   1.143   5.277  0.3135  0.0097  0.5843
15151SOL    HW157431   8.161   1.057   5.237 -0.8514 -0.2610  1.4533
15151SOL    HW257432   8.084   1.173   5.297  0.5429  2.2064 -1.2579
15152SOL     OW57433   7.315   1.376   9.518  0.5468 -0.0184  0.0100
15152SOL    HW157434   7.375   1.376   9.444 -0.0676 -0.3346 -0.4986
15152SOL    HW257435   7.354   1.315   9.581  1.9157  1.4748  0.6682
15153SOL     OW57436  10.307   9.899   8.200  0.0818  0.0762  0.0317
15153SOL    HW157437  10.356   9.896   8.283 -2.0751 -0.6467  1.3760
15153SOL    HW257438  10.237   9.962   8.216  0.2494  0.7374 -1.6607
15154SOL     OW57439   6.350   0.718   5.229 -0.7364 -0.0361  0.1427
15154SOL    HW157440   6.310   0.648   5.178  0.2566  0.0237 -0.7484
15154SOL    HW257441   6.423   0.676   5.275  0.0391  0.4396 -0.6151
15155SOL     OW57442   4.975   7.754   5.758 -0.3118  0.5227 -0.3928
15155SOL    HW157443   5.006   7.808   5.831 -1.0809 -1.2880  1.3781
15155SOL    HW257444   4.892   7.795   5.731 -0.5317  0.6522  0.4506
15156SOL     OW57445   8.817   5.012   5.438  0.1572 -0.4779 -0.8781
15156SOL    HW157446   8.740   5.058   5.404  0.3533  1.2054  0.7569
15156SOL    HW257447   8.792   4.989   5.528  1.1686 -0.8999 -0.6974
15157SOL     OW57448   7.267   1.299   7.479 -0.9999  0.2909 -0.3173
15157SOL    HW157449   7.307   1.223   7.437 -3.2121 -0.5658 -0.9799
15157SOL    HW257450   7.207   1.262   7.544 -0.9293  1.5237  0.4790
15158SOL     OW57451   4.749   0.262   2.892 -0.7267 -0.4125  0.1196
15158SOL    HW157452   4.778   0.337   2.943 -1.4832  0.1474 -0.2509
15158SOL    HW257453   4.819   0.197   2.902  0.2835  0.6172 -0.1781
15159SOL     OW57454   7.421   0.144   0.633  0.0536 -0.2805 -0.5692
15159SOL    HW157455   7.370   0.217   0.597  0.1062 -0.3853 -0.8593
15159SOL    HW257456   7.355   0.089   0.676  0.1113  0.3216  0.3092
15160SOL     OW57457   0.327   6.793   3.385 -0.1284 -0.4440 -0.0464
15160SOL    HW157458   0.262   6.863   3.382 -0.1178 -0.4247  0.1407
15160SOL    HW257459   0.303   6.742   3.462  1.1040  0.5746  1.0839
15161SOL     OW57460   6.852   3.434   2.913 -0.5462  0.3159  0.2723
15161SOL    HW157461   6.838   3.346   2.947 -1.2670 -0.0168 -0.8230
15161SOL    HW257462   6.945   3.437   2.890 -0.8902 -0.8804 -1.5296
15162SOL     OW57463   8.182   6.379   1.990 -0.4958 -0.8785 -0.0903
15162SOL    HW157464   8.269   6.362   1.954  0.7267  1.3324  1.5642
15162SOL    HW257465   8.147   6.451   1.937 -0.4786 -0.4444  0.4829
15163SOL     OW57466   2.204   1.434   2.243  0.0412  0.2716  0.0535
15163SOL    HW157467   2.127   1.489   2.233  0.0349  0.2684  0.0828
15163SOL    HW257468   2.266   1.488   2.292 -0.0239  0.1960  0.2191
15164SOL     OW57469   7.328   8.253   3.391  0.4788  0.8396 -0.3025
15164SOL    HW157470   7.233   8.254   3.407  0.5707  0.6473  0.2832
15164SOL    HW257471   7.366   8.232   3.476  1.0035 -0.1937 -0.7745
15165SOL     OW57472   2.364   2.589   9.900  0.1622  0.0163 -0.6426
15165SOL    HW157473   2.329   2.606   9.987 -1.6942  1.9720 -1.6764
15165SOL    HW257474   2.363   2.674   9.856  0.5874 -0.9786 -2.7319
15166SOL     OW57475   1.051   7.808   2.228  0.2171  0.3257 -0.4405
15166SOL    HW157476   1.050   7.868   2.302  2.0703 -1.0835  0.8147
15166SOL    HW257477   1.042   7.865   2.151  0.2369  2.0293  0.7573
15167SOL     OW57478   9.552   1.462   1.379 -0.2333 -0.1155  0.0176
15167SOL    HW157479   9.503   1.508   1.310 -1.9977 -0.3416  1.0738
15167SOL    HW257480   9.642   1.461   1.346 -0.6362  1.5979 -1.3350
15168SOL     OW57481   0.577   0.592   8.805 -0.3248 -0.0833 -0.3840
15168SOL    HW157482   0.612   0.680   8.816 -0.5610 -0.0232 -0.1157
15168SOL    HW257483   0.495   0.592   8.853  0.5425 -0.9920  1.1915
15169SOL     OW57484   6.227   2.470   8.143  0.1859 -0.2029  0.5244
15169SOL    HW157485   6.273   2.511   8.070 -0.0712  1.8480  1.4577
15169SOL    HW257486   6.291   2.410   8.181  0.6886 -0.4606 -0.6916
15170SOL     OW57487   2.419   7.242   4.349  0.0273  0.1598  0.2089
15170SOL    HW157488   2.390   7.158   4.386 -0.3349  0.2908  0.2317
15170SOL    HW257489   2.348   7.303   4.371 -0.1796  0.2448 -0.6783
15171SOL     OW57490   3.031   9.406   2.891  0.4354  0.7958 -0.4591
15171SOL    HW157491   2.935   9.408   2.896  0.3705 -1.7581  1.4444
15171SOL    HW257492   3.060   9.475   2.951 -0.3194 -0.3161  1.2909
15172SOL     OW57493   5.943   8.807   2.887 -0.1567 -0.5983  0.0428
15172SOL    HW157494   5.869   8.748   2.894 -1.1855  0.7144  0.5749
15172SOL    HW257495   5.958   8.839   2.976  0.8581 -0.5956 -0.1083
15173SOL     OW57496   1.760   3.234   0.495  0.3021  0.4176 -0.2939
15173SOL    HW157497   1.711   3.210   0.417 -0.0756  0.9884 -0.2442
15173SOL    HW257498   1.785   3.326   0.480  0.1366  0.5658  0.2922
15174SOL     OW57499   1.310   7.093   9.734 -0.1593  0.0728  0.1329
15174SOL    HW157500   1.370   7.042   9.788 -0.5816  0.0356  0.5690
15174SOL    HW257501   1.225   7.051   9.746 -0.8159  1.6877  1.6124
15175SOL     OW57502   0.047   0.604   7.027  0.5214  0.1439 -0.1381
15175SOL    HW157503  -0.037   0.643   7.050  0.7014 -1.1537  3.2029
15175SOL    HW257504   0.111   0.675   7.039  0.3373  0.0658  1.5811
15176SOL     OW57505   9.802  10.189   9.443  0.1829  0.1170  0.0965
15176SOL    HW157506   9.812  10.266   9.388 -1.4591  1.2433  1.2714
15176SOL    HW257507   9.884  10.184   9.494  0.5153  0.7686 -0.3652
15177SOL     OW57508   3.634   8.115   2.701  0.4083  0.8417 -0.1521
15177SOL    HW157509   3.654   8.190   2.757  1.4648  0.8498 -0.5101
15177SOL    HW257510   3.551   8.082   2.733  0.0170  2.0598  0.1345
15178SOL     OW57511   5.154   1.668   7.409 -0.1701  0.3170 -0.3517
15178SOL    HW157512   5.162   1.695   7.500 -2.9520  2.9100 -0.7311
15178SOL    HW257513   5.077   1.611   7.407  1.0412 -1.3875 -0.8439
15179SOL     OW57514   6.237   6.587   6.336  0.3377 -0.4571  0.8421
15179SOL    HW157515   6.175   6.523   6.369  0.8874 -0.5789  1.6621
15179SOL    HW257516   6.203   6.672   6.366  0.2981 -0.4816  0.8651
15180SOL     OW57517   9.932   3.776   1.253  0.1679 -0.3298  0.2485
15180SOL    HW157518   9.859   3.836   1.238 -1.3851 -1.4857  2.5888
15180SOL    HW257519   9.916   3.703   1.193 -0.2447 -0.2876  0.3075
15181SOL     OW57520   1.303   1.430   8.578 -0.1126 -0.1287 -1.5000
15181SOL    HW157521   1.364   1.362   8.605  1.1735  1.5616  0.1616
15181SOL    HW257522   1.220   1.385   8.565  0.8087 -2.0580 -0.9434
15182SOL     OW57523   1.429   9.593   6.970 -0.1243 -0.5291  0.4449
15182SOL    HW157524   1.376   9.659   7.015 -0.4099 -0.1483 -0.4227
15182SOL    HW257525   1.420   9.615   6.877 -0.3028 -1.8466  0.1297
15183SOL     OW57526   4.867   1.599   6.961 -0.9057  0.2587  0.0333
15183SOL    HW157527   4.824   1.593   6.876  2.3595  0.9484 -1.8448
15183SOL    HW257528   4.904   1.512   6.976 -4.2553 -0.9378  2.5851
15184SOL     OW57529   2.034   4.018   1.135 -0.4639 -0.1142  0.5786
15184SOL    HW157530   2.037   4.038   1.229 -1.3895 -1.7754  1.0005
15184SOL    HW257531   1.966   4.077   1.100 -0.8607 -0.2149  1.1661
15185SOL     OW57532   8.700   0.580   8.952  0.1403  0.2649  0.3492
15185SOL    HW157533   8.765   0.603   8.885 -1.1273  1.7066 -0.4460
15185SOL    HW257534   8.745   0.517   9.008  1.9411  0.5828 -0.6550
15186SOL     OW57535   2.820   2.481   5.129  0.2964 -0.6301 -0.2856
15186SOL    HW157536   2.893   2.420   5.118  0.3825 -1.1072  2.2587
15186SOL    HW257537   2.745   2.435   5.090  1.0678 -0.6820 -1.7750
15187SOL     OW57538   9.828   6.804   0.961  0.2716 -0.4676 -0.7988
15187SOL    HW157539   9.880   6.724   0.967  1.9422  0.5042 -1.3753
15187SOL    HW257540   9.769   6.800   1.035  2.0336 -1.0973  0.6550
15188SOL     OW57541   1.990   4.768   9.923 -0.0534 -0.4342  0.2551
15188SOL    HW157542   2.044   4.804   9.994 -0.3055  0.5516 -0.0317
15188SOL    HW257543   1.900   4.784   9.951 -0.1567 -0.1797 -0.2031
15189SOL     OW57544   4.503   1.007   2.000  0.2033  0.5321 -0.1605
15189SOL    HW157545   4.595   1.028   2.016  0.2777 -1.1395  2.1443
15189SOL    HW257546   4.459   1.032   2.081 -1.4863  1.6857 -1.3778
15190SOL     OW57547   0.209   0.434   3.395  0.0594 -0.6451  0.4034
15190SOL    HW157548   0.150   0.366   3.427 -1.5836  0.4566 -0.1873
15190SOL    HW257549   0.260   0.391   3.327 -1.1414 -1.2313 -0.1431
15191SOL     OW57550   3.822   1.001   2.960  0.8346 -0.9068 -0.3114
15191SOL    HW157551   3.753   0.966   3.016  1.5209 -1.5959  0.1068
15191SOL    HW257552   3.897   0.945   2.976  1.3423 -0.4805 -1.1613
15192SOL     OW57553   6.789   6.187   9.092 -0.0164  0.3416  0.3404
15192SOL    HW157554   6.717   6.167   9.033 -0.4389  0.1128  0.9260
15192SOL    HW257555   6.821   6.273   9.063  0.1306 -0.0095 -0.5533
15193SOL     OW57556   8.889   9.312   8.435 -0.7361 -0.0738 -0.0132
15193SOL    HW157557   8.896   9.217   8.444  0.7765 -0.1476 -1.4550
15193SOL    HW257558   8.812   9.324   8.379 -0.5569 -0.5033 -0.3676
15194SOL     OW57559   2.698   4.821   6.141 -0.4338  0.5865 -0.0959
15194SOL    HW157560   2.712   4.766   6.217  0.9001 -1.0250 -1.4178
15194SOL    HW257561   2.664   4.903   6.176 -1.3024 -0.6237  2.0562
15195SOL     OW57562  10.221   7.994   7.134  0.0280 -0.2245 -0.4318
15195SOL    HW157563  10.310   8.025   7.146 -0.4792  1.0663  0.1574
15195SOL    HW257564  10.170   8.041   7.200 -1.4838  0.8591 -2.2848
15196SOL     OW57565   5.001   1.316   5.541 -0.0542  0.2279  0.4343
15196SOL    HW157566   5.062   1.243   5.551 -1.0392 -0.5147  1.4231
15196SOL    HW257567   5.036   1.384   5.598  1.7404  1.1982 -1.6932
15197SOL     OW57568   0.300   3.252   6.217  0.1629  0.4376  0.0903
15197SOL    HW157569   0.245   3.290   6.149  3.0400  0.7596 -2.2434
15197SOL    HW257570   0.336   3.173   6.176  0.0587 -0.7706  2.2040
15198SOL     OW57571   4.204   1.577   7.932  0.4981  0.5317  0.6821
15198SOL    HW157572   4.158   1.565   8.015 -1.2142  1.1791 -0.1382
15198SOL    HW257573   4.239   1.666   7.937  0.2408  0.6356  0.6304
15199SOL     OW57574   2.206   9.429   6.187  0.0020  0.3147  0.4784
15199SOL    HW157575   2.230   9.500   6.247  0.2506  0.7913 -0.1796
15199SOL    HW257576   2.110   9.427   6.190  0.0248  0.0450  1.2185
15200SOL     OW57577   1.821   1.980   3.050  0.0381 -0.1024 -0.1953
15200SOL    HW157578   1.903   2.002   3.093 -1.4110 -0.0485  2.7616
15200SOL    HW257579   1.805   1.889   3.074 -1.4227  0.2959  0.4130
15201SOL     OW57580   6.844   0.961   1.028  0.1378 -0.4946 -0.1912
15201SOL    HW157581   6.897   0.982   0.951  0.7809 -3.1850 -0.5696
15201SOL    HW257582   6.899   0.901   1.079 -0.9769 -0.1319  1.5305
15202SOL     OW57583   6.142   8.451   8.598 -0.1305  0.0159 -0.0792
15202SOL    HW157584   6.215   8.389   8.587 -1.2485 -1.3181 -0.2172
15202SOL    HW257585   6.106   8.429   8.684  0.0597  1.1421  0.2947
15203SOL     OW57586   7.598   6.313   6.604  0.3279 -0.1817 -0.4029
15203SOL    HW157587   7.531   6.373   6.636 -0.8069 -1.0819 -1.0052
15203SOL    HW257588   7.574   6.298   6.512  0.9033 -1.1054 -0.4115
15204SOL     OW57589   2.552   6.791   1.559 -0.4809  0.2043  0.3620
15204SOL    HW157590   2.641   6.819   1.583  0.5215 -1.1104 -1.4941
15204SOL    HW257591   2.514   6.758   1.641  1.0450  0.0820  1.0652
15205SOL     OW57592   0.054   9.848   8.436 -0.3150 -0.1047 -0.1552
15205SOL    HW157593   0.095   9.928   8.469 -1.6904  0.1005  1.1513
15205SOL    HW257594   0.120   9.810   8.378  0.7591  1.4449 -0.0173
15206SOL     OW57595   1.015   8.852   3.375  0.5630  0.1479 -0.7341
15206SOL    HW157596   1.013   8.799   3.455  0.9234  0.3899 -0.5643
15206SOL    HW257597   0.973   8.796   3.309 -0.8022  0.3991 -0.1105
15207SOL     OW57598   4.470   4.176   9.507 -0.6488 -0.0003 -0.3162
15207SOL    HW157599   4.437   4.102   9.456  2.0069 -0.6381 -1.2299
15207SOL    HW257600   4.445   4.253   9.456 -2.3903 -0.2770  0.0413
15208SOL     OW57601   0.285   8.838   8.121 -0.2787 -0.7497 -0.3568
15208SOL    HW157602   0.296   8.896   8.196 -1.1018  2.7992 -2.7057
15208SOL    HW257603   0.362   8.853   8.067 -1.2729 -0.5109 -1.7800
15209SOL     OW57604   2.525  10.288   7.056 -0.7245  0.2073  0.0462
15209SOL    HW157605   2.484  10.259   7.138  1.0315 -0.7485  0.6366
15209SOL    HW257606   2.523  10.211   6.999 -0.7128  0.4714 -0.3167
15210SOL     OW57607   3.345   9.283  10.051 -0.1566  0.1809  0.3346
15210SOL    HW157608   3.437   9.257  10.042  0.3356  1.4500  1.3013
15210SOL    HW257609   3.342   9.328  10.136 -1.2333  1.9196 -0.5704
15211SOL     OW57610   5.606   3.001   9.118 -0.3639 -0.1618  0.0676
15211SOL    HW157611   5.520   3.015   9.158 -0.7177 -0.8068 -0.4384
15211SOL    HW257612   5.597   2.917   9.072  0.6589 -0.4161  0.3210
15212SOL     OW57613   7.952   4.861   5.319 -0.2551 -0.6757 -0.3212
15212SOL    HW157614   7.938   4.886   5.227 -2.4868  1.7962  0.5477
15212SOL    HW257615   8.016   4.925   5.351 -1.3171  0.0537  0.3997
15213SOL     OW57616   0.832   8.057   8.649  0.2101 -0.0129  0.3004
15213SOL    HW157617   0.790   7.995   8.589  2.7067 -1.2024 -0.3839
15213SOL    HW257618   0.898   8.100   8.595  1.7056 -0.2222  1.8791
15214SOL     OW57619   5.415   8.920   6.348 -0.2515 -0.2737  0.2177
15214SOL    HW157620   5.383   9.009   6.361  2.1761  0.5747  0.8060
15214SOL    HW257621   5.451   8.920   6.259 -1.2234 -1.0469 -0.2078
15215SOL     OW57622   3.828   0.439   2.464  0.3479  0.4951  0.1465
15215SOL    HW157623   3.798   0.348   2.463  0.1784  0.5118 -1.9995
15215SOL    HW257624   3.748   0.491   2.455  0.5297  0.8077  0.3093
15216SOL     OW57625   8.190   9.868   0.699  0.5357  0.3016  0.6270
15216SOL    HW157626   8.149   9.950   0.671 -0.3835 -0.1916  0.4688
15216SOL    HW257627   8.200   9.878   0.793  1.3170  0.9679  0.4876
15217SOL     OW57628   5.109   8.317   4.732  0.5266  0.1252 -0.6628
15217SOL    HW157629   5.126   8.410   4.721 -1.8528  0.8054  0.6470
15217SOL    HW257630   5.016   8.312   4.755 -0.0584 -2.7560 -2.9460
15218SOL     OW57631   6.732   2.511   4.736 -0.2950  0.1838  0.2280
15218SOL    HW157632   6.642   2.509   4.768 -0.1432  0.5389  0.6926
15218SOL    HW257633   6.773   2.434   4.776 -0.9130 -1.2042 -1.6335
15219SOL     OW57634   7.692  10.055  10.377  0.3068  0.2313 -0.3043
15219SOL    HW157635   7.697  10.009  10.294 -1.3893 -0.8584  0.1417
15219SOL    HW257636   7.774  10.033  10.422  1.0052  0.4260 -1.4561
15220SOL     OW57637   7.746   4.505   0.844 -0.6865  0.2124  0.1728
15220SOL    HW157638   7.725   4.578   0.786  1.1755 -0.1921 -1.1033
15220SOL    HW257639   7.669   4.448   0.840 -1.2434  0.9900 -0.5990
15221SOL     OW57640   7.446   4.165   5.336  0.3627  0.2405 -0.3917
15221SOL    HW157641   7.485   4.249   5.359  0.6982  0.1530 -0.6326
15221SOL    HW257642   7.425   4.125   5.420  2.2363 -0.3864 -0.1590
15222SOL     OW57643   2.832   9.844   2.477 -0.4892 -0.0971  0.0049
15222SOL    HW157644   2.791   9.923   2.512  0.7203  0.3327  0.5074
15222SOL    HW257645   2.908   9.829   2.533  0.1722 -0.7360 -1.0230
15223SOL     OW57646   8.260   2.506   7.404  0.1763  0.0067  0.6433
15223SOL    HW157647   8.218   2.592   7.398 -1.2690 -0.6579  0.8108
15223SOL    HW257648   8.286   2.498   7.496  1.7466  0.8756  0.3154
15224SOL     OW57649   3.525   2.381   9.001 -0.2237  0.3153  0.6601
15224SOL    HW157650   3.586   2.338   9.061  0.4719  0.0045 -0.2433
15224SOL    HW257651   3.572   2.458   8.969 -0.3671  0.1818  0.1071
15225SOL     OW57652   1.163   8.873   5.284  0.1977 -0.5519 -0.3588
15225SOL    HW157653   1.240   8.824   5.311 -1.1589 -1.5500  2.0010
15225SOL    HW257654   1.174   8.959   5.324 -0.0954 -0.8399  0.3574
15226SOL     OW57655   4.121   1.371   9.613  0.1947  0.3869 -0.5402
15226SOL    HW157656   4.034   1.367   9.575  0.3767  0.6730 -0.9914
15226SOL    HW257657   4.132   1.286   9.656  0.7338 -0.7680 -2.7760
15227SOL     OW57658   1.191   3.196   6.527  0.6001 -0.1284 -0.1598
15227SOL    HW157659   1.281   3.213   6.555  0.6835  1.1484 -1.1382
15227SOL    HW257660   1.164   3.275   6.481 -1.3322 -0.1196  0.8417
15228SOL     OW57661   1.171   7.203   6.538  0.0274 -0.7422 -0.1575
15228SOL    HW157662   1.111   7.139   6.500 -0.0121 -0.5421 -0.4306
15228SOL    HW257663   1.177   7.178   6.630 -2.7634  0.9592  0.6021
15229SOL     OW57664   2.216   3.337   1.775 -0.1273  0.0385  0.0710
15229SOL    HW157665   2.283   3.340   1.707  1.0750 -1.1891  1.1359
15229SOL    HW257666   2.133   3.354   1.729  0.9108  1.8922 -1.2246
15230SOL     OW57667   7.396  10.013   2.107 -0.2768 -0.1444 -0.1305
15230SOL    HW157668   7.478   9.983   2.147 -0.9064 -1.5394  0.1800
15230SOL    HW257669   7.335  10.019   2.181  0.2786  3.8749  0.1763
15231SOL     OW57670   0.191   2.758   1.506  0.0629 -0.1091  0.4277
15231SOL    HW157671   0.118   2.763   1.444 -1.7389 -1.2494  2.3474
15231SOL    HW257672   0.264   2.800   1.460 -1.0436 -1.2290 -2.5934
15232SOL     OW57673   6.678   3.023   2.040 -0.1425 -0.0688 -0.0588
15232SOL    HW157674   6.610   3.072   1.993  0.8012  1.7506  0.3678
15232SOL    HW257675   6.760   3.053   2.001  0.4782 -1.4900  0.0972
15233SOL     OW57676   5.252   1.553   9.249 -0.0934 -0.0452 -0.2225
15233SOL    HW157677   5.292   1.506   9.176 -0.8492  0.6100 -1.0920
15233SOL    HW257678   5.325   1.599   9.291  0.2138  0.3917 -1.2053
15234SOL     OW57679   6.185   4.446   2.266 -0.0015  0.2543 -0.0411
15234SOL    HW157680   6.164   4.372   2.323 -1.2704  0.3542 -0.3601
15234SOL    HW257681   6.117   4.510   2.282 -0.1244  0.4777 -1.3130
15235SOL     OW57682   3.397   6.385   8.891  0.2272 -1.1821  0.6833
15235SOL    HW157683   3.459   6.387   8.964 -1.3948 -0.2026  2.0985
15235SOL    HW257684   3.328   6.326   8.921 -0.3224 -0.9844 -0.1828
15236SOL     OW57685   8.519   2.399   1.658  0.0880  0.5970  0.0797
15236SOL    HW157686   8.590   2.439   1.607  0.4681 -0.0197  0.1188
15236SOL    HW257687   8.496   2.320   1.610 -0.4278  0.6810  0.1853
15237SOL     OW57688   2.080   6.948   7.584 -0.1970  0.2187  0.4556
15237SOL    HW157689   2.150   6.950   7.650 -0.2720 -1.0719  0.6010
15237SOL    HW257690   2.124   6.919   7.504 -0.4565 -0.0247  0.4005
15238SOL     OW57691   6.290   5.485   8.474 -0.4668 -0.4620 -0.3468
15238SOL    HW157692   6.242   5.405   8.498  0.1457 -0.9202 -0.6311
15238SOL    HW257693   6.248   5.514   8.392 -0.6864 -0.4921 -0.2461
15239SOL     OW57694   4.638   1.404   0.724  0.0261  0.0825  0.0905
15239SOL    HW157695   4.726   1.383   0.691 -0.3689 -0.5541 -0.5799
15239SOL    HW257696   4.606   1.321   0.761 -0.2826  0.3231  0.3689
15240SOL     OW57697   1.714   2.203   7.379 -0.0447 -0.4971 -0.3382
15240SOL    HW157698   1.631   2.233   7.415 -0.3136  0.3534 -1.5722
15240SOL    HW257699   1.723   2.113   7.409 -1.5776 -0.7076 -0.4352
15241SOL     OW57700   5.624   3.894   2.017 -0.1913 -0.2483  0.4102
15241SOL    HW157701   5.559   3.832   1.983 -0.4490  0.7056 -0.9379
15241SOL    HW257702   5.663   3.850   2.092  0.3081 -2.4238 -1.0520
15242SOL     OW57703   2.602   1.256   7.072 -0.6590 -0.3111  0.1914
15242SOL    HW157704   2.693   1.282   7.059 -0.9891  1.5397  1.1497
15242SOL    HW257705   2.565   1.254   6.984  0.1136 -0.2954 -0.1409
15243SOL     OW57706   8.313   3.020   3.599  0.7707 -0.0523  0.2449
15243SOL    HW157707   8.217   3.023   3.603  0.8217  0.2057  1.3966
15243SOL    HW257708   8.332   2.938   3.552 -0.0215  0.8275 -1.7282
15244SOL     OW57709   9.921   9.703   5.942  0.6148 -0.4938  0.2289
15244SOL    HW157710   9.885   9.697   6.030 -2.0149 -0.9182 -0.7917
15244SOL    HW257711   9.891   9.623   5.898  2.0362 -0.3995 -1.0262
15245SOL     OW57712   6.961   9.770   5.702 -0.5250 -0.1004  0.0403
15245SOL    HW157713   7.056   9.779   5.711 -0.1631 -1.1681 -2.0944
15245SOL    HW257714   6.931   9.857   5.676 -0.6284  1.0470  3.4934
15246SOL     OW57715   5.906   1.709   6.175 -0.6889 -0.4173 -0.0074
15246SOL    HW157716   5.905   1.716   6.270 -1.5860  0.1400 -0.0462
15246SOL    HW257717   5.860   1.787   6.145  1.1319  0.3544 -0.9719
15247SOL     OW57718   8.993   2.010   4.494  0.2205 -0.7545 -0.4096
15247SOL    HW157719   9.080   2.048   4.482  0.0648 -0.0148  0.6309
15247SOL    HW257720   8.991   1.935   4.435  1.5836 -0.8104 -0.4148
15248SOL     OW57721   8.206   9.548   1.747 -0.5430 -0.5639  0.2481
15248SOL    HW157722   8.231   9.615   1.810  1.1708 -0.7298 -0.1898
15248SOL    HW257723   8.218   9.465   1.794  1.8197 -0.7520 -0.5338
15249SOL     OW57724  10.163   7.202   2.526  0.3036  0.4846  0.2517
15249SOL    HW157725  10.189   7.134   2.588 -2.4529 -1.0091 -0.0654
15249SOL    HW257726  10.070   7.215   2.543 -0.0991  1.4112 -2.3002
15250SOL     OW57727  10.296   0.313   1.790  0.5425  0.7378  0.2948
15250SOL    HW157728  10.286   0.368   1.868 -0.5728  1.4226 -0.3064
15250SOL    HW257729  10.258   0.365   1.719 -0.5456 -0.7962 -0.2978
15251SOL     OW57730   3.284   6.385   2.559  0.1815  0.2164 -0.0075
15251SOL    HW157731   3.240   6.308   2.522  1.5736 -0.5597 -0.1016
15251SOL    HW257732   3.252   6.458   2.507 -0.7332 -0.3667 -0.2910
15252SOL     OW57733   5.157   0.395   0.637  0.1832  0.2576  0.3243
15252SOL    HW157734   5.126   0.359   0.720 -0.7347 -2.0681 -0.9198
15252SOL    HW257735   5.096   0.466   0.617 -2.5304 -2.0835 -0.4566
15253SOL     OW57736   7.827   4.470   1.109  0.0103  0.4678  0.1086
15253SOL    HW157737   7.817   4.482   1.014  0.3935 -1.4081 -0.1950
15253SOL    HW257738   7.746   4.427   1.136  0.5566 -0.4172  0.3584
15254SOL     OW57739   1.426   1.736   1.285  0.0719 -0.0746  0.4404
15254SOL    HW157740   1.353   1.690   1.243 -0.2251  0.8021 -0.0164
15254SOL    HW257741   1.482   1.665   1.318 -1.3398 -0.7708  1.4758
15255SOL     OW57742   2.919   0.698   6.470 -0.2940 -0.1043  0.4380
15255SOL    HW157743   3.001   0.710   6.423  0.0031 -0.5493  0.8313
15255SOL    HW257744   2.945   0.677   6.560 -0.8590  1.7729  1.0812
15256SOL     OW57745   6.048   5.675   6.035  0.4649  0.3400  0.0726
15256SOL    HW157746   6.092   5.723   6.106  0.9530 -0.2279  0.1633
15256SOL    HW257747   6.006   5.744   5.983  0.1650  0.7733  0.8579
15257SOL     OW57748   9.491   8.504   5.160 -0.0278  0.1694 -0.3965
15257SOL    HW157749   9.432   8.537   5.228 -0.4119  0.4371 -0.8587
15257SOL    HW257750   9.554   8.449   5.208  0.2150  1.0210  0.2849
15258SOL     OW57751   1.137   7.421   6.801  0.4866 -0.4756  0.0567
15258SOL    HW157752   1.062   7.429   6.742  1.0287  0.0589 -0.5695
15258SOL    HW257753   1.161   7.329   6.797  0.5235 -0.4440 -0.5703
15259SOL     OW57754   7.195   3.593   8.641  0.2870 -0.0730  0.0516
15259SOL    HW157755   7.223   3.534   8.572  1.0134 -0.9580  1.0778
15259SOL    HW257756   7.228   3.679   8.614 -0.8396 -0.0846 -1.4807
15260SOL     OW57757   7.328   2.654   3.866  0.7413  0.4823 -0.4391
15260SOL    HW157758   7.343   2.691   3.953 -0.7450 -1.5926  0.7924
15260SOL    HW257759   7.264   2.712   3.826 -0.1263  0.3399  0.6919
15261SOL     OW57760   1.170   5.331   5.949  0.3471 -0.1589 -0.1631
15261SOL    HW157761   1.239   5.348   6.013  0.7893  0.3267 -0.7605
15261SOL    HW257762   1.216   5.300   5.871  0.2529  2.9963 -1.6341
15262SOL     OW57763   7.034   1.872   0.029 -0.1457 -0.4902  0.5126
15262SOL    HW157764   7.032   1.781  -0.001  0.9823 -0.3364 -0.0961
15262SOL    HW257765   6.965   1.878   0.095 -1.9204 -1.1513 -1.1912
15263SOL     OW57766   0.997   8.415   9.308 -0.1170 -0.2411  0.0126
15263SOL    HW157767   0.934   8.488   9.304  0.1121 -0.0818 -1.1627
15263SOL    HW257768   0.962   8.351   9.247  1.6653  0.5362 -1.9426
15264SOL     OW57769   5.333   2.232   2.150  0.5360  0.1159  0.5337
15264SOL    HW157770   5.260   2.218   2.211  0.6289  0.2402  0.6759
15264SOL    HW257771   5.310   2.181   2.072  0.5024 -0.1928  0.7431
15265SOL     OW57772   9.329   6.111   1.426 -0.7033  0.0957  0.0335
15265SOL    HW157773   9.262   6.095   1.493 -1.4199  2.2152 -0.0998
15265SOL    HW257774   9.297   6.187   1.377  0.8262 -0.0974 -1.3768
15266SOL     OW57775   0.134   0.498   5.887  0.0498 -0.9310 -0.3186
15266SOL    HW157776   0.179   0.580   5.904 -1.0456 -0.4193  0.2063
15266SOL    HW257777   0.200   0.430   5.902  0.5977 -0.2190  0.5691
15267SOL     OW57778   6.619   8.938   3.861  0.3395 -0.2413  0.0964
15267SOL    HW157779   6.687   8.919   3.926  1.1262  0.0880 -0.6196
15267SOL    HW257780   6.539   8.902   3.899  1.3963 -3.2969 -0.3208
15268SOL     OW57781   2.431   7.078   9.582  0.0826 -0.0091  0.4928
15268SOL    HW157782   2.429   7.092   9.487 -0.6659  1.4465  0.6855
15268SOL    HW257783   2.339   7.069   9.607  0.0148  2.3530  1.3849
15269SOL     OW57784   1.226   3.872   8.490  0.1876  0.3169  0.7327
15269SOL    HW157785   1.309   3.889   8.445  0.7008 -2.0569  0.6121
15269SOL    HW257786   1.246   3.797   8.547 -1.5513  0.5641  1.7247
15270SOL     OW57787   5.323   0.848   5.166  0.8274  0.1320 -0.1550
15270SOL    HW157788   5.384   0.776   5.183  0.7451  0.4591  1.7010
15270SOL    HW257789   5.242   0.805   5.140  1.6024 -0.3276 -1.9475
15271SOL     OW57790   0.327   4.610   5.014 -0.2801 -0.6434 -0.3565
15271SOL    HW157791   0.411   4.564   5.009 -0.8053 -1.7871  0.8077
15271SOL    HW257792   0.264   4.548   4.978 -0.6651  0.1640 -1.1081
15272SOL     OW57793   0.666   8.422   7.457  0.6960  0.1294  0.1165
15272SOL    HW157794   0.671   8.469   7.373 -0.1900 -0.5520 -0.3399
15272SOL    HW257795   0.662   8.330   7.432 -0.9011 -0.0293  0.8195
15273SOL     OW57796   8.393   7.877   2.735  0.0802  0.2247  0.7271
15273SOL    HW157797   8.437   7.832   2.663  0.2075  0.9648  0.3267
15273SOL    HW257798   8.376   7.965   2.701  0.2181  0.6132  1.6304
15274SOL     OW57799   0.266   1.102   9.351  0.3010 -0.5174  0.2453
15274SOL    HW157800   0.273   1.104   9.256  0.0972 -1.5819  0.2049
15274SOL    HW257801   0.304   1.186   9.379 -2.0539  1.0523 -0.9042
15275SOL     OW57802  10.070   4.193   7.358  0.3723  0.1847  0.0426
15275SOL    HW157803  10.078   4.175   7.452  3.2908  3.3839  0.5772
15275SOL    HW257804   9.978   4.213   7.345 -0.3836 -1.7025  1.8485
15276SOL     OW57805   5.181   2.600   9.280  0.3557  0.3869 -0.2368
15276SOL    HW157806   5.124   2.672   9.250 -1.0850 -0.4743  0.3373
15276SOL    HW257807   5.182   2.539   9.206  1.8546  1.0946 -0.8575
15277SOL     OW57808   3.938   7.212   7.778  0.4543 -0.1354  0.2873
15277SOL    HW157809   3.864   7.242   7.726  2.2689  1.8327 -1.3279
15277SOL    HW257810   3.949   7.279   7.846  0.9649 -0.2255  0.2990
15278SOL     OW57811   8.713   7.443   5.958  0.5698 -0.0391  0.2103
15278SOL    HW157812   8.736   7.493   6.037  0.2031  3.7396 -1.8481
15278SOL    HW257813   8.796   7.426   5.915  0.7574 -1.9844  1.2117
15279SOL     OW57814   8.579   3.127   7.972  0.2593 -0.0563  0.1051
15279SOL    HW157815   8.663   3.091   8.001  1.0527  0.7095 -1.1351
15279SOL    HW257816   8.524   3.051   7.957  0.7280 -0.5698  0.9038
15280SOL     OW57817   2.153   2.721   9.526 -0.1234 -0.3250  0.6507
15280SOL    HW157818   2.120   2.647   9.475  0.1446  0.6647 -1.0277
15280SOL    HW257819   2.076   2.775   9.543 -0.1235 -0.3832  0.8404
15281SOL     OW57820   7.782  10.113   3.007 -0.1924 -0.5188  0.0638
15281SOL    HW157821   7.759  10.171   3.079  1.4697 -0.1507  0.3320
15281SOL    HW257822   7.751  10.027   3.035 -1.8134  0.0350  0.0809
15282SOL     OW57823   6.150   4.279   3.585 -0.4498 -0.0848  0.5616
15282SOL    HW157824   6.065   4.318   3.603 -1.8614 -2.4315 -0.6201
15282SOL    HW257825   6.134   4.217   3.514  2.5564  0.4795 -0.7763
15283SOL     OW57826  10.309   7.455   1.169 -0.0150 -0.0506  0.2250
15283SOL    HW157827  10.238   7.394   1.152  2.1561 -2.6182 -0.2936
15283SOL    HW257828  10.383   7.421   1.119  2.8251 -0.0686  4.0043
15284SOL     OW57829   4.325   1.767   8.695 -0.1501  0.1132  0.0729
15284SOL    HW157830   4.373   1.780   8.777  1.4900  1.3039 -0.9958
15284SOL    HW257831   4.378   1.704   8.646 -0.6712  0.0397 -0.4077
15285SOL     OW57832   0.267   3.725   9.251 -0.2370 -0.0933  0.0357
15285SOL    HW157833   0.358   3.743   9.228 -0.4637  2.7161  0.9408
15285SOL    HW257834   0.229   3.687   9.172  1.5567 -0.7867 -0.5395
15286SOL     OW57835   5.360   4.361   9.819  0.2717  0.5235 -0.4436
15286SOL    HW157836   5.311   4.443   9.821  1.4641  1.2843 -1.0377
15286SOL    HW257837   5.315   4.308   9.753  0.0852  1.0998 -0.7832
15287SOL     OW57838   7.618   8.055   4.840 -0.0904 -0.0117  0.0352
15287SOL    HW157839   7.602   8.047   4.934 -2.1015  2.3190  0.0142
15287SOL    HW257840   7.713   8.059   4.831  0.1267  0.2767  2.0499
15288SOL     OW57841   6.944   8.720   2.168  0.0159  0.2268 -0.6216
15288SOL    HW157842   7.021   8.703   2.223  0.9285 -0.2720 -2.0152
15288SOL    HW257843   6.979   8.727   2.079 -1.3297  1.7810 -1.0771
15289SOL     OW57844   2.751   5.920   2.285 -0.2021 -0.3284  0.3320
15289SOL    HW157845   2.819   5.868   2.242  1.2144 -0.3163  2.4034
15289SOL    HW257846   2.673   5.864   2.283  0.1926 -0.8668 -0.9723
15290SOL     OW57847   8.195   5.661   9.671 -0.0453  0.0652  0.0670
15290SOL    HW157848   8.275   5.708   9.646  1.2773 -1.4664  1.2125
15290SOL    HW257849   8.225   5.592   9.730 -2.3021 -0.2321  0.9624
15291SOL     OW57850   5.707   3.000   7.833  0.1764  0.4455 -0.1014
15291SOL    HW157851   5.797   3.003   7.865  0.2676  0.6707 -0.3741
15291SOL    HW257852   5.663   2.937   7.890  0.9459 -1.0110 -1.0435
15292SOL     OW57853   9.879   1.331   7.806 -0.4312 -0.3965 -0.2512
15292SOL    HW157854   9.954   1.389   7.793  0.4839 -1.5315 -0.2092
15292SOL    HW257855   9.905   1.249   7.763 -1.1513 -1.1906  0.7924
15293SOL     OW57856   9.544   0.482   5.349 -0.3649  0.2270 -0.2188
15293SOL    HW157857   9.540   0.562   5.402 -2.2132 -0.2237  0.4129
15293SOL    HW257858   9.551   0.411   5.413 -0.9366 -0.2285 -0.6516
15294SOL     OW57859   3.509   6.471   6.456 -0.0714  0.2781 -0.7600
15294SOL    HW157860   3.545   6.424   6.531 -0.6913 -0.2779 -0.8015
15294SOL    HW257861   3.462   6.545   6.494 -0.1848  0.1299 -0.6098
15295SOL     OW57862   9.344   3.811   6.240  0.2990  0.1350 -0.2957
15295SOL    HW157863   9.420   3.753   6.231  0.6083  0.3873  0.5517
15295SOL    HW257864   9.380   3.893   6.272 -0.3445  0.1862  0.3332
15296SOL     OW57865   0.841   7.474   7.702 -0.6777 -0.4969  0.5922
15296SOL    HW157866   0.818   7.551   7.649  1.5573  0.7544  1.2936
15296SOL    HW257867   0.777   7.474   7.773 -1.8586 -0.4137 -0.4497
15297SOL     OW57868   2.243   2.891   0.145 -0.1672  0.4193  0.2956
15297SOL    HW157869   2.243   2.855   0.056 -1.4780 -1.1256  0.8784
15297SOL    HW257870   2.301   2.834   0.194  0.7523  1.4199  0.4102
15298SOL     OW57871   5.442   1.387   9.094  0.2525 -0.5532  0.1142
15298SOL    HW157872   5.404   1.361   9.009  1.8251 -2.5430 -0.0700
15298SOL    HW257873   5.429   1.311   9.150  0.5233  0.1991  1.2276
15299SOL     OW57874   6.094   2.244   7.006  0.5869 -0.1044  0.7593
15299SOL    HW157875   6.123   2.154   7.024 -0.5725 -0.7459 -0.3921
15299SOL    HW257876   6.148   2.272   6.932  1.5000  0.4680  1.6189
15300SOL     OW57877   4.717   1.809   9.274 -0.4095 -0.0082 -0.1571
15300SOL    HW157878   4.635   1.763   9.259 -0.5986  0.0427  0.6710
15300SOL    HW257879   4.717   1.829   9.368  0.8197 -0.5306 -0.0190
15301SOL     OW57880   3.285   1.351   0.513  0.4965 -0.1292  0.2887
15301SOL    HW157881   3.257   1.393   0.432 -0.8914  0.4207  1.0242
15301SOL    HW257882   3.205   1.316   0.551  0.8328  1.0880  2.2542
15302SOL     OW57883   8.420   6.173   3.468  0.2788 -0.4060  0.2507
15302SOL    HW157884   8.421   6.197   3.561  0.7683 -4.0656  1.3328
15302SOL    HW257885   8.512   6.168   3.444  0.1564  0.1970 -0.3699
15303SOL     OW57886   0.005   3.400   5.613  0.1741 -0.2830 -0.1741
15303SOL    HW157887  -0.012   3.336   5.544 -1.7957  0.3562 -0.3714
15303SOL    HW257888   0.066   3.462   5.574  0.6550 -1.0322 -0.6271
15304SOL     OW57889   1.206   7.987  10.210  0.4710  0.1711  0.6666
15304SOL    HW157890   1.246   8.060  10.162  0.6448  0.5846  1.4370
15304SOL    HW257891   1.265   7.970  10.283  1.7514 -2.3570 -0.7989
15305SOL     OW57892   8.801   6.548   8.949 -0.2703 -0.0538  0.2762
15305SOL    HW157893   8.852   6.606   8.893  0.3106  0.4560  1.3108
15305SOL    HW257894   8.852   6.467   8.953  0.9090  0.7119  1.9199
15306SOL     OW57895   3.331   9.848   8.966  0.0329  0.0548 -0.3162
15306SOL    HW157896   3.397   9.816   8.905 -0.3931 -1.1345 -0.1805
15306SOL    HW257897   3.382   9.877   9.042  0.6821  2.8102 -1.6770
15307SOL     OW57898   4.307   1.873   6.802 -0.5577 -0.1814  0.3769
15307SOL    HW157899   4.338   1.787   6.832  0.6899 -0.1418 -0.6829
15307SOL    HW257900   4.355   1.936   6.856 -0.5021 -0.1408  0.2806
15308SOL     OW57901   8.752   6.474   6.947 -0.1496 -0.0931 -0.2122
15308SOL    HW157902   8.699   6.521   7.011 -0.3425 -1.1211  0.4053
15308SOL    HW257903   8.722   6.506   6.862  1.6764  3.0397  0.1510
15309SOL     OW57904   1.734   8.367   6.022 -0.3393  0.1326 -0.2898
15309SOL    HW157905   1.719   8.416   5.941  0.7451  0.6867 -0.1796
15309SOL    HW257906   1.822   8.330   6.011 -0.0220  0.5428  0.7859
15310SOL     OW57907   8.751   8.888   8.260 -0.3208  0.0561  0.0441
15310SOL    HW157908   8.771   8.866   8.169  0.4672  1.5349 -0.1674
15310SOL    HW257909   8.812   8.835   8.312 -0.4095 -0.3902 -0.3041
15311SOL     OW57910   6.879   1.122   9.320 -0.0155  0.1984  0.3469
15311SOL    HW157911   6.868   1.096   9.412  2.5583  1.7987  1.1859
15311SOL    HW257912   6.798   1.092   9.278 -1.2692 -0.6335  3.0940
15312SOL     OW57913   0.840   4.059   8.828  0.2115  0.0032  0.2338
15312SOL    HW157914   0.861   4.001   8.755 -0.5127 -1.2861  1.0140
15312SOL    HW257915   0.925   4.082   8.866  0.5020 -0.6205 -0.0353
15313SOL     OW57916   4.928   2.464   5.337 -0.0854 -0.4732  0.1017
15313SOL    HW157917   4.850   2.467   5.391  0.0515  0.7257  0.2451
15313SOL    HW257918   4.966   2.378   5.355  0.3236  0.1281  2.4262
15314SOL     OW57919   6.917   4.173   3.239  0.2148  0.3375 -0.0502
15314SOL    HW157920   6.920   4.261   3.277 -1.8219  0.5207 -0.1982
15314SOL    HW257921   6.906   4.188   3.145 -0.0780 -0.0594 -0.0826
15315SOL     OW57922   7.058   2.217   5.097 -0.1227  0.6993 -0.0128
15315SOL    HW157923   7.089   2.176   5.015  1.4402  1.9015 -0.0685
15315SOL    HW257924   7.066   2.147   5.162  1.5411  0.5837 -0.3025
15316SOL     OW57925   0.951   4.087   1.671 -0.2595  0.0802 -0.5369
15316SOL    HW157926   1.009   4.049   1.605 -1.6138 -0.1427 -1.6448
15316SOL    HW257927   0.915   4.012   1.717  1.8718  0.2542  1.6178
15317SOL     OW57928   7.625   1.801   7.158  0.2563  0.1969 -0.2251
15317SOL    HW157929   7.532   1.817   7.144 -1.3789 -4.8600  2.4086
15317SOL    HW257930   7.655   1.761   7.077 -0.0056  1.1149 -0.7934
15318SOL     OW57931   9.295   3.644  10.194 -0.2455  0.1874  0.2358
15318SOL    HW157932   9.230   3.682  10.135 -0.4181 -1.1701 -0.4777
15318SOL    HW257933   9.377   3.647  10.144 -0.0716  0.4408  0.5276
15319SOL     OW57934   5.134   8.050   9.579 -0.0845 -0.2729  0.1425
15319SOL    HW157935   5.186   8.059   9.659 -0.6673 -0.0329  0.5062
15319SOL    HW257936   5.183   7.989   9.525  0.1129 -0.7624  0.8575
15320SOL     OW57937   4.971   1.691   0.092 -0.3409  0.0834  0.6904
15320SOL    HW157938   5.041   1.729   0.040 -1.3850 -0.2089 -1.0202
15320SOL    HW257939   4.896   1.750   0.078 -0.8056 -0.3262  1.3943
15321SOL     OW57940   3.427   9.899   9.491  0.0570 -0.0301 -0.6918
15321SOL    HW157941   3.440   9.951   9.411 -2.5182  1.3725 -0.2982
15321SOL    HW257942   3.430   9.963   9.562 -0.1608 -0.8827  0.1064
15322SOL     OW57943   3.641   0.596   5.441  0.6155  0.3029  0.3368
15322SOL    HW157944   3.666   0.639   5.522 -0.1441  1.1448  0.1338
15322SOL    HW257945   3.647   0.664   5.374 -3.0762  0.8762  0.4230
15323SOL     OW57946   7.753   6.785   9.564  0.0532  0.6965  0.0397
15323SOL    HW157947   7.765   6.816   9.653 -0.4800  0.2602  0.2714
15323SOL    HW257948   7.659   6.792   9.549 -0.0125 -0.2938 -0.0864
15324SOL     OW57949   7.001   8.209   6.577  0.3260 -0.5645 -0.5274
15324SOL    HW157950   7.088   8.169   6.576  0.2358 -0.8172 -2.8992
15324SOL    HW257951   6.959   8.178   6.497 -1.3341  0.9126 -0.2863
15325SOL     OW57952  10.126   7.250   9.376  0.3448 -0.5278  0.1727
15325SOL    HW157953  10.153   7.158   9.387  0.6231 -0.5336 -0.5128
15325SOL    HW257954  10.092   7.254   9.287  1.0227  0.1997 -0.0668
15326SOL     OW57955   2.654   9.085   1.146 -0.3044  0.1423 -0.6260
15326SOL    HW157956   2.635   9.041   1.229  1.6509 -0.4407 -0.4492
15326SOL    HW257957   2.574   9.135   1.127 -1.1298 -0.4210  1.1302
15327SOL     OW57958   0.701   4.537   8.107 -0.3962 -0.6039 -0.5203
15327SOL    HW157959   0.670   4.475   8.173 -1.7875  2.7924  2.3288
15327SOL    HW257960   0.621   4.569   8.065  0.0158  1.2380  0.0497
15328SOL     OW57961   1.341   2.167   5.120  0.2665 -0.1556 -0.2178
15328SOL    HW157962   1.357   2.192   5.211  0.2176 -1.0943  0.0587
15328SOL    HW257963   1.394   2.088   5.108 -0.8821 -0.8818 -0.5584
15329SOL     OW57964   4.987   8.000   5.910  0.2009 -0.4135 -0.1492
15329SOL    HW157965   5.002   8.089   5.941 -0.4303  0.2362 -1.5894
15329SOL    HW257966   5.036   7.944   5.970  1.4502  0.9808  0.1749
15330SOL     OW57967   3.454   2.295   8.480  0.3407 -0.2768  0.2099
15330SOL    HW157968   3.470   2.388   8.464  3.5752 -0.7514  0.1473
15330SOL    HW257969   3.488   2.279   8.568  0.2413 -1.5001  0.0479
15331SOL     OW57970   0.680   9.902   5.724  0.3841  0.0565  0.0227
15331SOL    HW157971   0.652   9.851   5.801 -0.0251 -0.7650 -0.6547
15331SOL    HW257972   0.694   9.836   5.656 -0.0239  0.8390 -0.8376
15332SOL     OW57973   1.265   9.896   1.072 -0.0534  0.0898  0.0317
15332SOL    HW157974   1.308   9.976   1.042  0.9964 -0.7746 -0.8932
15332SOL    HW257975   1.321   9.825   1.037 -1.5169 -1.0571 -0.0681
15333SOL     OW57976   6.954   6.611   1.711 -0.0271  0.3329  0.4573
15333SOL    HW157977   7.009   6.681   1.676 -0.1240 -0.6639 -1.9095
15333SOL    HW257978   7.007   6.532   1.701 -1.8250 -0.6892 -2.0400
15334SOL     OW57979   8.500   8.282  10.015  0.5639  0.4450  0.3324
15334SOL    HW157980   8.464   8.366   9.986  0.1820  0.3976  0.6582
15334SOL    HW257981   8.588   8.303  10.045 -0.0632  1.0104  1.8608
15335SOL     OW57982   0.502   1.943   3.421 -0.1803 -0.2978  0.1302
15335SOL    HW157983   0.499   2.038   3.432  1.9727 -0.2426  0.7154
15335SOL    HW257984   0.433   1.910   3.479 -1.6287  0.9113 -0.8282
15336SOL     OW57985   3.590   2.351   0.980  0.2707 -0.4292  0.6440
15336SOL    HW157986   3.531   2.297   1.033 -0.3379 -1.0880 -0.6675
15336SOL    HW257987   3.532   2.398   0.921  0.9553  0.0961  0.3817
15337SOL     OW57988   6.894   9.974   0.357 -0.7308 -0.4842 -0.1193
15337SOL    HW157989   6.941  10.015   0.430 -1.3532  2.2660 -1.1284
15337SOL    HW257990   6.807   9.954   0.392 -1.0593  0.9133 -0.0722
15338SOL     OW57991   0.533   5.729   5.781  0.3906 -0.2830 -0.6817
15338SOL    HW157992   0.611   5.679   5.757  1.3730  1.2253 -0.7571
15338SOL    HW257993   0.564   5.796   5.840 -0.4282  1.6854 -2.3485
15339SOL     OW57994   0.010   9.928   7.483  0.3602  0.6152  0.3787
15339SOL    HW157995  -0.081   9.952   7.502  0.6802  1.6367  0.7086
15339SOL    HW257996   0.016   9.930   7.387 -0.8459 -2.9763  0.0555
15340SOL     OW57997   5.298   8.530   7.860 -0.2941  0.6483  0.3281
15340SOL    HW157998   5.254   8.465   7.804  0.0660  0.5858  0.1171
15340SOL    HW257999   5.280   8.614   7.818 -0.0502  0.6037  0.1325
15341SOL     OW58000   3.597   8.819   6.900 -0.3814  0.3059  0.4363
15341SOL    HW158001   3.616   8.822   6.806  0.8613 -0.5277  0.6449
15341SOL    HW258002   3.682   8.832   6.942 -0.7200 -0.6543  1.4449
15342SOL     OW58003  10.223   7.259   8.811 -0.2353 -0.1298 -0.0148
15342SOL    HW158004  10.236   7.172   8.849  1.4551  0.6414  1.2970
15342SOL    HW258005  10.249   7.249   8.719 -0.4715 -1.0924  0.0075
15343SOL     OW58006   4.632   7.117   8.146 -0.2660  0.0189  0.2156
15343SOL    HW158007   4.652   7.209   8.131  0.2015 -0.1677 -0.3643
15343SOL    HW258008   4.715   7.078   8.172 -0.7896  0.0620  2.0933
15344SOL     OW58009  10.258   7.723   2.439 -0.3084  0.0117  0.2126
15344SOL    HW158010  10.276   7.816   2.452 -0.8158  0.1046  0.2803
15344SOL    HW258011  10.334   7.690   2.391  0.1138  0.3490  0.6431
15345SOL     OW58012   1.977   5.674   5.571  0.1565  0.0750 -0.7944
15345SOL    HW158013   1.996   5.765   5.590 -0.5848  0.4924 -1.9391
15345SOL    HW258014   1.888   5.675   5.537 -0.1262 -1.1767 -0.1643
15346SOL     OW58015   0.814   7.225   8.271 -0.1567  0.4071 -0.0068
15346SOL    HW158016   0.758   7.150   8.251  0.8732 -0.2900 -0.3660
15346SOL    HW258017   0.882   7.222   8.204  0.9542  0.5508  1.0925
15347SOL     OW58018   6.921   3.616   0.435 -0.3508 -0.5572 -0.6707
15347SOL    HW158019   6.830   3.602   0.408 -0.5246 -1.2771  0.2261
15347SOL    HW258020   6.927   3.572   0.520  1.0201 -1.0873 -1.0257
15348SOL     OW58021   6.686   9.366   0.800  0.8203 -0.0769 -0.5102
15348SOL    HW158022   6.606   9.315   0.816  2.3897 -2.8320 -0.7395
15348SOL    HW258023   6.756   9.312   0.836  2.5728  2.6784  0.5410
15349SOL     OW58024   2.140   1.710   8.850  0.1732  0.0628  0.4369
15349SOL    HW158025   2.103   1.653   8.917 -0.8034  0.4770  0.2706
15349SOL    HW258026   2.085   1.788   8.852  0.1351  0.0869 -0.8249
15350SOL     OW58027   5.435   3.248   0.102  0.8328  0.3702  0.0643
15350SOL    HW158028   5.500   3.312   0.132  1.3605  0.2727 -0.8179
15350SOL    HW258029   5.472   3.163   0.127  0.8262  0.3361 -0.0430
15351SOL     OW58030   2.670   9.108   6.754  0.1725  0.1085  0.3876
15351SOL    HW158031   2.614   9.035   6.779  0.5466 -0.0361  0.8221
15351SOL    HW258032   2.739   9.069   6.700  0.0436  0.2345  0.1283
15352SOL     OW58033   5.582   5.155   7.945  0.1894 -0.4267 -0.3542
15352SOL    HW158034   5.609   5.230   7.998 -3.0322 -0.0141  0.9639
15352SOL    HW258035   5.605   5.180   7.856  0.8861  1.3117  0.2655
15353SOL     OW58036   9.394   9.105   4.689 -0.1796 -0.5430  0.1025
15353SOL    HW158037   9.347   9.187   4.674 -0.3364 -0.6023  0.2635
15353SOL    HW258038   9.424   9.111   4.780  0.1277 -0.5050 -0.0003
15354SOL     OW58039   7.168   0.689   3.853 -0.3819 -0.2759  0.0429
15354SOL    HW158040   7.211   0.701   3.768  0.7044  1.6082  0.8195
15354SOL    HW258041   7.218   0.619   3.895 -0.1396 -0.3488 -0.3600
15355SOL     OW58042   6.907   3.754   8.212 -0.2425 -0.0110  0.0507
15355SOL    HW158043   6.874   3.843   8.197 -0.3405  0.6912  3.5105
15355SOL    HW258044   6.997   3.767   8.241 -0.9163 -0.6942  2.7980
15356SOL     OW58045   6.425   4.471   0.231  0.0647 -0.0289 -0.1206
15356SOL    HW158046   6.497   4.489   0.170  1.9898 -0.6989  1.8187
15356SOL    HW258047   6.418   4.375   0.231  0.3177 -0.0596  0.9089
15357SOL     OW58048   1.050   5.651   9.036 -0.1150  0.3436  0.4831
15357SOL    HW158049   0.970   5.615   9.075 -0.3966 -0.7670 -1.0483
15357SOL    HW258050   1.022   5.689   8.953  0.8393  0.6158  0.2762
15358SOL     OW58051   6.730   9.088   6.374 -0.1062  0.4951 -0.4101
15358SOL    HW158052   6.693   9.005   6.346 -1.8972  0.9775  0.3870
15358SOL    HW258053   6.753   9.134   6.293 -0.0772 -0.3322 -0.8786
15359SOL     OW58054   6.441   0.043   9.120 -0.2311 -0.1570 -1.3978
15359SOL    HW158055   6.481   0.116   9.168  0.9913 -0.3837 -2.0244
15359SOL    HW258056   6.354   0.034   9.159  0.1243  0.7055 -0.3377
15360SOL     OW58057   2.169   8.258   7.420  0.4289  0.1941 -0.1298
15360SOL    HW158058   2.145   8.229   7.508 -0.4952  1.1673 -0.0290
15360SOL    HW258059   2.221   8.186   7.384  2.0955  0.3970  1.7289
15361SOL     OW58060   5.207   8.566   4.024 -0.2247  0.0520 -0.6141
15361SOL    HW158061   5.289   8.520   4.007  0.9771  1.2305  1.5076
15361SOL    HW258062   5.209   8.641   3.963  0.2025 -0.0174 -0.6886
15362SOL     OW58063   6.422   8.046   7.953  0.1823  0.5065  0.2788
15362SOL    HW158064   6.512   8.066   7.931  0.3691  0.2395  0.7770
15362SOL    HW258065   6.370   8.112   7.908  0.5943  0.3807 -0.3863
15363SOL     OW58066   2.851   9.274   1.199  0.1099 -0.0930 -0.4436
15363SOL    HW158067   2.763   9.239   1.204  0.1086 -0.0124  3.1040
15363SOL    HW258068   2.907   9.198   1.181 -0.6455 -0.0166 -3.5039
15364SOL     OW58069   3.072   9.358   5.972  0.6069 -0.4063  0.1097
15364SOL    HW158070   3.028   9.389   6.051 -0.7365 -2.3394  0.2005
15364SOL    HW258071   3.005   9.360   5.904  1.1949 -0.6266 -0.4927
15365SOL     OW58072   0.265   0.447   1.407  0.5326  0.0344 -0.2200
15365SOL    HW158073   0.347   0.457   1.359 -0.0603 -0.8945 -1.4781
15365SOL    HW258074   0.209   0.396   1.349 -0.3237 -0.9053  1.3578
15366SOL     OW58075   7.523   2.059   4.062  0.0918 -0.5266  0.2470
15366SOL    HW158076   7.446   2.035   4.114  0.3584 -2.6644 -0.2690
15366SOL    HW258077   7.575   1.979   4.056  2.0322  0.6734 -0.0305
15367SOL     OW58078   3.839   2.227   2.535 -0.4164  0.4535  0.0936
15367SOL    HW158079   3.872   2.143   2.504  0.7638  1.1915 -0.7219
15367SOL    HW258080   3.800   2.268   2.458  2.4685  2.2662 -0.5506
15368SOL     OW58081   6.146   7.859   0.122  0.1554 -0.4062  0.3257
15368SOL    HW158082   6.133   7.766   0.137  0.9478 -0.7613 -1.0031
15368SOL    HW258083   6.065   7.900   0.152 -0.1507 -1.4997  1.0505
15369SOL     OW58084   6.806   6.802   5.643  0.0833 -0.0653  0.2154
15369SOL    HW158085   6.851   6.749   5.577 -0.9328  0.2486 -0.7491
15369SOL    HW258086   6.775   6.879   5.596 -1.4250 -0.2493  0.8415
15370SOL     OW58087   4.854   3.931   2.637 -0.1484  0.1235 -0.4103
15370SOL    HW158088   4.932   3.976   2.602  0.5907 -1.5498 -1.0286
15370SOL    HW258089   4.864   3.938   2.732 -0.6448  2.1780 -0.4510
15371SOL     OW58090   0.452   5.757   8.728  0.1421  0.2026 -0.1190
15371SOL    HW158091   0.473   5.850   8.725 -0.8894  0.4697  0.3071
15371SOL    HW258092   0.368   5.750   8.683  0.3074 -0.5510 -0.3165
15372SOL     OW58093   8.022  10.366   2.771 -0.0918  0.6890 -0.0147
15372SOL    HW158094   7.934  10.328   2.773 -1.3639  3.3222 -1.1085
15372SOL    HW258095   8.022  10.423   2.694  2.0406  1.9878  0.8561
15373SOL     OW58096   8.331   2.087   4.873 -0.6992 -0.2878 -0.9900
15373SOL    HW158097   8.332   2.065   4.966 -1.6800 -1.0830 -1.1502
15373SOL    HW258098   8.424   2.089   4.848 -0.4569 -0.7770 -0.1530
15374SOL     OW58099   2.204   5.732   2.449  0.3220 -0.5239  0.2165
15374SOL    HW158100   2.296   5.732   2.477  0.0261  0.7871  1.2922
15374SOL    HW258101   2.204   5.786   2.369  0.7349 -1.9657 -0.7877
15375SOL     OW58102   3.178   6.794   5.566 -0.4365 -0.0334 -0.1053
15375SOL    HW158103   3.121   6.838   5.629  1.4512 -0.3325  1.9532
15375SOL    HW258104   3.264   6.835   5.581  0.0067  0.2373 -2.8943
15376SOL     OW58105   5.128   6.019   7.103  0.2072 -0.5157  0.2575
15376SOL    HW158106   5.066   6.088   7.079 -0.0792 -0.7216  0.3986
15376SOL    HW258107   5.119   5.954   7.033  0.5787 -0.3514  0.0489
15377SOL     OW58108   4.618   8.077   7.690 -0.0308 -0.0698 -0.1424
15377SOL    HW158109   4.659   8.158   7.660  0.0726  0.3343  1.0498
15377SOL    HW258110   4.584   8.037   7.610 -1.5446  1.9667 -0.6228
15378SOL     OW58111   8.510   7.733   7.282  0.1615  0.0191  0.2141
15378SOL    HW158112   8.516   7.823   7.314 -2.8574  0.3010  0.2808
15378SOL    HW258113   8.481   7.683   7.358 -1.7161 -0.3122 -0.6774
15379SOL     OW58114   2.645   7.698   0.286 -0.3063  0.5537  0.1278
15379SOL    HW158115   2.686   7.655   0.361 -0.2658  1.4550  0.6365
15379SOL    HW258116   2.689   7.783   0.280  0.6360  0.0164 -1.7414
15380SOL     OW58117   0.831   0.938   0.804 -0.3307  0.1041  0.1842
15380SOL    HW158118   0.761   0.890   0.759 -0.3302 -0.7016  1.0183
15380SOL    HW258119   0.910   0.914   0.756 -0.4841  0.1908 -0.1177
15381SOL     OW58120   9.536   7.451   4.049 -0.2841 -0.4794 -0.5315
15381SOL    HW158121   9.489   7.439   3.966 -0.6315  2.6444 -0.9196
15381SOL    HW258122   9.604   7.515   4.028 -0.7415  0.8317  1.6606
15382SOL     OW58123   4.956   9.849   4.031  0.1692 -0.3770  0.2754
15382SOL    HW158124   4.879   9.879   3.982  0.3028  0.5287  0.5955
15382SOL    HW258125   4.950   9.896   4.114  1.4216  0.1938  0.0520
15383SOL     OW58126   3.795   9.676   7.252 -0.3901  0.3658  0.0236
15383SOL    HW158127   3.815   9.587   7.281  1.6870  1.1949  1.3497
15383SOL    HW258128   3.781   9.668   7.158  1.5197 -1.1115 -0.1818
15384SOL     OW58129   2.551   7.720   8.406 -0.0454  0.4318  0.0291
15384SOL    HW158130   2.613   7.662   8.450 -0.1804 -0.4384 -0.9093
15384SOL    HW258131   2.601   7.758   8.334 -0.8519 -1.0947 -1.3939
15385SOL     OW58132   2.537   5.744   5.562  0.2880 -0.1746 -0.8042
15385SOL    HW158133   2.589   5.668   5.585  1.2497  0.6674 -0.1478
15385SOL    HW258134   2.532   5.741   5.466 -1.3301 -2.1054 -0.7356
15386SOL     OW58135   7.346   3.437   7.602 -0.2568  0.5778 -0.0027
15386SOL    HW158136   7.307   3.378   7.537 -1.4748  3.0210 -1.6705
15386SOL    HW258137   7.440   3.428   7.588 -0.4241 -0.5938 -0.5220
15387SOL     OW58138   4.162   8.419   6.760  0.3604 -0.0405  0.8617
15387SOL    HW158139   4.217   8.477   6.813 -0.4550  2.1674 -0.5587
15387SOL    HW258140   4.186   8.439   6.669 -2.6369  1.0308  0.1740
15388SOL     OW58141   0.974   1.598   4.162  0.1396 -0.0915 -0.1952
15388SOL    HW158142   0.897   1.639   4.124 -0.7291  0.4089  1.9376
15388SOL    HW258143   1.041   1.666   4.162 -0.7025  0.8120  1.5629
15389SOL     OW58144   0.822   8.140   1.808 -0.2954 -0.4453 -1.3104
15389SOL    HW158145   0.742   8.125   1.756 -0.0578 -1.0974 -1.4944
15389SOL    HW258146   0.893   8.127   1.746  0.0278 -2.1048 -0.6522
15390SOL     OW58147   2.479   6.548   6.214  0.4671  0.4790  0.6891
15390SOL    HW158148   2.554   6.572   6.268  1.1448 -1.3546  0.6314
15390SOL    HW258149   2.477   6.453   6.217 -0.2472  0.3756 -1.4622
15391SOL     OW58150   7.749   1.678   5.570 -0.4875  0.5048  0.0679
15391SOL    HW158151   7.720   1.680   5.479 -2.2612 -0.0077  0.5796
15391SOL    HW258152   7.816   1.610   5.572  0.6811  1.5783 -1.1228
15392SOL     OW58153   4.000   9.068   4.551 -0.3859 -0.0601 -0.0940
15392SOL    HW158154   4.014   9.075   4.457  1.6493 -1.0636  0.0746
15392SOL    HW258155   4.052   8.992   4.578 -0.9351  0.1832  1.8387
15393SOL     OW58156   8.456   0.126   1.587 -0.7242  0.4562  1.0213
15393SOL    HW158157   8.550   0.111   1.578 -0.3679  2.1457  1.4705
15393SOL    HW258158   8.416   0.073   1.518  0.7336  1.4109 -0.6424
15394SOL     OW58159   8.646   0.519  10.301  0.2463 -0.0696 -0.5083
15394SOL    HW158160   8.671   0.609  10.281 -1.9119  0.4184 -1.2056
15394SOL    HW258161   8.621   0.521  10.393  0.0418  0.0668 -0.5679
15395SOL     OW58162   4.990   1.263   9.615 -0.3822  0.3922  0.5240
15395SOL    HW158163   4.932   1.332   9.582 -0.5895 -0.2521 -0.5234
15395SOL    HW258164   4.963   1.250   9.706 -0.8561  1.1451  0.5019
15396SOL     OW58165   4.471   4.333   5.951 -0.1458  0.3070 -0.3426
15396SOL    HW158166   4.402   4.399   5.945 -0.5045 -0.1733 -2.9670
15396SOL    HW258167   4.552   4.381   5.930 -0.2438  0.1820 -1.0503
15397SOL     OW58168   4.523   8.265   3.464  0.5375  0.7284 -0.4655
15397SOL    HW158169   4.572   8.221   3.534  0.0950 -1.3255 -1.3600
15397SOL    HW258170   4.577   8.254   3.386  1.3419  3.5763 -0.4112
15398SOL     OW58171   6.477   1.159   2.151  0.2495 -0.0123 -0.3680
15398SOL    HW158172   6.461   1.071   2.185  1.5722 -1.1094 -2.4184
15398SOL    HW258173   6.572   1.170   2.156  0.0357  1.7399  0.7819
15399SOL     OW58174   0.258   4.159   4.227 -0.1468  0.4741 -0.0374
15399SOL    HW158175   0.342   4.202   4.241 -0.0027  0.1880 -0.0157
15399SOL    HW258176   0.241   4.170   4.133 -0.6771  1.5974  0.1754
15400SOL     OW58177   1.313   4.566   4.834 -0.0288 -0.0215  0.1897
15400SOL    HW158178   1.234   4.577   4.781  0.8140 -1.1424 -1.3398
15400SOL    HW258179   1.305   4.478   4.871  0.9026 -0.4775 -0.6729
15401SOL     OW58180   6.094   5.776   4.808  0.3618 -0.0320 -0.5421
15401SOL    HW158181   6.189   5.767   4.816  0.3925 -0.1246 -1.0053
15401SOL    HW258182   6.075   5.858   4.854  0.5516 -0.4672  0.3207
15402SOL     OW58183   5.413   9.156   3.716 -0.8343  0.0325  0.4196
15402SOL    HW158184   5.426   9.065   3.741 -1.4973  0.5703  3.0235
15402SOL    HW258185   5.498   9.185   3.683 -0.3103 -1.2038  0.6448
15403SOL     OW58186   3.089   2.823   5.397  0.1356  0.4929 -0.4258
15403SOL    HW158187   3.135   2.904   5.377 -0.1997  0.5964 -0.8052
15403SOL    HW258188   3.158   2.758   5.411  0.6395  1.6638  3.9288
15404SOL     OW58189   8.524   8.875   0.730  0.1581 -0.1077  0.0713
15404SOL    HW158190   8.480   8.877   0.645  0.0111  1.8950  0.1419
15404SOL    HW258191   8.615   8.899   0.711  0.1070  0.4294  0.4776
15405SOL     OW58192   8.690  10.264   3.916  0.1028 -0.5693  0.0823
15405SOL    HW158193   8.733  10.342   3.880  0.6300 -0.6794  0.4581
15405SOL    HW258194   8.624  10.299   3.976 -0.1829 -0.4011 -0.3271
15406SOL     OW58195   6.549   2.829   4.795  0.1203 -0.3113  0.3549
15406SOL    HW158196   6.505   2.914   4.788 -2.1930 -1.4045  0.6210
15406SOL    HW258197   6.594   2.818   4.712  0.4153  1.1347  0.2988
15407SOL     OW58198   0.138   9.495  10.362 -0.0472  0.0823 -0.5794
15407SOL    HW158199   0.181   9.490  10.448 -1.5216 -1.8918  0.1196
15407SOL    HW258200   0.162   9.581  10.328  1.8410  0.3016  1.1198
15408SOL     OW58201   5.583  10.200   9.459 -0.3456 -0.2156 -0.4738
15408SOL    HW158202   5.655  10.138   9.465 -0.2339  0.0221  1.2597
15408SOL    HW258203   5.543  10.184   9.373 -0.1843 -2.5158 -0.1678
15409SOL     OW58204   6.110   1.298   3.795 -0.2033  0.4760 -0.4357
15409SOL    HW158205   6.098   1.277   3.703 -1.5153 -0.2908 -0.1169
15409SOL    HW258206   6.026   1.277   3.836  0.6564 -0.1970  1.1107
15410SOL     OW58207   2.787   2.286   1.165 -0.1374 -0.3060 -0.3771
15410SOL    HW158208   2.862   2.258   1.112  1.5471 -0.2407  1.7836
15410SOL    HW258209   2.824   2.296   1.253 -2.4815  0.8524  0.5454
15411SOL     OW58210   6.093   1.008   7.091  0.2554 -0.0734 -0.1196
15411SOL    HW158211   5.999   1.008   7.070  0.1294  0.2934  0.4168
15411SOL    HW258212   6.133   0.955   7.023 -0.3105  0.0035 -0.5177
15412SOL     OW58213   5.755   6.486   6.139  0.2895  0.2045 -0.6113
15412SOL    HW158214   5.690   6.424   6.171 -0.4359  0.1445 -2.1000
15412SOL    HW258215   5.721   6.572   6.162 -0.0129  0.1432 -0.8199
15413SOL     OW58216   2.189   3.516   5.080  0.1409  0.2503 -0.5840
15413SOL    HW158217   2.135   3.577   5.029  0.4383  0.8571 -0.1973
15413SOL    HW258218   2.150   3.518   5.167  1.0062  1.0021 -0.1971
15414SOL     OW58219   1.962   8.420   7.284 -0.3366 -0.1503  0.4005
15414SOL    HW158220   1.950   8.455   7.372  0.8306 -0.1004  0.5515
15414SOL    HW258221   2.008   8.337   7.297  1.4723  0.7045 -0.2353
15415SOL     OW58222   8.645   6.211   5.575 -0.0141 -0.1189  0.3958
15415SOL    HW158223   8.656   6.214   5.481 -0.4149  1.3900  0.3716
15415SOL    HW258224   8.644   6.303   5.603  1.1876 -0.5391  2.0097
15416SOL     OW58225   2.915   3.626   9.166 -0.3587 -0.2146  0.0668
15416SOL    HW158226   2.903   3.689   9.237 -0.0099  0.0490 -0.1038
15416SOL    HW258227   2.989   3.661   9.116  1.3296 -1.9129  1.2498
15417SOL     OW58228   4.452   5.930   7.764 -0.2794 -0.0264 -1.0497
15417SOL    HW158229   4.489   5.874   7.695  2.2098  0.1596  0.0372
15417SOL    HW258230   4.486   6.017   7.745 -2.2414  0.7289 -1.3797
15418SOL     OW58231   6.436   2.491   7.098 -0.4510  0.0672  0.0258
15418SOL    HW158232   6.357   2.493   7.152 -0.7778 -1.2632 -0.3528
15418SOL    HW258233   6.500   2.544   7.146 -1.4817  0.9401  0.4679
15419SOL     OW58234   9.158   0.160   6.403 -0.1693  0.0299 -0.0007
15419SOL    HW158235   9.162   0.211   6.322 -2.6200 -1.5302 -1.2502
15419SOL    HW258236   9.201   0.077   6.381 -1.8207 -0.8381 -0.1745
15420SOL     OW58237   6.710   8.913   4.678  0.6808 -0.4298 -0.0009
15420SOL    HW158238   6.762   8.994   4.679  0.3747 -0.2275  1.6995
15420SOL    HW258239   6.665   8.912   4.763 -1.2104 -1.1793 -0.9485
15421SOL     OW58240   0.080   9.410   7.953 -0.2289  0.1635  0.1062
15421SOL    HW158241   0.087   9.327   7.907  3.0529  0.9827 -1.1077
15421SOL    HW258242   0.090   9.387   8.046 -0.7711 -0.9056 -0.0903
15422SOL     OW58243   2.904  10.167   5.944 -0.3285  0.6990 -0.4259
15422SOL    HW158244   2.877  10.208   5.862  2.4132 -1.0971 -2.4091
15422SOL    HW258245   2.986  10.212   5.967 -0.7775  0.7983  1.0490
15423SOL     OW58246   5.437   8.433   3.951  0.3287 -0.5239 -0.1860
15423SOL    HW158247   5.438   8.362   3.887 -1.6719  0.1156 -1.0202
15423SOL    HW258248   5.498   8.498   3.915  1.8518 -1.5836  0.3741
15424SOL     OW58249   0.377   3.983   0.834  0.1646 -0.3789  0.2000
15424SOL    HW158250   0.316   3.941   0.773 -0.5710 -0.3266  0.8861
15424SOL    HW258251   0.347   4.073   0.841  0.7612 -0.1573 -0.0086
15425SOL     OW58252   2.249   2.345   5.972  0.2413  0.6392  0.1822
15425SOL    HW158253   2.202   2.339   6.055  0.1048  2.1232  0.2393
15425SOL    HW258254   2.341   2.356   5.997  0.1660  1.3599  0.1424
15426SOL     OW58255   5.963   2.444   5.563 -0.2530 -1.4069 -0.3784
15426SOL    HW158256   6.030   2.435   5.630 -0.7015 -0.9808  0.1376
15426SOL    HW258257   5.997   2.509   5.502 -0.6989 -0.3054  0.5254
15427SOL     OW58258   0.873   9.536   6.495 -0.4221 -0.2099  0.8254
15427SOL    HW158259   0.784   9.533   6.459  0.5492 -0.6769 -1.7857
15427SOL    HW258260   0.896   9.444   6.511  1.1901 -0.7157 -3.1946
15428SOL     OW58261   4.369   8.920   3.195 -0.2832  0.3915 -0.7528
15428SOL    HW158262   4.364   8.835   3.152  0.3224 -0.7228  1.2336
15428SOL    HW258263   4.293   8.923   3.252  0.8158  0.2127  0.7806
15429SOL     OW58264   0.546   0.765   7.977  0.2190 -0.5488  0.2249
15429SOL    HW158265   0.469   0.806   7.938 -0.9226 -3.5377 -0.9089
15429SOL    HW258266   0.512   0.705   8.042  1.7399 -0.5264  1.0797
15430SOL     OW58267   7.592   7.027   7.539  0.5555  0.1131 -0.1410
15430SOL    HW158268   7.522   6.966   7.561  0.2634 -0.6502 -2.8059
15430SOL    HW258269   7.657   7.015   7.608  0.4295 -3.1435 -0.4191
15431SOL     OW58270   2.145   5.511   8.338  0.1236 -0.3272  0.1970
15431SOL    HW158271   2.114   5.531   8.249  1.0309  2.9527  0.4580
15431SOL    HW258272   2.066   5.503   8.390 -0.4068 -0.1386 -0.5532
15432SOL     OW58273   8.764   0.065   9.571 -0.2948  0.2544  0.2191
15432SOL    HW158274   8.712   0.104   9.500 -2.6331  1.3858  2.4074
15432SOL    HW258275   8.806   0.140   9.613  0.7375 -0.3669  0.3246
15433SOL     OW58276   0.132   1.658   6.334  0.0303 -0.7680  0.4677
15433SOL    HW158277   0.070   1.628   6.401 -0.4762 -1.7474 -0.4150
15433SOL    HW258278   0.127   1.592   6.265  2.2026 -0.9549  0.4411
15434SOL     OW58279   6.936   8.710   4.498 -0.3640 -0.2283  0.5281
15434SOL    HW158280   6.869   8.753   4.446  0.0187  2.0996  1.8299
15434SOL    HW258281   6.920   8.739   4.587  1.7149 -0.4207  1.0248
15435SOL     OW58282   2.425   0.653  10.235 -0.1986  0.1717  0.0900
15435SOL    HW158283   2.394   0.743  10.234  2.5218  1.2291  0.7794
15435SOL    HW258284   2.363   0.606  10.291 -1.3658  1.7298  0.1480
15436SOL     OW58285   6.524   7.556   6.551 -0.5779  0.3827 -0.0952
15436SOL    HW158286   6.442   7.569   6.504 -0.6498  1.5812  0.3379
15436SOL    HW258287   6.571   7.490   6.500 -1.9581 -0.6129 -0.1463
15437SOL     OW58288   1.284   1.373   5.780  0.1167  0.0571 -0.1152
15437SOL    HW158289   1.344   1.354   5.851  0.8255 -0.5756 -0.8675
15437SOL    HW258290   1.219   1.303   5.784 -0.8419  0.9620  0.9494
15438SOL     OW58291   9.259   2.324   1.841 -0.1902 -0.2988  0.5220
15438SOL    HW158292   9.177   2.371   1.856 -0.6840 -0.0028 -2.4600
15438SOL    HW258293   9.327   2.391   1.848 -0.2040 -0.4303  2.4027
15439SOL     OW58294   4.675   0.940  10.135 -0.2564 -0.3210 -0.0143
15439SOL    HW158295   4.660   1.027  10.098  0.5001 -0.2492 -0.1726
15439SOL    HW258296   4.741   0.901  10.078  1.0605 -0.1476  1.3111
15440SOL     OW58297   2.556   9.689   1.980 -0.1732  0.0403 -0.0284
15440SOL    HW158298   2.494   9.618   1.996  0.3172 -0.3136  0.3119
15440SOL    HW258299   2.619   9.683   2.052 -0.0984  0.7860 -0.0247
15441SOL     OW58300   8.129   2.003   0.734 -0.4090 -0.3519  0.1078
15441SOL    HW158301   8.052   2.048   0.769 -0.1485  1.6282 -1.6700
15441SOL    HW258302   8.093   1.925   0.691 -0.9014 -1.8302  2.9145
15442SOL     OW58303   1.287   6.736   0.497  0.5302  0.1029 -0.2027
15442SOL    HW158304   1.196   6.754   0.520  0.6302  0.2768  0.0632
15442SOL    HW258305   1.289   6.642   0.476  0.1346  0.2615 -0.9692
15443SOL     OW58306   6.053   5.124   1.733  0.1462 -0.3323  0.1151
15443SOL    HW158307   5.966   5.146   1.701  0.4805 -0.9625 -1.3160
15443SOL    HW258308   6.044   5.036   1.768  1.0327 -2.3795 -4.1376
15444SOL     OW58309   9.750   5.332   6.377  0.4765  0.3069 -0.3501
15444SOL    HW158310   9.743   5.282   6.296  3.1257 -0.7759 -0.0019
15444SOL    HW258311   9.738   5.423   6.350 -2.4128 -0.2628 -1.3111
15445SOL     OW58312   7.072   5.307   8.727  0.2666 -0.1074  0.2865
15445SOL    HW158313   7.023   5.273   8.801 -0.5902  2.4675  0.9987
15445SOL    HW258314   7.014   5.295   8.652  0.7525 -1.8452  0.1450
15446SOL     OW58315   9.697   8.853   8.596 -0.2170 -0.4465 -0.3062
15446SOL    HW158316   9.776   8.817   8.637  0.0520 -0.3760 -0.7485
15446SOL    HW258317   9.730   8.913   8.530 -0.6513 -0.1383 -0.2459
15447SOL     OW58318   1.319   8.917   0.020  0.2324  0.0941  0.4639
15447SOL    HW158319   1.308   8.832  -0.024  0.2584  0.1039  0.4383
15447SOL    HW258320   1.338   8.978  -0.050  1.5552 -0.1175  0.6030
15448SOL     OW58321   6.278   8.681   0.780 -0.2021  0.3803  0.2392
15448SOL    HW158322   6.183   8.672   0.768 -0.0391  1.4407 -2.7161
15448SOL    HW258323   6.315   8.602   0.741  0.2040  1.3218 -1.3365
15449SOL     OW58324   8.272   8.879   3.847  0.1566 -0.1023  0.2493
15449SOL    HW158325   8.324   8.829   3.910  0.9517  0.1404 -0.1909
15449SOL    HW258326   8.192   8.901   3.894  0.2636 -0.8562  0.8072
15450SOL     OW58327   9.516   1.925   7.591 -0.3961 -0.7824  0.5293
15450SOL    HW158328   9.423   1.945   7.580 -0.0560  0.2010 -0.7178
15450SOL    HW258329   9.562   2.003   7.560  0.8998 -2.0969 -1.0400
15451SOL     OW58330   8.183   3.404   2.526 -0.3483 -0.2445 -0.0722
15451SOL    HW158331   8.261   3.355   2.501 -1.0811 -0.6409 -1.6858
15451SOL    HW258332   8.163   3.373   2.614  1.3412 -0.0714  0.4114
15452SOL     OW58333   1.465   5.918   9.649 -0.1901  0.1523 -0.1334
15452SOL    HW158334   1.469   5.925   9.744  1.1560 -1.5118 -0.0248
15452SOL    HW258335   1.528   5.983   9.617  1.8791 -1.5028  0.3075
15453SOL     OW58336   0.365   4.773   7.755  0.2688  0.0259 -0.2849
15453SOL    HW158337   0.353   4.847   7.696  2.4620  1.4448  0.8880
15453SOL    HW258338   0.318   4.798   7.835 -0.9933 -0.9737 -0.6857
15454SOL     OW58339   7.875   3.945   5.561 -0.7192 -0.0678  0.3498
15454SOL    HW158340   7.908   3.940   5.651 -0.6929 -3.1698  0.2875
15454SOL    HW258341   7.821   4.024   5.559  1.9316  1.9643  2.0805
15455SOL     OW58342   1.597   6.133   9.578 -0.1625  0.0437  0.2388
15455SOL    HW158343   1.549   6.217   9.577 -0.0421  0.1138  0.3212
15455SOL    HW258344   1.676   6.152   9.628  0.4023  0.1712 -0.6861
15456SOL     OW58345   9.085   6.656   8.101  0.5085  0.0984  0.3196
15456SOL    HW158346   9.139   6.734   8.119 -0.1138  0.4413  0.7450
15456SOL    HW258347   9.010   6.690   8.053 -0.6771  0.0656  2.0675
15457SOL     OW58348   1.833  10.078   4.753 -0.1476 -0.4140 -0.3344
15457SOL    HW158349   1.810   9.991   4.720  0.4058 -0.4879 -0.5324
15457SOL    HW258350   1.827  10.070   4.848 -0.8820 -0.4455 -0.3789
15458SOL     OW58351   6.749   5.623   3.107  0.5173  0.1799 -0.0711
15458SOL    HW158352   6.763   5.641   3.200  1.0541 -0.6021  0.0121
15458SOL    HW258353   6.743   5.528   3.102  0.2295  0.2365 -0.8028
15459SOL     OW58354   6.065   1.919   8.019  0.2987  0.1066  0.0482
15459SOL    HW158355   6.124   1.989   8.046 -0.2530  0.7969 -0.4920
15459SOL    HW258356   6.039   1.876   8.100 -0.2195  1.2350  0.5027
15460SOL     OW58357   6.030   2.804   9.064 -0.5319 -0.2110 -0.0842
15460SOL    HW158358   5.963   2.868   9.088 -0.6478 -1.0515  2.0563
15460SOL    HW258359   6.085   2.849   8.999 -2.0758  1.1225 -0.5148
15461SOL     OW58360   7.485   9.869   5.536 -0.7476  0.0841  0.0318
15461SOL    HW158361   7.564   9.888   5.486 -0.0210 -1.7641  0.4163
15461SOL    HW258362   7.502   9.907   5.623 -0.5149  0.1612 -0.0461
15462SOL     OW58363   8.131   5.641   5.532  0.0558  0.3502 -0.2080
15462SOL    HW158364   8.149   5.725   5.573 -1.8570  0.9537 -0.4793
15462SOL    HW258365   8.184   5.578   5.581  0.5913  1.5451  0.7976
15463SOL     OW58366   8.208   7.215   1.141  0.1329  0.2035 -0.2880
15463SOL    HW158367   8.125   7.261   1.153  0.5877  0.6528  1.4137
15463SOL    HW258368   8.272   7.285   1.127  0.2270 -0.1538 -1.8946
15464SOL     OW58369  10.253   2.920   1.521 -0.0704  0.4298 -0.4137
15464SOL    HW158370  10.217   2.910   1.433 -0.3054 -0.4127 -0.2314
15464SOL    HW258371  10.228   2.840   1.567  1.2445  0.2150 -0.0025
15465SOL     OW58372   1.781   0.491   9.272 -0.3451 -0.2311 -0.3215
15465SOL    HW158373   1.692   0.502   9.304 -0.3023 -0.5931 -0.0668
15465SOL    HW258374   1.794   0.397   9.268  0.5082 -0.2115  1.0539
15466SOL     OW58375   5.400   4.523   8.273 -0.1743  0.1699 -0.1155
15466SOL    HW158376   5.470   4.464   8.303  0.1482 -0.1708 -1.4436
15466SOL    HW258377   5.415   4.531   8.179 -1.4441  0.7566 -0.2876
15467SOL     OW58378   4.829   5.572   2.122  0.3799 -0.7276 -0.1918
15467SOL    HW158379   4.881   5.499   2.088 -0.4316 -0.4155 -2.2635
15467SOL    HW258380   4.814   5.628   2.046 -1.1549  0.2971  0.8106
15468SOL     OW58381   3.729   8.934   0.521  0.5012  0.2559 -0.3752
15468SOL    HW158382   3.720   9.007   0.460  0.6540 -0.4170 -1.2107
15468SOL    HW258383   3.645   8.890   0.519  0.3538  0.4983  0.2579
15469SOL     OW58384   9.276   8.153   3.355  0.5827 -0.0506 -0.4735
15469SOL    HW158385   9.301   8.073   3.307  1.2099 -0.4989  0.5581
15469SOL    HW258386   9.185   8.138   3.381  0.8051 -0.6053  0.0182
15470SOL     OW58387   7.043   5.842   5.206  0.2392 -0.1424 -0.2131
15470SOL    HW158388   7.071   5.886   5.287  0.3132 -0.5550 -0.0134
15470SOL    HW258389   6.991   5.768   5.236  0.2483 -0.2853 -0.5481
15471SOL     OW58390   0.894   7.443   5.606  0.1375 -0.0630  0.3268
15471SOL    HW158391   0.807   7.412   5.584  0.3031 -1.5966  1.6580
15471SOL    HW258392   0.880   7.510   5.673  0.0068 -0.8082  1.0510
15472SOL     OW58393   9.808   6.688   5.373 -0.5240  0.4021  0.7116
15472SOL    HW158394   9.725   6.652   5.403 -0.5556  0.3682  0.5827
15472SOL    HW258395   9.783   6.760   5.315 -0.5009  2.5471  3.1875
15473SOL     OW58396  10.273   6.715   6.148  0.3192 -0.2686 -0.0922
15473SOL    HW158397  10.329   6.731   6.224  0.5078 -0.8875 -0.0940
15473SOL    HW258398  10.216   6.643   6.176 -0.9432  0.7827  0.1564
15474SOL     OW58399   1.984  10.381   3.401 -0.3627  0.3272 -0.1382
15474SOL    HW158400   1.988  10.328   3.321  0.9758 -1.8326  1.2600
15474SOL    HW258401   2.019  10.324   3.469 -2.0287  1.8774  2.1427
15475SOL     OW58402   7.703   0.812   9.088 -0.2782 -0.1237  0.4604
15475SOL    HW158403   7.640   0.884   9.091 -1.3184 -0.7628 -2.4683
15475SOL    HW258404   7.773   0.844   9.031 -1.0032 -1.4985 -1.3034
15476SOL     OW58405   6.007   2.435   6.381  0.0713 -0.1734  1.1337
15476SOL    HW158406   5.958   2.516   6.365 -1.6661 -1.7246 -2.6473
15476SOL    HW258407   6.085   2.443   6.326 -0.9299 -1.5968 -0.5968
15477SOL     OW58408   3.089   3.647   2.448 -0.4416  0.1915  0.4254
15477SOL    HW158409   3.105   3.659   2.354 -0.1388  1.1965  0.5896
15477SOL    HW258410   3.021   3.579   2.453 -0.0458 -0.2856 -0.4929
15478SOL     OW58411   7.261   6.012   7.043  0.3461  0.2843 -0.7511
15478SOL    HW158412   7.204   6.052   7.109  0.0754  0.7181 -1.2425
15478SOL    HW258413   7.345   6.000   7.088 -0.1290 -0.3768 -0.0162
15479SOL     OW58414   7.638   4.405   6.698 -0.0805 -0.2218  0.4210
15479SOL    HW158415   7.661   4.375   6.785 -0.5425 -0.2922  0.5204
15479SOL    HW258416   7.628   4.500   6.707 -2.4701 -0.4684  1.0018
15480SOL     OW58417   8.846   1.690   5.021 -0.2260  0.1965 -0.1007
15480SOL    HW158418   8.923   1.639   5.044 -0.0405  0.4072 -0.2444
15480SOL    HW258419   8.834   1.749   5.095 -0.2259  0.1901 -0.0956
15481SOL     OW58420   3.295   9.729   8.247 -0.3305  0.2580 -0.3359
15481SOL    HW158421   3.205   9.719   8.217  0.0520  0.7542 -1.7466
15481SOL    HW258422   3.315   9.646   8.290 -1.7976  0.5587  1.0092
15482SOL     OW58423   9.757   7.313   7.305 -0.0350 -0.4128 -0.1796
15482SOL    HW158424   9.725   7.329   7.393 -0.0542 -1.1654 -0.0474
15482SOL    HW258425   9.843   7.274   7.317 -0.8795 -2.4953 -0.4136
15483SOL     OW58426   5.558   8.879   1.225  0.1454  0.3971 -0.2546
15483SOL    HW158427   5.599   8.853   1.143 -0.4495 -0.6326 -0.2334
15483SOL    HW258428   5.631   8.898   1.284  0.5723  0.4538 -0.7941
15484SOL     OW58429   4.450   7.435   4.969  0.5606 -0.3698 -1.3235
15484SOL    HW158430   4.423   7.525   4.954  0.1781  0.0367  1.3681
15484SOL    HW258431   4.380   7.382   4.931 -2.3426  0.6321  2.0977
15485SOL     OW58432   4.756   1.319   8.907 -0.2702  0.2671 -0.5027
15485SOL    HW158433   4.727   1.410   8.902  1.6736  1.0235  0.6448
15485SOL    HW258434   4.820   1.311   8.836 -0.0480 -0.0463 -0.2680
15486SOL     OW58435   0.885   0.424   0.445 -0.0787 -0.1672 -0.2480
15486SOL    HW158436   0.925   0.343   0.413  2.7853  0.0929  2.2346
15486SOL    HW258437   0.819   0.395   0.508  0.8766 -0.6528  0.5639
15487SOL     OW58438   2.190   6.053   9.037  0.2411  0.0732  0.4768
15487SOL    HW158439   2.139   6.120   8.991  0.0534  0.4569  1.2209
15487SOL    HW258440   2.125   5.989   9.066  0.0702  0.8703  1.9508
15488SOL     OW58441   6.419   8.904   5.896  0.2459  0.1904 -0.4058
15488SOL    HW158442   6.387   8.990   5.922 -1.0066 -0.5987  0.7663
15488SOL    HW258443   6.340   8.851   5.886  1.0571 -1.5748  1.6839
15489SOL     OW58444   8.141   2.672  10.355  0.2004 -0.1140 -0.0339
15489SOL    HW158445   8.203   2.652  10.285  0.7408  0.2473  0.3357
15489SOL    HW258446   8.149   2.599  10.416 -1.1404 -1.0532 -0.9042
15490SOL     OW58447   9.149   4.267   8.670 -0.2462  0.3760 -0.6420
15490SOL    HW158448   9.151   4.197   8.735 -0.9736  0.9416  0.0083
15490SOL    HW258449   9.063   4.258   8.629 -2.0244  3.1787  2.0798
15491SOL     OW58450   2.980   2.257   7.341  0.6453  0.0689 -0.5938
15491SOL    HW158451   3.000   2.244   7.433 -2.3611 -1.9458 -0.0708
15491SOL    HW258452   2.908   2.320   7.341 -0.3576 -1.0215 -1.3753
15492SOL     OW58453   1.457   7.486   9.173 -0.3916 -0.1267  0.4026
15492SOL    HW158454   1.370   7.494   9.133  0.2882 -0.5632 -1.2281
15492SOL    HW258455   1.518   7.493   9.100  1.0248  1.2266  1.6379
15493SOL     OW58456   1.886   1.591   1.093  0.0280  0.3206 -0.3173
15493SOL    HW158457   1.813   1.652   1.096 -0.5145 -0.3126 -0.3457
15493SOL    HW258458   1.935   1.615   1.014  0.3584  1.3072  0.1740
15494SOL     OW58459   1.388   7.449   2.129  0.3283  0.5381 -0.0015
15494SOL    HW158460   1.425   7.537   2.116  0.6950  0.7137  1.8943
15494SOL    HW258461   1.294   7.463   2.124  0.3375  1.2812  1.3744
15495SOL     OW58462   8.088   0.524   4.873 -0.2163  0.4635 -0.0877
15495SOL    HW158463   8.003   0.504   4.836  0.1696  1.2885 -1.4966
15495SOL    HW258464   8.121   0.597   4.820  0.4271  1.6300  1.8216
15496SOL     OW58465   1.657  10.220   3.262 -0.5646  0.5295 -0.0776
15496SOL    HW158466   1.603  10.280   3.211  0.0675  0.9962 -0.2213
15496SOL    HW258467   1.747  10.241   3.236 -0.3433 -0.7008 -0.3649
15497SOL     OW58468   0.716   1.415   4.844  0.1565  0.3972 -0.0928
15497SOL    HW158469   0.789   1.385   4.790 -0.5285  2.0588 -2.0552
15497SOL    HW258470   0.640   1.369   4.809 -0.0051 -0.1580  0.9348
15498SOL     OW58471   3.083   2.926   7.858  0.4602 -0.2942 -0.4329
15498SOL    HW158472   3.035   2.865   7.914  2.8083 -1.0557  0.8968
15498SOL    HW258473   3.060   2.899   7.769 -0.6799 -1.3311  0.1431
15499SOL     OW58474   3.585   5.088   9.937  0.1575  0.6602 -0.0363
15499SOL    HW158475   3.521   5.034   9.891 -0.4390  0.6757  0.7512
15499SOL    HW258476   3.545   5.105  10.022  0.9918  1.1007  0.2793
15500SOL     OW58477   3.891   2.879   5.076 -0.8968  0.0447 -0.4106
15500SOL    HW158478   3.952   2.835   5.136 -1.5755 -0.3591 -0.0114
15500SOL    HW258479   3.808   2.835   5.089 -1.3722  0.8333 -0.6918
15501SOL     OW58480   5.857   3.407   4.714  0.2731  0.0203 -0.7660
15501SOL    HW158481   5.847   3.502   4.708  4.2538  0.7672  1.1776
15501SOL    HW258482   5.901   3.382   4.633  0.6720  0.1178 -0.5811
15502SOL     OW58483   3.261   7.656   4.833 -0.2657 -0.1358 -0.0267
15502SOL    HW158484   3.223   7.573   4.805  0.3044 -0.5446  0.3759
15502SOL    HW258485   3.307   7.635   4.914  1.9579 -0.0034 -1.1594
15503SOL     OW58486   3.158   4.301   1.795  0.1672  0.1312  0.1914
15503SOL    HW158487   3.096   4.228   1.799 -0.2021  0.4349  0.0828
15503SOL    HW258488   3.162   4.333   1.885  0.5049 -0.1619  0.2851
15504SOL     OW58489   9.086   9.117   2.839 -0.7725 -0.3805  0.2848
15504SOL    HW158490   9.109   9.197   2.790  0.4524 -0.9887 -0.1635
15504SOL    HW258491   9.019   9.146   2.901 -1.8691  0.5610 -1.2695
15505SOL     OW58492   2.721   6.731   9.691 -0.0398  0.2874  0.0290
15505SOL    HW158493   2.790   6.789   9.658  1.9595 -1.8654  0.1735
15505SOL    HW258494   2.641   6.764   9.650  1.4514  1.2851 -2.3267
15506SOL     OW58495   0.881   7.977   3.220  0.3481  0.2551  0.0354
15506SOL    HW158496   0.957   7.959   3.275  0.5622  0.0360 -0.3263
15506SOL    HW258497   0.807   7.941   3.270  0.3228  1.4376  0.8936
15507SOL     OW58498   2.548   3.187   4.624 -0.2850  0.2673  0.0183
15507SOL    HW158499   2.523   3.130   4.552 -0.1343  0.1436  0.0637
15507SOL    HW258500   2.555   3.129   4.700 -0.4225  0.3930  0.1291
15508SOL     OW58501  10.294   7.042   5.945 -0.1890 -0.2674 -0.0089
15508SOL    HW158502  10.355   7.030   6.017  0.0268 -0.6801 -0.2592
15508SOL    HW258503  10.348   7.045   5.867 -0.4660 -0.3360 -0.2050
15509SOL     OW58504   8.042   9.844   7.985  0.4710 -0.0921  0.6548
15509SOL    HW158505   7.968   9.787   7.965  0.1964  0.9006 -1.5506
15509SOL    HW258506   8.001   9.926   8.013  0.8291 -0.4685  2.3514
15510SOL     OW58507   2.335   1.197   8.553 -0.1549 -0.6710 -0.1709
15510SOL    HW158508   2.261   1.235   8.504  0.0917 -1.3547 -1.1017
15510SOL    HW258509   2.400   1.178   8.486  0.5866 -0.7376  0.5599
15511SOL     OW58510   8.834   3.429   8.673  0.0830  0.6403  0.5299
15511SOL    HW158511   8.766   3.489   8.644  1.6001  1.7982 -0.7791
15511SOL    HW258512   8.865   3.387   8.593 -1.5862 -2.7301  1.4803
15512SOL     OW58513   0.428   7.853   1.024 -0.1878  0.1660  0.0592
15512SOL    HW158514   0.406   7.855   1.117 -3.1117  0.9429 -0.5348
15512SOL    HW258515   0.364   7.911   0.983  0.5569 -0.6939 -2.5147
15513SOL     OW58516   6.318   5.188   1.185  0.1429 -0.0759  0.2388
15513SOL    HW158517   6.277   5.274   1.183  0.7020  0.1810 -0.5482
15513SOL    HW258518   6.269   5.136   1.122  1.2200  0.3460 -1.0039
15514SOL     OW58519   0.132   8.585   7.593 -0.2864  0.3873  0.1132
15514SOL    HW158520   0.041   8.565   7.614  0.0489  0.6729  2.0726
15514SOL    HW258521   0.128   8.670   7.549 -1.1550 -0.8995 -2.5138
15515SOL     OW58522   1.843   3.115   3.232 -0.1075 -0.1662  0.4485
15515SOL    HW158523   1.846   3.126   3.327 -1.3371 -2.0340  0.7556
15515SOL    HW258524   1.892   3.035   3.215 -0.7386 -0.4000 -0.3733
15516SOL     OW58525   0.793   5.763   4.325 -0.1111 -0.3372 -1.0126
15516SOL    HW158526   0.859   5.771   4.256 -0.0585 -0.9715 -1.0485
15516SOL    HW258527   0.842   5.775   4.407  0.5824 -3.2441 -0.8882
15517SOL     OW58528   0.126   4.112   1.614  0.0843 -0.1493  0.3343
15517SOL    HW158529   0.097   4.052   1.546 -1.0745 -0.1677  0.8204
15517SOL    HW258530   0.061   4.102   1.684 -1.0532  2.7920 -0.1866
15518SOL     OW58531   3.279   5.683   3.070 -0.3540  0.0592 -0.4926
15518SOL    HW158532   3.264   5.657   2.979 -1.5877  2.2474 -0.9769
15518SOL    HW258533   3.336   5.760   3.064  1.4087 -1.0450  0.7717
15519SOL     OW58534   8.721  10.175   3.338  0.2334  0.0699 -0.2946
15519SOL    HW158535   8.628  10.190   3.353 -0.0758 -0.7532 -1.2679
15519SOL    HW258536   8.762  10.191   3.423 -0.6599  1.3685 -0.0696
15520SOL     OW58537   8.242   2.278   3.370  0.1206  0.2649  0.1413
15520SOL    HW158538   8.253   2.259   3.463 -0.6429 -0.9514  0.0157
15520SOL    HW258539   8.156   2.320   3.364  1.2180  2.6623  0.2438
15521SOL     OW58540   2.045   3.584   4.433  0.3674  0.0973 -0.1860
15521SOL    HW158541   2.110   3.582   4.363  0.7127 -0.8372  0.1446
15521SOL    HW258542   1.993   3.505   4.421 -1.9672  1.7373 -1.5636
15522SOL     OW58543   4.162   7.618   5.785  0.4686 -0.4000 -0.1204
15522SOL    HW158544   4.111   7.630   5.705  1.3556  2.1162 -0.3990
15522SOL    HW258545   4.247   7.585   5.754  1.4792  2.3589 -0.5211
15523SOL     OW58546   9.972   9.926   9.116  0.5948 -0.2266 -0.1748
15523SOL    HW158547   9.915  10.002   9.104 -1.4867 -1.5159  0.8230
15523SOL    HW258548   9.959   9.874   9.037  2.7890  0.8399 -1.3188
15524SOL     OW58549   4.506  10.302   7.270 -0.3442 -0.2445 -0.0841
15524SOL    HW158550   4.497  10.237   7.340  0.1247  1.4136  1.5982
15524SOL    HW258551   4.600  10.317   7.264 -0.5423  1.6566  0.9384
15525SOL     OW58552   2.567   2.234   2.751  0.2860 -0.3294  0.4687
15525SOL    HW158553   2.543   2.284   2.829 -1.5987 -1.3782  0.6190
15525SOL    HW258554   2.594   2.301   2.687  1.4920  0.5629  1.8538
15526SOL     OW58555   5.158   9.494   1.729  0.0216  0.1024 -0.9642
15526SOL    HW158556   5.242   9.505   1.684 -0.2509 -0.1017 -1.5318
15526SOL    HW258557   5.097   9.548   1.679  0.0119  1.0479  0.0384
15527SOL     OW58558   0.495   6.004   1.837  0.2969 -0.7310 -0.5657
15527SOL    HW158559   0.472   5.967   1.752 -1.5995  0.3053 -0.5458
15527SOL    HW258560   0.413   6.008   1.886  0.9153  0.8912  0.4424
15528SOL     OW58561   6.216   6.273   5.703 -0.3069  0.0083  0.4259
15528SOL    HW158562   6.157   6.349   5.707  1.0703  1.2845 -1.6888
15528SOL    HW258563   6.302   6.308   5.726  0.5814 -0.5664 -1.7635
15529SOL     OW58564   1.769   0.202   9.340  0.0581 -0.4725 -0.1086
15529SOL    HW158565   1.734   0.159   9.418 -1.2974 -0.0116 -0.4363
15529SOL    HW258566   1.863   0.185   9.343 -0.0620 -0.9915  1.2872
15530SOL     OW58567   1.158   4.890   9.018 -0.2170  0.0995 -0.1503
15530SOL    HW158568   1.085   4.890   8.957  0.2128 -0.5995 -0.6830
15530SOL    HW258569   1.197   4.977   9.009  0.1483 -0.1575 -1.2692
15531SOL     OW58570   1.239   2.657   0.623 -0.1047 -0.2273 -0.4437
15531SOL    HW158571   1.149   2.690   0.612 -0.4875  0.4269  3.3095
15531SOL    HW258572   1.283   2.725   0.674  2.0015 -1.3986 -0.5887
15532SOL     OW58573   6.569   4.134   6.394  0.6352  0.2733 -0.1625
15532SOL    HW158574   6.521   4.056   6.368  0.7307  0.9136 -2.5454
15532SOL    HW258575   6.501   4.197   6.419  0.6001 -1.3206  4.7547
15533SOL     OW58576   4.027   0.625  10.063  0.1800 -0.2299 -0.1569
15533SOL    HW158577   4.106   0.623  10.117  1.0525  1.5722 -1.2718
15533SOL    HW258578   3.990   0.712  10.077  0.8395  0.5945 -2.9173
15534SOL     OW58579   5.958   3.806   2.468  0.4952 -0.0316  0.1947
15534SOL    HW158580   5.867   3.814   2.497  0.4174 -1.9496  0.6106
15534SOL    HW258581   5.952   3.805   2.372  0.2773  1.4487  0.1598
15535SOL     OW58582   1.716   6.583   9.708 -0.0295  0.3939  0.0995
15535SOL    HW158583   1.693   6.633   9.787 -0.6416 -0.2783  0.3563
15535SOL    HW258584   1.770   6.511   9.741  0.7393  0.7909 -0.2559
15536SOL     OW58585   3.472   0.427   1.105 -0.1678  0.0035 -0.0004
15536SOL    HW158586   3.489   0.384   1.188 -0.5998  1.8941  1.1383
15536SOL    HW258587   3.442   0.357   1.047 -0.2347 -1.2967  1.5367
15537SOL     OW58588   2.493   7.268   7.894  0.3430 -0.4637  0.7103
15537SOL    HW158589   2.478   7.256   7.988  0.5152 -0.2296  0.7686
15537SOL    HW258590   2.586   7.289   7.888 -0.0279  1.3894  0.6720
15538SOL     OW58591   3.678   6.259   4.826 -0.1602 -0.1310 -0.0282
15538SOL    HW158592   3.701   6.351   4.812 -0.5454  0.0317  0.3938
15538SOL    HW258593   3.761   6.218   4.852  0.0473  0.0612 -0.3732
15539SOL     OW58594   9.744  10.100   9.199  0.7650  0.5186 -0.5806
15539SOL    HW158595   9.651  10.079   9.190  0.9231  0.3226 -1.9124
15539SOL    HW258596   9.757  10.110   9.294 -0.1436 -1.6324 -0.1517
15540SOL     OW58597   9.018   4.058   3.836 -0.1739  0.9358  0.2278
15540SOL    HW158598   9.112   4.067   3.824 -0.0333  0.7602  1.1138
15540SOL    HW258599   8.990   3.997   3.768  0.8345 -1.2819  1.6862
15541SOL     OW58600   1.387   7.276   4.466 -0.8624 -0.3032  0.3324
15541SOL    HW158601   1.353   7.230   4.543  1.9793 -1.9168  0.7745
15541SOL    HW258602   1.338   7.239   4.392 -0.2908 -2.4270  0.9379
15542SOL     OW58603   9.773   8.038   2.034  0.0705  0.3369  0.3107
15542SOL    HW158604   9.803   8.066   1.948 -1.6658 -0.6212 -0.6464
15542SOL    HW258605   9.846   7.986   2.068 -0.3361 -1.8795 -1.9264
15543SOL     OW58606   8.943   6.490   1.680  0.3933  0.4307  0.0157
15543SOL    HW158607   8.971   6.581   1.686  2.1801 -0.1117  0.4472
15543SOL    HW258608   8.889   6.487   1.601  2.0898  1.4503 -1.2504
15544SOL     OW58609   3.785   5.785   7.055  0.0109 -0.1068  0.2423
15544SOL    HW158610   3.784   5.755   7.146 -2.4457  0.5702  0.5124
15544SOL    HW258611   3.789   5.705   7.003 -2.6447 -0.7985  0.9625
15545SOL     OW58612   7.107   1.794   2.579 -0.4198  0.6246 -0.5242
15545SOL    HW158613   7.023   1.754   2.603  0.4884  0.1199  2.0596
15545SOL    HW258614   7.160   1.720   2.548  0.2762  0.2181  1.4725
15546SOL     OW58615   3.972   1.854   6.245  0.3813 -0.0950 -0.1544
15546SOL    HW158616   3.925   1.896   6.317 -0.9503 -1.0683 -0.4175
15546SOL    HW258617   3.929   1.769   6.235  0.6656 -0.0668 -1.9438
15547SOL     OW58618   4.823   6.752   6.720  0.0644 -0.6662  0.2049
15547SOL    HW158619   4.728   6.745   6.713 -0.2097  0.4215  1.9636
15547SOL    HW258620   4.837   6.795   6.804  2.0836  0.2023 -0.5104
15548SOL     OW58621   0.904   9.894   9.734  0.5093  0.2512 -0.1957
15548SOL    HW158622   0.997   9.908   9.750  0.5283 -0.9444  0.8384
15548SOL    HW258623   0.894   9.912   9.640  1.5890  1.2627 -0.1511
15549SOL     OW58624   7.491   7.481   1.940  0.1609 -0.4093  0.3374
15549SOL    HW158625   7.408   7.448   1.903  0.4977 -2.0017  0.9103
15549SOL    HW258626   7.558   7.445   1.883  0.4753  0.8623 -0.1077
15550SOL     OW58627   5.673   8.561   3.363  0.1171  0.2201  0.0635
15550SOL    HW158628   5.654   8.623   3.292 -0.2747 -0.2665 -0.2655
15550SOL    HW258629   5.587   8.528   3.389  0.3821 -0.8180 -0.3466
15551SOL     OW58630   7.313  10.290   2.911 -0.3219 -0.0357 -0.2559
15551SOL    HW158631   7.337  10.371   2.866  0.2231 -0.3664 -0.5686
15551SOL    HW258632   7.269  10.319   2.991 -1.8907  0.5781 -1.2791
15552SOL     OW58633   3.432   0.560   3.846 -0.0643  0.1473 -0.2838
15552SOL    HW158634   3.479   0.494   3.795 -0.0987 -0.2547  0.1960
15552SOL    HW258635   3.440   0.640   3.794  1.0604  0.0660 -0.2647
15553SOL     OW58636   7.277  10.076   5.758  0.2384 -0.1978 -0.1959
15553SOL    HW158637   7.282  10.171   5.772  0.0134 -0.0041 -1.3468
15553SOL    HW258638   7.368  10.047   5.761  0.3689  0.1661 -0.4975
15554SOL     OW58639   9.738  10.112   6.124  0.0128 -0.0153  0.2959
15554SOL    HW158640   9.645  10.103   6.144  0.1239  0.1645  0.9189
15554SOL    HW258641   9.761  10.029   6.082 -1.1342  1.1114 -2.8803
15555SOL     OW58642   9.248   6.067   2.457 -0.1776 -0.9985 -0.4413
15555SOL    HW158643   9.235   6.006   2.530 -0.3725 -1.4365 -0.8316
15555SOL    HW258644   9.247   6.153   2.498  0.5574 -1.2719  0.1810
15556SOL     OW58645   1.407   4.211   5.288 -0.4774 -0.4876 -0.3820
15556SOL    HW158646   1.418   4.143   5.355  1.4974 -0.3711 -0.5449
15556SOL    HW258647   1.399   4.293   5.338 -1.1205 -0.6323 -0.2401
15557SOL     OW58648   2.190   9.563   7.357 -0.8001 -0.2930  0.2837
15557SOL    HW158649   2.284   9.554   7.338 -1.0411 -1.8145 -0.3110
15557SOL    HW258650   2.161   9.474   7.377 -2.6527 -0.3677 -2.2318
15558SOL     OW58651   7.111   4.562   9.027 -0.4546 -0.0482 -0.3144
15558SOL    HW158652   7.092   4.622   9.099 -2.7816 -3.8555  2.6098
15558SOL    HW258653   7.028   4.552   8.981 -0.2271 -1.2790 -0.4964
15559SOL     OW58654   6.929   0.707   3.172  0.0080 -0.1878  0.6924
15559SOL    HW158655   6.996   0.701   3.240  0.0633 -0.9971  0.5669
15559SOL    HW258656   6.978   0.711   3.090 -0.0995 -2.3681  0.4808
15560SOL     OW58657   6.345   8.482   3.905  0.2749  0.1252 -0.4387
15560SOL    HW158658   6.430   8.523   3.888  0.8236 -0.3122  1.0563
15560SOL    HW258659   6.345   8.402   3.852  1.0966 -0.2227  0.0646
15561SOL     OW58660   5.675   5.437   8.714 -0.0110 -0.0549  0.2971
15561SOL    HW158661   5.702   5.509   8.771 -0.8383 -0.9493  1.9031
15561SOL    HW258662   5.598   5.400   8.758 -0.8370 -0.6397 -1.5564
15562SOL     OW58663   4.567   2.833   7.012  0.7462 -0.1155 -0.5640
15562SOL    HW158664   4.658   2.805   7.015  0.7519 -0.3351 -1.8738
15562SOL    HW258665   4.571   2.928   7.016  1.0286 -0.1319 -0.4310
15563SOL     OW58666   2.132   9.455   2.338 -0.3783 -0.0046 -0.4556
15563SOL    HW158667   2.078   9.379   2.361  1.2371 -0.8220  0.8959
15563SOL    HW258668   2.114   9.471   2.245 -0.4095 -2.3703 -0.9208
15564SOL     OW58669   4.357   9.738   9.241  0.3818 -0.0730  0.0428
15564SOL    HW158670   4.433   9.792   9.264 -0.4618  0.6845  1.1558
15564SOL    HW258671   4.282   9.785   9.277 -0.4640 -1.5996  0.3645
15565SOL     OW58672   3.375   2.654   2.083 -0.2284 -0.4229  0.7955
15565SOL    HW158673   3.373   2.604   2.002 -1.8055  0.9641 -0.0808
15565SOL    HW258674   3.450   2.713   2.073 -0.9952  0.4319 -0.1304
15566SOL     OW58675   6.125   6.058   4.516  0.7282 -0.2277  0.0601
15566SOL    HW158676   6.186   5.992   4.550  0.6973 -1.1915 -1.6307
15566SOL    HW258677   6.132   6.050   4.420 -1.0530  0.5782 -0.1723
15567SOL     OW58678   8.373   8.668   2.645 -0.1091  0.0657 -0.5488
15567SOL    HW158679   8.294   8.620   2.623  0.7076 -0.3100 -2.8601
15567SOL    HW258680   8.429   8.604   2.689  0.4576 -0.8365 -2.4678
15568SOL     OW58681   7.763   8.532   9.574 -0.0121  0.0182 -0.6702
15568SOL    HW158682   7.682   8.555   9.527 -0.4495  0.4252  0.2734
15568SOL    HW258683   7.833   8.568   9.519 -0.5843  1.8955 -0.2557
15569SOL     OW58684   0.782   5.119   8.846  0.6098  0.7261  0.0183
15569SOL    HW158685   0.781   5.215   8.838 -1.2628  0.7079 -0.4341
15569SOL    HW258686   0.715   5.100   8.911  0.7324 -0.3038 -0.1518
15570SOL     OW58687   0.918   5.516   2.433  0.1249  0.1032  0.2608
15570SOL    HW158688   0.884   5.446   2.377 -3.7758 -1.0313  3.5891
15570SOL    HW258689   0.952   5.470   2.510 -0.2393  1.7435  1.4556
15571SOL     OW58690   2.640   6.389   7.808 -0.5337 -0.0202 -0.1203
15571SOL    HW158691   2.593   6.461   7.850 -0.6676 -0.1557 -0.0324
15571SOL    HW258692   2.610   6.391   7.717  0.7770  1.1192 -0.5601
15572SOL     OW58693   7.891   7.123   3.067  0.2200  0.4473  0.3166
15572SOL    HW158694   7.855   7.207   3.039 -0.7844 -0.3279 -0.8412
15572SOL    HW258695   7.830   7.090   3.132 -1.1538 -0.7575 -1.4737
15573SOL     OW58696   8.568   5.685   6.708 -0.1746 -0.2813  0.1889
15573SOL    HW158697   8.519   5.625   6.651 -1.2874  0.1321  0.6727
15573SOL    HW258698   8.655   5.691   6.668 -0.9492  0.0953 -1.5301
15574SOL     OW58699   4.722   2.640   2.059  0.5480 -0.0245 -0.2927
15574SOL    HW158700   4.742   2.719   2.110  2.1992  0.3937 -1.4940
15574SOL    HW258701   4.783   2.574   2.092  1.0616  0.0171 -1.1182
15575SOL     OW58702   6.666   9.704   1.287 -0.3289 -0.5205  0.6219
15575SOL    HW158703   6.608   9.755   1.231 -2.0228 -2.1820  0.7652
15575SOL    HW258704   6.667   9.616   1.248  2.9063 -0.3673  0.0809
15576SOL     OW58705   9.680   1.882   0.194 -0.2439 -0.2462  0.1434
15576SOL    HW158706   9.747   1.944   0.221  0.3481 -1.0691  0.6371
15576SOL    HW258707   9.676   1.818   0.265 -0.5882 -0.9606 -0.4949
15577SOL     OW58708   4.565   3.415   0.588 -0.6655  0.2164 -0.4576
15577SOL    HW158709   4.565   3.500   0.631 -1.3298 -0.0533  0.0977
15577SOL    HW258710   4.534   3.354   0.655 -1.2299 -0.2920 -1.1585
15578SOL     OW58711   3.954   8.751   2.177  0.2350  0.3345  0.1304
15578SOL    HW158712   4.014   8.823   2.195  2.4687 -1.4027  0.0475
15578SOL    HW258713   3.989   8.676   2.226 -1.1503 -1.0824 -0.9043
15579SOL     OW58714   1.899   0.237   6.246  0.0386 -0.0012 -0.1901
15579SOL    HW158715   1.840   0.295   6.295 -1.7920 -1.2829 -0.7899
15579SOL    HW258716   1.848   0.209   6.170  1.2534 -1.5190 -0.4946
15580SOL     OW58717   2.109   4.114   9.454 -0.3772 -0.1535 -0.1594
15580SOL    HW158718   2.106   4.194   9.402 -1.2014  0.1796  0.3698
15580SOL    HW258719   2.021   4.076   9.445 -1.1722  0.8605  2.3695
15581SOL     OW58720   0.458   8.336   0.051  0.4322 -0.4346 -0.1622
15581SOL    HW158721   0.450   8.242   0.065  0.3132 -0.2667  1.0240
15581SOL    HW258722   0.521   8.365   0.118  1.4565  0.1426 -1.3345
15582SOL     OW58723   8.528   5.568   6.080  0.0267  0.0852  0.0764
15582SOL    HW158724   8.569   5.630   6.019  1.5622 -0.8340  0.0981
15582SOL    HW258725   8.582   5.573   6.159 -1.2820  0.4518  0.9692
15583SOL     OW58726   3.822   1.021   0.522 -0.2637  0.1111 -0.2786
15583SOL    HW158727   3.836   0.928   0.538  2.0138  0.2336 -1.1898
15583SOL    HW258728   3.863   1.065   0.596  1.6306  0.4142 -1.4352
15584SOL     OW58729   9.158   1.055   3.710  0.5131  0.3110 -0.8365
15584SOL    HW158730   9.117   0.979   3.751  0.6309  1.0000  0.6290
15584SOL    HW258731   9.245   1.025   3.684  0.6465  0.0039 -0.0527
15585SOL     OW58732   2.368   7.778   8.617 -0.0959  1.1475  0.0970
15585SOL    HW158733   2.326   7.700   8.653 -0.2111  1.0394 -0.2596
15585SOL    HW258734   2.419   7.745   8.542  0.7490  1.2538  0.6163
15586SOL     OW58735   7.024   8.129   1.954 -0.1528  0.3534 -0.2242
15586SOL    HW158736   6.991   8.054   1.904 -2.9215  1.7097 -0.6629
15586SOL    HW258737   7.069   8.183   1.889 -0.0981  0.1111 -0.3875
15587SOL     OW58738   8.450   5.078   3.488 -0.0446  0.3207  0.5291
15587SOL    HW158739   8.522   5.051   3.430  2.1105 -0.7683  3.4853
15587SOL    HW258740   8.415   4.996   3.522 -2.6154  0.8489 -0.5736
15588SOL     OW58741   1.412   4.738   5.802  0.3671 -0.2606  0.0827
15588SOL    HW158742   1.458   4.786   5.870 -1.6464 -0.3299  1.5807
15588SOL    HW258743   1.438   4.647   5.815  1.2442 -0.0825 -0.3289
15589SOL     OW58744   1.079   4.302   6.979 -0.4718 -0.6958 -0.0719
15589SOL    HW158745   1.001   4.287   6.925 -0.9408 -1.1789  0.7182
15589SOL    HW258746   1.050   4.286   7.069  0.4090 -0.3550  0.2879
15590SOL     OW58747   5.134   8.725   5.028 -0.0649  0.3843 -0.5365
15590SOL    HW158748   5.073   8.745   4.957  0.0218 -0.9788 -1.0177
15590SOL    HW258749   5.083   8.673   5.089  0.2535  0.3781 -0.2773
15591SOL     OW58750   2.368   0.293   0.133  0.4434 -0.6905  0.3526
15591SOL    HW158751   2.340   0.249   0.053  0.1091 -0.9952  0.6330
15591SOL    HW258752   2.427   0.230   0.175  1.4916 -0.0910 -0.1897
15592SOL     OW58753   6.434   6.190   4.850 -0.5235 -0.0524  0.6682
15592SOL    HW158754   6.486   6.167   4.926  0.0903 -0.4790  0.1236
15592SOL    HW258755   6.494   6.236   4.792 -0.7845 -0.4048  0.1069
15593SOL     OW58756   7.823   8.079   0.068  0.1129 -0.6201  0.5412
15593SOL    HW158757   7.775   8.153   0.105  0.4663 -0.3752  0.5193
15593SOL    HW258758   7.847   8.108  -0.020 -0.6415 -1.1648  0.1410
15594SOL     OW58759   2.000   6.254   2.523 -0.7259 -0.0244 -0.0037
15594SOL    HW158760   2.057   6.203   2.466 -1.7360  0.5105 -1.5553
15594SOL    HW258761   1.975   6.330   2.470  2.2589  3.2965  2.7956
15595SOL     OW58762   4.432   6.537  10.033  0.2972  0.4858 -0.3158
15595SOL    HW158763   4.433   6.500   9.944  1.3574  1.3828 -0.6961
15595SOL    HW258764   4.524   6.553  10.053  0.1341 -0.4480  1.2781
15596SOL     OW58765   0.754   0.129   9.952  0.3626 -0.7139  0.3285
15596SOL    HW158766   0.815   0.199   9.974  2.2468 -1.7106 -1.4397
15596SOL    HW258767   0.674   0.175   9.925  0.7701  0.6591  1.3491
15597SOL     OW58768   6.097   7.323   0.834 -0.3563  0.1032 -0.4936
15597SOL    HW158769   6.171   7.346   0.778  1.6371 -1.2220  1.4696
15597SOL    HW258770   6.053   7.252   0.787  0.0169  0.4197 -1.3419
15598SOL     OW58771   5.822   9.261   7.790 -0.2226 -0.6305  0.3417
15598SOL    HW158772   5.823   9.167   7.805  0.2734 -0.6352  0.2958
15598SOL    HW258773   5.802   9.270   7.697  1.3731 -0.7571 -0.0506
15599SOL     OW58774   1.077   0.831   1.193 -0.3892  0.3002 -0.0235
15599SOL    HW158775   1.042   0.824   1.105  1.1673  1.1019 -0.7510
15599SOL    HW258776   1.079   0.925   1.211  0.0935  0.1927  0.5191
15600SOL     OW58777  10.030   3.450   3.619 -0.5734  0.1618 -0.2808
15600SOL    HW158778  10.049   3.396   3.543  0.8885  0.7557 -0.3888
15600SOL    HW258779  10.044   3.540   3.588 -2.0704  0.5551  0.1270
15601SOL     OW58780   4.062   7.011   2.870  0.0720  0.9008 -0.2982
15601SOL    HW158781   4.003   7.020   2.945  0.6816 -2.5186  0.7821
15601SOL    HW258782   4.007   6.974   2.801  0.1352  1.4170 -0.6339
15602SOL     OW58783   6.869  10.380   0.747  0.0151 -0.3058  0.1082
15602SOL    HW158784   6.930  10.453   0.736  0.1389 -0.4682 -0.3094
15602SOL    HW258785   6.824  10.374   0.663 -1.1811  0.3470  0.6826
15603SOL     OW58786   4.693   7.645   5.763  0.1833 -0.1023  0.1471
15603SOL    HW158787   4.698   7.624   5.856 -1.8893  0.0032  0.3413
15603SOL    HW258788   4.668   7.562   5.722  0.8345 -0.0860 -0.2962
15604SOL     OW58789  10.008   0.103   6.524  0.2273 -0.0801  0.2037
15604SOL    HW158790   9.992   0.071   6.435 -0.4933 -0.9210  0.6222
15604SOL    HW258791  10.079   0.167   6.514 -0.8726  0.9963 -1.2021
15605SOL     OW58792   4.936   3.740   4.177 -0.2637 -0.1017 -0.2150
15605SOL    HW158793   4.944   3.771   4.268  1.2871 -1.8811  0.3088
15605SOL    HW258794   4.871   3.670   4.182  0.0605 -0.4150 -0.4193
15606SOL     OW58795   6.870   6.157   7.885 -0.1606 -0.0271 -0.4170
15606SOL    HW158796   6.840   6.245   7.860  0.6829  0.9762  1.7641
15606SOL    HW258797   6.791   6.111   7.911 -0.4616  0.6851 -0.0202
15607SOL     OW58798   1.465   3.486   2.943  0.0473 -0.2591  0.2439
15607SOL    HW158799   1.424   3.436   2.873  0.6210  0.0118 -0.2941
15607SOL    HW258800   1.517   3.553   2.898  0.3268 -0.0035  0.9275
15608SOL     OW58801   1.214   2.789   5.840  0.8023 -0.3411 -0.1802
15608SOL    HW158802   1.248   2.853   5.903  2.4979 -0.5059 -0.8624
15608SOL    HW258803   1.293   2.754   5.798 -0.2176 -1.2924 -1.3522
15609SOL     OW58804  10.215   8.381   3.129 -0.4881  0.3243  0.5724
15609SOL    HW158805  10.152   8.314   3.103 -0.5948  0.6957 -0.1709
15609SOL    HW258806  10.161   8.450   3.168 -1.0693  2.2013 -3.1179
15610SOL     OW58807   3.006   5.924   2.615 -0.2174  0.6339  0.0647
15610SOL    HW158808   3.047   5.871   2.547 -0.8567  0.0791  0.1025
15610SOL    HW258809   3.040   6.013   2.600  1.0017  0.1920  0.1198
15611SOL     OW58810  10.174   3.745  10.051 -0.1561  0.8995 -0.2378
15611SOL    HW158811  10.167   3.697  10.133 -0.8187  0.4326 -0.5597
15611SOL    HW258812  10.213   3.829  10.076  1.9526 -0.1214  0.1911
15612SOL     OW58813   8.672   0.658   3.925 -0.8262  0.4870  0.4292
15612SOL    HW158814   8.749   0.639   3.872 -0.3084 -0.0948  1.3736
15612SOL    HW258815   8.602   0.672   3.861 -0.1272  0.2007 -0.4138
15613SOL     OW58816   2.793  10.335   7.696  1.0395 -0.4693 -0.1080
15613SOL    HW158817   2.830  10.409   7.743  1.5845 -0.1210 -1.0469
15613SOL    HW258818   2.845  10.260   7.724 -0.3177 -0.7588  1.8024
15614SOL     OW58819   8.747   8.507   6.632 -0.6829 -0.3067 -0.1127
15614SOL    HW158820   8.715   8.448   6.701  2.2102  1.5776  3.1736
15614SOL    HW258821   8.678   8.571   6.621 -2.0062 -1.7276 -0.4620
15615SOL     OW58822   5.532   1.367   0.077  0.4587  0.1430 -0.1098
15615SOL    HW158823   5.449   1.414   0.069  1.0445  1.3871  0.7799
15615SOL    HW258824   5.526   1.323   0.162  0.3712 -0.4942 -0.4372
15616SOL     OW58825   6.812   0.477   0.875  0.1323  0.3357  0.3721
15616SOL    HW158826   6.907   0.486   0.869  0.2739 -0.9081  0.5180
15616SOL    HW258827   6.784   0.459   0.785  0.2786 -1.2289  0.6123
15617SOL     OW58828   7.692   1.411   6.135 -0.1330 -0.1657 -0.3432
15617SOL    HW158829   7.734   1.471   6.198  0.3336  0.4598 -1.2300
15617SOL    HW258830   7.738   1.427   6.053 -1.4819 -0.1687 -1.1187
15618SOL     OW58831   7.997   7.091   4.450 -0.6830  0.4639 -0.1843
15618SOL    HW158832   7.949   7.069   4.529 -1.6451 -0.3320 -0.9650
15618SOL    HW258833   7.952   7.044   4.380  0.8438  0.1976 -1.0543
15619SOL     OW58834   0.195   6.367   1.514 -0.5877  0.4811 -0.3081
15619SOL    HW158835   0.242   6.294   1.474 -0.9457  0.2996 -0.4065
15619SOL    HW258836   0.249   6.394   1.588 -1.8906 -1.8726  1.6382
15620SOL     OW58837   9.072   5.732   4.401  0.4483 -0.3658  0.4996
15620SOL    HW158838   9.025   5.809   4.432  0.4367  0.1216 -0.6956
15620SOL    HW258839   9.112   5.695   4.480  0.6553  0.9840  1.0560
15621SOL     OW58840   8.692   5.262   7.035 -0.0770 -0.4856  0.7482
15621SOL    HW158841   8.649   5.287   7.117  0.4500 -1.9324  1.5042
15621SOL    HW258842   8.773   5.219   7.062  1.6905  1.7073 -0.6200
15622SOL     OW58843   5.101   5.929   7.356 -0.2213 -0.1430  0.3432
15622SOL    HW158844   5.105   5.977   7.273 -0.9696  1.8036  1.3805
15622SOL    HW258845   5.138   5.843   7.335  2.9001  1.4192 -1.1971
15623SOL     OW58846   6.280   1.685   8.166  0.2947  0.4971  0.2630
15623SOL    HW158847   6.371   1.658   8.163  0.5469  1.2805 -3.0088
15623SOL    HW258848   6.283   1.781   8.169 -0.3329  0.5844 -0.9253
15624SOL     OW58849   8.592   8.352   7.846  0.1928 -0.0717  0.5744
15624SOL    HW158850   8.571   8.264   7.816  1.6190  0.5111 -2.4711
15624SOL    HW258851   8.509   8.399   7.843 -0.3154 -0.9277  0.8741
15625SOL     OW58852   1.630   8.972   7.423 -0.0388 -0.0373  0.0574
15625SOL    HW158853   1.620   8.887   7.464  1.6752 -0.5584 -0.5309
15625SOL    HW258854   1.697   9.017   7.475 -0.1547  0.5290 -0.2633
15626SOL     OW58855   9.072   5.780   6.914  0.3921  0.0612 -0.3935
15626SOL    HW158856   9.023   5.856   6.944  1.5130  0.1275  1.4309
15626SOL    HW258857   9.164   5.807   6.918  0.7157  0.1626 -4.3197
15627SOL     OW58858   3.260   7.479   8.781  0.0572  0.1955 -0.2014
15627SOL    HW158859   3.346   7.437   8.778 -0.3307 -0.7257  0.8563
15627SOL    HW258860   3.208   7.424   8.840 -1.0203  1.1882 -0.1789
15628SOL     OW58861   9.626   6.935   3.262  0.0431  0.4381 -0.2170
15628SOL    HW158862   9.637   6.899   3.174 -1.5111 -0.2481 -0.1688
15628SOL    HW258863   9.608   6.858   3.317  0.1495  0.9416  0.5411
15629SOL     OW58864   7.256  10.348   3.160  0.3359 -0.8625 -0.0097
15629SOL    HW158865   7.167  10.354   3.195  0.7684 -0.5500  1.0655
15629SOL    HW258866   7.281  10.257   3.174  0.0350 -1.0583 -0.7087
15630SOL     OW58867   2.361   9.138   8.992 -0.2382 -0.0662 -0.4414
15630SOL    HW158868   2.357   9.101   9.080  2.0348  0.0686 -0.2215
15630SOL    HW258869   2.422   9.212   9.000  0.9504 -0.7651 -2.3353
15631SOL     OW58870   6.255   1.454   7.039 -0.1489  0.2090  0.1779
15631SOL    HW158871   6.316   1.521   7.068  2.1003 -2.2719  1.6182
15631SOL    HW258872   6.199   1.438   7.116  0.8110 -1.0602  0.6462
15632SOL     OW58873   2.874   0.945   6.142  0.1237 -0.2433 -0.8657
15632SOL    HW158874   2.813   0.972   6.073  0.7934  1.0821 -0.9714
15632SOL    HW258875   2.842   0.859   6.170 -2.4672  0.8563 -0.1442
15633SOL     OW58876   6.993   6.656   5.464  0.2154 -0.8106 -0.2215
15633SOL    HW158877   7.062   6.680   5.526 -1.3004  2.1427  0.4750
15633SOL    HW258878   7.028   6.579   5.419  3.9562  0.5349  0.0426
15634SOL     OW58879   5.302   6.508   8.357  0.0093 -0.4683 -0.0923
15634SOL    HW158880   5.352   6.467   8.429  0.8129  0.5367 -0.0455
15634SOL    HW258881   5.235   6.559   8.402  0.2852 -0.1285 -0.0584
15635SOL     OW58882   9.390   5.442   6.736 -0.0929 -0.7643 -0.1696
15635SOL    HW158883   9.441   5.391   6.673  1.1676  1.1159 -0.7471
15635SOL    HW258884   9.311   5.467   6.689 -0.1930 -1.2191 -0.2496
15636SOL     OW58885   0.078   6.244   4.729  0.2440 -0.2071 -0.6566
15636SOL    HW158886   0.098   6.224   4.637 -0.2225 -3.3940 -0.1812
15636SOL    HW258887   0.132   6.183   4.779 -3.0431 -2.0907  0.9537
15637SOL     OW58888   5.823   0.040   6.434 -0.7530  0.8714  0.5224
15637SOL    HW158889   5.757   0.089   6.384 -0.5477 -1.4287 -2.2074
15637SOL    HW258890   5.808  -0.051   6.410  2.4554  0.1143  1.0369
15638SOL     OW58891   7.434   3.698   3.722  0.0413 -0.0610  0.6180
15638SOL    HW158892   7.348   3.672   3.755 -0.8579 -1.5386 -2.4880
15638SOL    HW258893   7.474   3.616   3.693  2.5607  0.6075  1.9600
15639SOL     OW58894   4.472   0.834   7.451 -0.3061 -0.2271 -0.5051
15639SOL    HW158895   4.558   0.793   7.458 -0.0987  0.1518 -0.8490
15639SOL    HW258896   4.448   0.824   7.358  0.0091  0.9648 -0.7234
15640SOL     OW58897   8.611  10.305  10.139 -0.0626  0.0042  0.2291
15640SOL    HW158898   8.549  10.370  10.172  0.7524  0.3821  1.0743
15640SOL    HW258899   8.558  10.227  10.122 -0.7472  0.2855  1.0271
15641SOL     OW58900   9.874   8.080   2.697 -0.1575 -0.1170  0.5604
15641SOL    HW158901   9.858   8.156   2.751 -1.6055 -0.0596  0.1002
15641SOL    HW258902   9.867   8.112   2.607  0.4393 -0.5459  0.3553
15642SOL     OW58903   0.097   1.085   3.672  0.0265  0.4970 -0.8741
15642SOL    HW158904   0.025   1.114   3.617  0.7719  0.3604 -1.9573
15642SOL    HW258905   0.168   1.064   3.610  0.9966  0.6480  0.1432
15643SOL     OW58906   6.819   7.588   0.251  0.4350  0.0139 -0.1745
15643SOL    HW158907   6.778   7.528   0.189  1.3409 -0.2215 -0.5602
15643SOL    HW258908   6.913   7.570   0.244  0.5925  0.3760  0.8603
15644SOL     OW58909   9.133   6.941   8.675  0.5882 -0.4351 -0.1592
15644SOL    HW158910   9.223   6.927   8.646  0.5116  0.9691 -1.2194
15644SOL    HW258911   9.116   6.871   8.738  1.5654 -2.2289 -1.8086
15645SOL     OW58912   1.415   8.056   4.174  0.4379 -0.5163  0.5178
15645SOL    HW158913   1.500   8.012   4.176 -1.0185 -3.6261 -0.0324
15645SOL    HW258914   1.373   8.030   4.257 -0.9234 -1.2262 -0.3540
15646SOL     OW58915  10.349   8.073   7.788  0.7906  0.3086  0.1250
15646SOL    HW158916  10.425   8.022   7.816  0.6460 -0.5949 -1.0330
15646SOL    HW258917  10.357   8.078   7.693 -0.1312  0.9637  0.0667
15647SOL     OW58918   6.248   7.638   4.828  0.0769  0.1088 -0.5224
15647SOL    HW158919   6.245   7.733   4.825 -0.0014  0.0828 -2.1898
15647SOL    HW258920   6.169   7.610   4.781  0.5293 -0.7738 -0.7783
15648SOL     OW58921   9.748   4.785   5.606  0.0146 -0.5511 -0.7955
15648SOL    HW158922   9.655   4.765   5.605 -0.0375 -0.5070 -3.0542
15648SOL    HW258923   9.791   4.705   5.576  0.6709 -0.4279 -0.2198
15649SOL     OW58924   3.235  10.272  10.097 -0.1044 -0.5770 -0.4340
15649SOL    HW158925   3.204  10.217  10.025 -0.2250 -0.9879 -0.0729
15649SOL    HW258926   3.193  10.236  10.175 -1.4080  0.9789 -0.3701
15650SOL     OW58927   5.072   7.235   5.681 -0.7182  0.6054  0.8131
15650SOL    HW158928   5.029   7.150   5.666  0.5725  0.2217 -0.9742
15650SOL    HW258929   5.039   7.291   5.611 -1.5067  1.6025  1.9419
15651SOL     OW58930   8.059  10.116   1.616 -0.1540 -0.3724 -0.7205
15651SOL    HW158931   8.143  10.086   1.651  0.2225 -0.7339 -1.8859
15651SOL    HW258932   7.995  10.091   1.682  0.5003 -1.3078 -0.4254
15652SOL     OW58933   2.333   7.301   1.190  0.1458  0.0251  0.4706
15652SOL    HW158934   2.338   7.380   1.136 -0.0284 -0.8748 -0.8951
15652SOL    HW258935   2.363   7.231   1.133 -2.7072 -1.4016  0.6089
15653SOL     OW58936   8.928   8.822   5.067 -0.0629 -0.5946  0.1777
15653SOL    HW158937   8.952   8.834   4.975 -1.3923 -1.2112 -0.2637
15653SOL    HW258938   9.001   8.772   5.104  0.3182 -0.6392 -0.6151
15654SOL     OW58939   1.993   4.109   5.749  0.1064  0.4551 -0.2620
15654SOL    HW158940   1.964   4.155   5.670  0.9809  2.1831  0.3669
15654SOL    HW258941   2.075   4.153   5.774  0.3627 -0.6924  1.0607
15655SOL     OW58942   5.458   2.394   6.893  0.1569 -0.2295  0.2111
15655SOL    HW158943   5.495   2.349   6.817 -0.5233  0.6110 -0.6452
15655SOL    HW258944   5.380   2.438   6.859 -1.2056 -1.2879  1.7827
15656SOL     OW58945   5.706   9.192   8.077 -0.1463 -0.1440  0.0569
15656SOL    HW158946   5.624   9.210   8.032 -0.8334  1.5349  1.8544
15656SOL    HW258947   5.690   9.111   8.126  0.2590 -1.3787 -1.7232
15657SOL     OW58948   7.039   5.014   8.508 -0.1333  0.1247 -0.1520
15657SOL    HW158949   7.108   4.958   8.471 -0.9495 -0.8419 -0.2493
15657SOL    HW258950   7.058   5.100   8.472  0.3372 -0.3650 -1.1372
15658SOL     OW58951   6.267   3.472   1.182  0.1498 -0.0375  0.1491
15658SOL    HW158952   6.195   3.521   1.144 -0.4778  0.4128  1.8428
15658SOL    HW258953   6.284   3.402   1.119  0.1754  1.5194 -1.6588
15659SOL     OW58954   7.354   4.980   3.826 -0.6843 -0.9268  0.4204
15659SOL    HW158955   7.315   4.916   3.885 -0.6350 -0.2367  1.2170
15659SOL    HW258956   7.312   5.063   3.848  0.2905 -0.4069  0.4089
15660SOL     OW58957   2.440   9.662   0.190 -0.4040 -0.2174 -0.2151
15660SOL    HW158958   2.521   9.668   0.241 -0.1380 -0.9313 -0.5388
15660SOL    HW258959   2.411   9.572   0.202  1.4119 -1.5240 -3.8839
15661SOL     OW58960   7.289   9.349   9.219  0.1091  0.1374  0.3591
15661SOL    HW158961   7.220   9.285   9.235 -0.7875  1.3077  1.3579
15661SOL    HW258962   7.332   9.359   9.304 -0.8770  2.0820  0.6926
15662SOL     OW58963   5.115   2.040   7.104  0.2122  0.1357  0.3988
15662SOL    HW158964   5.085   1.985   7.032  0.0835 -1.1556  1.3935
15662SOL    HW258965   5.059   2.016   7.178  0.6240  1.1069  1.0561
15663SOL     OW58966   3.989  10.169   8.220  0.3654  0.2281 -0.0822
15663SOL    HW158967   4.011  10.134   8.134  0.0616  1.7930 -0.8216
15663SOL    HW258968   4.064  10.224   8.244 -0.1844  0.9743 -0.0245
15664SOL     OW58969   6.235   0.651   0.403  0.2907  0.1308  0.5163
15664SOL    HW158970   6.287   0.596   0.344  0.2897  0.9518 -0.2738
15664SOL    HW258971   6.296   0.720   0.430  0.0086  0.3143  0.6848
15665SOL     OW58972   4.586   3.730   9.041 -0.5557 -0.1085 -0.1407
15665SOL    HW158973   4.505   3.780   9.042 -0.7929 -0.4679  1.5477
15665SOL    HW258974   4.559   3.641   9.019 -0.6602 -0.2605  0.5718
15666SOL     OW58975   4.608   6.058   2.084  0.1243 -0.1547 -0.3116
15666SOL    HW158976   4.617   5.977   2.134  1.3774 -1.5735 -2.6526
15666SOL    HW258977   4.689   6.106   2.101  0.0386 -0.0937 -0.0773
15667SOL     OW58978   2.260   5.194   1.470 -0.3519 -0.4307  0.3678
15667SOL    HW158979   2.338   5.174   1.522 -0.3888 -2.3422 -0.2421
15667SOL    HW258980   2.193   5.136   1.505 -0.4870 -1.4595 -1.4972
15668SOL     OW58981   7.770   7.369   2.963  0.4156 -0.0844  0.6888
15668SOL    HW158982   7.801   7.454   2.933 -1.0348  0.5877  0.9939
15668SOL    HW258983   7.713   7.389   3.037 -1.3123 -1.1761 -0.2862
15669SOL     OW58984   8.459  10.187   6.805  0.2746  0.0684  0.0556
15669SOL    HW158985   8.385  10.246   6.819  0.8867  0.3962  2.1235
15669SOL    HW258986   8.519  10.237   6.749 -0.8641 -0.0751 -1.3623
15670SOL     OW58987   6.450   9.943   4.614 -0.6098 -0.6504  0.4407
15670SOL    HW158988   6.439   9.851   4.638 -0.4844 -1.0353 -0.9197
15670SOL    HW258989   6.466   9.942   4.520 -0.1380  0.7346  0.4835
15671SOL     OW58990   7.908   0.363  10.106 -0.6420 -0.5537 -0.0220
15671SOL    HW158991   7.934   0.275  10.135  1.6599 -0.3765 -1.3521
15671SOL    HW258992   7.944   0.422  10.173  0.3384 -0.4626 -0.6159
15672SOL     OW58993   2.613   9.048  10.206 -0.1914  0.0466 -0.4881
15672SOL    HW158994   2.640   9.130  10.246 -0.8466  0.2007 -0.3413
15672SOL    HW258995   2.685   8.987  10.222 -0.9279 -0.2672  2.0763
15673SOL     OW58996   2.089   0.454   8.101  0.6343  0.0612 -0.0296
15673SOL    HW158997   2.084   0.407   8.017 -1.5602 -1.0571  0.6494
15673SOL    HW258998   2.014   0.513   8.100 -0.0624 -0.7444  1.5537
15674SOL     OW58999   8.815   2.377   0.119  0.3797 -0.1257  0.1802
15674SOL    HW159000   8.882   2.436   0.154 -1.3756  1.8183  0.4663
15674SOL    HW259001   8.857   2.333   0.046  1.6514  1.8371 -0.3257
15675SOL     OW59002   7.964   2.924   8.892 -0.1452 -0.0014 -0.2742
15675SOL    HW159003   7.900   2.942   8.824 -0.5620  1.0759  0.3715
15675SOL    HW259004   8.048   2.922   8.846 -0.5432 -0.5313 -0.9930
15676SOL     OW59005   9.933   2.070  10.362 -0.1562  0.1575  0.1339
15676SOL    HW159006   9.867   2.078  10.293  1.3136  3.0611 -1.1308
15676SOL    HW259007   9.890   2.102  10.441 -0.6898  0.6385 -0.3445
15677SOL     OW59008   7.546   5.564   8.634  0.2561  0.0043 -0.2554
15677SOL    HW159009   7.550   5.658   8.617 -0.0777 -0.3396 -2.6336
15677SOL    HW259010   7.453   5.543   8.628  0.3485 -0.5000  0.0623
15678SOL     OW59011   0.600   3.005   0.319  0.3403  0.2405 -0.5021
15678SOL    HW159012   0.550   2.931   0.285  1.9307 -1.1852  0.1305
15678SOL    HW259013   0.615   2.983   0.411  0.0098  1.8362 -0.0396
15679SOL     OW59014   1.993   5.537   9.596  0.0161 -0.7052  0.4588
15679SOL    HW159015   2.070   5.511   9.646  0.1057  0.0281  0.7143
15679SOL    HW259016   1.919   5.503   9.646  0.2022 -2.8133 -0.6112
15680SOL     OW59017   8.971   7.776   8.187  0.0910 -0.6125  0.0609
15680SOL    HW159018   8.932   7.806   8.105  1.1133 -0.1748 -0.2867
15680SOL    HW259019   8.925   7.825   8.255 -0.9522 -1.1759 -0.2064
15681SOL     OW59020   3.539   1.510   9.919 -0.4820  0.2360 -0.6090
15681SOL    HW159021   3.446   1.488   9.904 -0.2756 -1.1059 -0.0589
15681SOL    HW259022   3.539   1.553  10.005 -0.6387  0.5767 -0.7773
15682SOL     OW59023   9.983   5.375   8.590  0.2091  0.3307 -0.0401
15682SOL    HW159024   9.999   5.366   8.684 -1.4230  2.6806  0.5656
15682SOL    HW259025  10.042   5.312   8.549  0.1455 -1.5982  2.5939
15683SOL     OW59026   7.096   7.245   4.293 -0.4519 -0.1328  0.3159
15683SOL    HW159027   7.023   7.287   4.340 -0.9985  0.0812 -0.6995
15683SOL    HW259028   7.054   7.196   4.222  0.2306 -1.8908  1.0647
15684SOL     OW59029   6.116   1.071   7.572  0.3470  0.1077  0.1568
15684SOL    HW159030   6.127   1.166   7.584 -0.0236  0.1730 -0.0030
15684SOL    HW259031   6.146   1.055   7.483 -3.7231  0.8225 -1.5869
15685SOL     OW59032  10.146   2.592   8.275 -0.3262 -0.0907 -0.0576
15685SOL    HW159033  10.094   2.672   8.270  0.3456  0.6110  2.4840
15685SOL    HW259034  10.082   2.522   8.287 -0.8042  0.5590  1.4135
15686SOL     OW59035   1.345   0.171   1.606  0.1661  0.3160  0.0864
15686SOL    HW159036   1.395   0.094   1.578 -0.6771  0.1212 -0.9721
15686SOL    HW259037   1.256   0.138   1.617  0.0606  0.8700  0.9703
15687SOL     OW59038   8.605   1.037   5.717  0.0480  0.2073 -1.0249
15687SOL    HW159039   8.615   1.030   5.622 -0.5782 -2.4667 -0.9627
15687SOL    HW259040   8.512   1.021   5.733 -0.0840  1.7582  0.0022
15688SOL     OW59041   1.624   4.875   0.080  0.0915 -0.0897 -0.5816
15688SOL    HW159042   1.677   4.912   0.009  1.6642 -2.2311 -0.6214
15688SOL    HW259043   1.536   4.908   0.064  1.3587  4.2011 -0.1699
15689SOL     OW59044   1.954   1.801  10.282  0.3416 -0.0933 -0.5742
15689SOL    HW159045   1.861   1.821  10.276 -0.2267 -1.9465  1.1864
15689SOL    HW259046   1.991   1.832  10.199 -1.7370  1.0635 -1.1242
15690SOL     OW59047   4.353   5.783   0.388  0.0499 -0.1369 -0.2587
15690SOL    HW159048   4.287   5.837   0.344  0.3909  0.1786 -0.3873
15690SOL    HW259049   4.304   5.736   0.456 -0.2659  0.2845 -0.1903
15691SOL     OW59050   9.993   9.982   6.088  0.5053 -0.2670  0.0756
15691SOL    HW159051  10.029   9.960   6.002  0.8294  0.8045 -0.0751
15691SOL    HW259052   9.941   9.905   6.112  1.9307 -1.3865 -0.2182
15692SOL     OW59053   4.785   3.151   2.409  0.0042  0.5753  0.6232
15692SOL    HW159054   4.854   3.152   2.343  0.2523 -0.9970  0.8154
15692SOL    HW259055   4.736   3.071   2.391 -0.9022  0.9448  1.3697
15693SOL     OW59056   6.052   6.389   3.312 -0.3992  0.3109  0.1305
15693SOL    HW159057   6.085   6.301   3.327 -0.8783  0.2887  1.1488
15693SOL    HW259058   5.997   6.408   3.388  1.7395  2.4499  1.2960
15694SOL     OW59059   4.399   5.858   0.737  0.2876  0.7828 -0.1398
15694SOL    HW159060   4.425   5.809   0.815 -0.2651  0.7599  0.0351
15694SOL    HW259061   4.468   5.841   0.673  0.4959  0.4082  0.1834
15695SOL     OW59062   7.917   5.052   9.262 -0.5272  0.3964  0.2809
15695SOL    HW159063   7.897   5.006   9.181 -1.2741  1.2440 -0.0362
15695SOL    HW259064   7.970   5.127   9.234  1.7409 -0.8627  0.9136
15696SOL     OW59065   9.252   1.289   1.815 -0.2741 -0.5989 -0.4376
15696SOL    HW159066   9.240   1.365   1.873 -0.7490 -1.2251  0.3099
15696SOL    HW259067   9.346   1.287   1.797 -0.0119 -0.7401  0.8372
15697SOL     OW59068   0.518   4.531   6.673 -0.3009 -0.2048 -0.5599
15697SOL    HW159069   0.482   4.609   6.716  1.1019  0.1937 -0.0595
15697SOL    HW259070   0.478   4.457   6.719  0.7813  0.2109  1.1379
15698SOL     OW59071   9.070   1.732   4.816  1.0164 -0.0541  0.5462
15698SOL    HW159072   8.994   1.678   4.836  0.1771  1.0462  0.4423
15698SOL    HW259073   9.033   1.817   4.791  2.2797  0.4878  0.4353
15699SOL     OW59074   3.234   2.810   9.909 -0.1972  0.2613 -0.3201
15699SOL    HW159075   3.236   2.837   9.817 -0.2755 -1.0555 -0.7385
15699SOL    HW259076   3.325   2.789   9.930 -0.3042 -0.2913 -0.3844
15700SOL     OW59077   3.624   5.800   1.332 -0.4381 -0.3456 -0.2333
15700SOL    HW159078   3.673   5.717   1.339 -1.6475 -1.0366  0.3554
15700SOL    HW259079   3.540   5.781   1.373 -1.3286  0.7167 -1.5121
15701SOL     OW59080   7.900   8.905   0.228 -0.3981 -0.1751 -0.4592
15701SOL    HW159081   7.864   8.838   0.285  2.7255 -1.8024 -0.1591
15701SOL    HW259082   7.870   8.881   0.140 -0.7592 -0.9324 -0.1324
15702SOL     OW59083   7.093   8.040   6.114 -0.8233 -0.3338  0.3707
15702SOL    HW159084   7.062   7.950   6.104 -2.6834 -0.0975  3.0086
15702SOL    HW259085   7.082   8.079   6.027 -0.6855 -2.4164 -0.6402
15703SOL     OW59086   8.612   3.614   7.799 -0.2188  0.4365 -0.5399
15703SOL    HW159087   8.639   3.661   7.878 -1.1216  0.1401 -0.0353
15703SOL    HW259088   8.694   3.590   7.756  0.2697  1.6276 -0.3128
15704SOL     OW59089   9.462   0.988  10.360 -0.0293 -0.3929 -0.2203
15704SOL    HW159090   9.476   0.931  10.284 -0.4407  0.9494 -1.3476
15704SOL    HW259091   9.373   0.968  10.388  0.3364 -1.3374  0.3296
15705SOL     OW59092   5.272   6.985   5.244  0.2441  0.0879 -0.4791
15705SOL    HW159093   5.250   6.897   5.274  0.5365 -1.0568 -3.3436
15705SOL    HW259094   5.190   7.034   5.250  0.2692 -0.0299  1.9478
15706SOL     OW59095   1.101   1.798   8.621  0.5593  0.0394  0.6849
15706SOL    HW159096   1.174   1.852   8.651  0.7952  0.0813  0.0281
15706SOL    HW259097   1.027   1.858   8.619  1.0048  0.5764 -0.8904
15707SOL     OW59098   6.762   6.367   6.755  0.1417  0.1326 -0.0949
15707SOL    HW159099   6.787   6.435   6.817  0.7140 -0.0519 -0.1231
15707SOL    HW259100   6.794   6.398   6.671  0.2699 -0.0961 -0.1327
15708SOL     OW59101   1.019   5.303   6.208  0.1257 -0.1676 -0.0192
15708SOL    HW159102   1.049   5.338   6.124  2.0575  2.3721  1.5818
15708SOL    HW259103   1.094   5.253   6.241 -0.6073 -1.1281  0.2187
15709SOL     OW59104   3.548   5.596   9.020  0.2631  0.0074 -0.5727
15709SOL    HW159105   3.487   5.581   9.093  0.5712  1.5592  0.0498
15709SOL    HW259106   3.493   5.629   8.949 -0.0901 -1.8381 -1.1990
15710SOL     OW59107   0.925   5.184   7.322  0.0048  0.3062 -0.0462
15710SOL    HW159108   0.898   5.266   7.363  1.3656  0.9471 -0.3728
15710SOL    HW259109   0.847   5.152   7.277 -0.4049  1.7066 -0.3699
15711SOL     OW59110   7.517   6.820   5.818  0.1408  0.5242 -0.6606
15711SOL    HW159111   7.597   6.831   5.766  0.7812 -0.1919  0.1445
15711SOL    HW259112   7.447   6.853   5.762  0.7745 -0.4891 -2.0928
15712SOL     OW59113   6.983   4.540   9.404  0.5789  1.0413 -0.2149
15712SOL    HW159114   6.991   4.635   9.412 -1.5880  1.2246  0.3778
15712SOL    HW259115   6.895   4.526   9.367 -0.0592 -0.7666  1.7558
15713SOL     OW59116   7.154   3.895   5.934 -0.1898  0.1454 -0.0496
15713SOL    HW159117   7.184   3.813   5.973 -0.6239 -0.1492 -0.3266
15713SOL    HW259118   7.078   3.921   5.985 -0.8342 -0.3070 -0.7707
15714SOL     OW59119  10.371   9.667   2.945 -0.2932 -0.4111  0.6799
15714SOL    HW159120  10.373   9.751   2.990 -2.3386  0.3063 -0.4281
15714SOL    HW259121  10.444   9.671   2.883  0.9160 -0.3501  2.0641
15715SOL     OW59122   4.299   2.346   9.218 -0.0503  0.6808 -0.0339
15715SOL    HW159123   4.326   2.349   9.310 -0.4817 -0.0036  0.1258
15715SOL    HW259124   4.370   2.390   9.170  0.5244  0.4080  0.5525
15716SOL     OW59125  10.168   9.912   6.301 -0.5447  0.2422  0.3245
15716SOL    HW159126  10.133   9.972   6.367 -1.2039  0.1865  0.0288
15716SOL    HW259127  10.103   9.913   6.230 -0.2912 -0.3978  0.0764
15717SOL     OW59128   6.514   7.363   1.592  0.0312 -0.3429 -0.1216
15717SOL    HW159129   6.524   7.348   1.686  0.9690 -0.4894 -0.2295
15717SOL    HW259130   6.541   7.454   1.579 -1.0976  0.0088 -0.1181
15718SOL     OW59131   9.613  10.114   1.440  0.6668 -0.4377  0.1961
15718SOL    HW159132   9.596  10.204   1.468  0.9338  0.1521 -1.4104
15718SOL    HW259133   9.527  10.073   1.439  0.0522  0.7107 -1.8893
15719SOL     OW59134   3.818   9.793   8.782 -0.5183  0.1966  0.2199
15719SOL    HW159135   3.893   9.734   8.769 -0.2402  0.5610  0.1298
15719SOL    HW259136   3.858   9.881   8.785 -1.1959  0.7293 -2.8392
15720SOL     OW59137   9.350   7.708   4.949  0.6377  0.1156 -0.5974
15720SOL    HW159138   9.309   7.698   4.863  1.3427 -1.7574 -0.7591
15720SOL    HW259139   9.442   7.726   4.930  0.6869  0.2503 -0.2356
15721SOL     OW59140   6.522   0.257   9.257 -0.5286  0.2628 -0.0443
15721SOL    HW159141   6.532   0.292   9.346  0.4317  1.5798 -0.6425
15721SOL    HW259142   6.499   0.333   9.204  0.2016 -0.2647 -1.1443
15722SOL     OW59143   5.579   9.767   2.103  0.3748  0.3200  0.0604
15722SOL    HW159144   5.494   9.742   2.067  0.8995 -0.1801 -0.8656
15722SOL    HW259145   5.608   9.691   2.153  0.7465  0.0781 -0.5083
15723SOL     OW59146   7.985  10.030   0.586 -0.1139 -0.5590  0.0393
15723SOL    HW159147   7.947  10.114   0.560 -0.3191 -0.2847  1.1837
15723SOL    HW259148   8.039  10.004   0.512 -1.3512 -0.2259 -1.0228
15724SOL     OW59149   5.043   8.479   6.196 -0.5527  0.4243  0.0198
15724SOL    HW159150   4.954   8.513   6.187  0.0005  1.8997 -0.2449
15724SOL    HW259151   5.098   8.558   6.198  0.8045 -0.4798 -0.5002
15725SOL     OW59152   7.469   7.105   9.884  1.0759  0.0386  0.3499
15725SOL    HW159153   7.547   7.145   9.845  2.0660 -1.9082  0.2143
15725SOL    HW259154   7.489   7.099   9.977  0.6593  0.4314  0.4679
15726SOL     OW59155   1.983   1.207   9.138  0.3702 -0.4173 -0.7400
15726SOL    HW159156   2.018   1.140   9.079  1.8156 -0.1513 -0.2466
15726SOL    HW259157   1.901   1.236   9.098 -0.0161 -2.1038 -1.2262
15727SOL     OW59158   2.473   9.395   5.565  0.1022 -0.5827  0.3062
15727SOL    HW159159   2.542   9.330   5.569  0.7026  0.0978  2.5155
15727SOL    HW259160   2.450   9.412   5.657 -0.7422  1.5529 -0.2230
15728SOL     OW59161   0.480   0.788  10.244  0.1680 -0.5332 -0.0263
15728SOL    HW159162   0.418   0.739  10.297  0.6686 -0.8213  0.3021
15728SOL    HW259163   0.469   0.879  10.272  1.0437 -0.7826  1.2327
15729SOL     OW59164   6.203   8.715   3.318  0.5814  0.1813  0.0378
15729SOL    HW159165   6.111   8.691   3.313  0.6414 -0.1724  0.5842
15729SOL    HW259166   6.227   8.737   3.228  0.0014  0.1454 -0.1261
15730SOL     OW59167   9.355   4.641   1.280  0.4211 -0.7239  0.1943
15730SOL    HW159168   9.448   4.641   1.259  0.5727 -1.7976  0.8122
15730SOL    HW259169   9.351   4.623   1.374 -0.4249 -1.7138 -0.0154
15731SOL     OW59170   2.266   2.360   3.316 -0.1660  0.3367 -0.0168
15731SOL    HW159171   2.190   2.364   3.257 -1.0113  0.7156  1.0621
15731SOL    HW259172   2.300   2.450   3.315 -0.7093  0.5566  0.7320
15732SOL     OW59173   3.441   5.194   7.433 -0.0051 -0.1397 -0.0164
15732SOL    HW159174   3.434   5.290   7.430 -1.7568 -0.2136  0.6011
15732SOL    HW259175   3.500   5.172   7.361  0.5465  1.4063 -0.0762
15733SOL     OW59176   3.513   6.442   9.420  0.3945  0.2748 -0.0224
15733SOL    HW159177   3.456   6.399   9.356  1.6637 -2.9120  0.7784
15733SOL    HW259178   3.453   6.469   9.490 -0.4648 -0.5886 -0.3930
15734SOL     OW59179   3.183  10.246   6.797 -0.4267 -0.2780 -0.0899
15734SOL    HW159180   3.184  10.200   6.881 -1.4204  0.6689  0.4762
15734SOL    HW259181   3.233  10.326   6.813 -3.4077  1.6145  0.7221
15735SOL     OW59182   5.901   7.233   4.642 -0.3330 -0.5350 -0.0088
15735SOL    HW159183   5.837   7.303   4.630 -4.1151 -3.5724  0.5427
15735SOL    HW259184   5.948   7.257   4.723 -0.2832  2.0505 -0.7183
15736SOL     OW59185   4.069   7.205   6.589  0.0638 -0.1938 -0.4384
15736SOL    HW159186   4.118   7.286   6.578 -0.7034  0.4791  0.8102
15736SOL    HW259187   4.018   7.197   6.509 -1.3151  1.6325  0.1809
15737SOL     OW59188   7.645   6.023   7.217  0.6559  0.0462  0.3892
15737SOL    HW159189   7.644   6.099   7.275 -3.2483 -1.1594  2.2743
15737SOL    HW259190   7.592   5.958   7.262  1.6876 -2.9055 -2.3051
15738SOL     OW59191   3.079   3.499   1.252  0.2916 -0.1811  0.5616
15738SOL    HW159192   3.017   3.427   1.243  3.8335 -3.4115 -1.0995
15738SOL    HW259193   3.127   3.479   1.333  3.1414 -1.5621 -1.2799
15739SOL     OW59194   9.684   6.544   0.299  0.7269 -0.0429  0.2240
15739SOL    HW159195   9.733   6.499   0.368  0.6474  1.1677  1.0974
15739SOL    HW259196   9.715   6.504   0.217  2.3853 -0.0325  0.8155
15740SOL     OW59197   6.838   6.810   4.689 -0.3980 -0.1849  0.4356
15740SOL    HW159198   6.831   6.857   4.772  1.4498 -1.9750  1.7133
15740SOL    HW259199   6.749   6.781   4.670 -0.8085 -0.0222  2.0015
15741SOL     OW59200   9.399   9.949   7.332  0.3277  0.2248  0.1617
15741SOL    HW159201   9.338   9.942   7.406 -0.0143 -0.9301 -0.2101
15741SOL    HW259202   9.402   9.860   7.295 -1.1294  1.2037 -2.5300
15742SOL     OW59203   4.062   7.269   9.165  0.7489 -0.0677  0.1327
15742SOL    HW159204   4.010   7.191   9.184  0.7318  0.5029  2.7063
15742SOL    HW259205   4.115   7.244   9.089 -0.6429 -1.8998 -0.3162
15743SOL     OW59206   7.404   5.322   6.051 -0.5426  0.2540  0.2942
15743SOL    HW159207   7.346   5.376   5.998 -1.1659 -1.1648 -0.5438
15743SOL    HW259208   7.431   5.379   6.123 -3.5329  0.8013  1.1277
15744SOL     OW59209   0.335   5.024   9.291  0.0382  0.0106 -0.0405
15744SOL    HW159210   0.325   5.058   9.202 -1.4933 -2.5308 -0.9308
15744SOL    HW259211   0.427   5.042   9.313  0.7440 -0.1775 -2.5379
15745SOL     OW59212   2.152   3.883   4.694  0.5244  0.4845  1.1596
15745SOL    HW159213   2.156   3.793   4.726 -1.1845 -0.7997 -1.7433
15745SOL    HW259214   2.068   3.916   4.726  2.0826  1.9778  4.0630
15746SOL     OW59215   6.441   7.636   2.478  0.1035 -0.8177  0.2498
15746SOL    HW159216   6.361   7.670   2.438  1.3996  0.2710 -1.5789
15746SOL    HW259217   6.446   7.680   2.563 -0.5989  0.0840 -0.1578
15747SOL     OW59218   1.739   5.013   8.719 -0.7509  0.6497  0.4306
15747SOL    HW159219   1.776   4.968   8.643 -1.3370  2.1310 -0.7840
15747SOL    HW259220   1.812   5.020   8.780  0.0379  0.4211 -0.4561
15748SOL     OW59221   7.274   6.262   4.431  0.7388  0.2192  0.1123
15748SOL    HW159222   7.353   6.207   4.431  0.4194 -0.2395  0.3867
15748SOL    HW259223   7.229   6.240   4.512 -0.9894 -1.4375 -1.2249
15749SOL     OW59224   4.016   5.987   7.508 -0.0440  0.0166  0.0900
15749SOL    HW159225   4.032   5.933   7.585  2.3744 -0.5201 -0.6867
15749SOL    HW259226   4.033   6.076   7.537  0.3229 -0.1244  0.3132
15750SOL     OW59227   4.570   1.409   3.247  0.4461 -0.4034 -0.0744
15750SOL    HW159228   4.476   1.430   3.242  0.1846 -1.1326  1.4698
15750SOL    HW259229   4.593   1.384   3.157 -0.7782 -0.0240 -0.5200
15751SOL     OW59230   2.462   6.351   5.090 -0.4034 -0.1929  0.3784
15751SOL    HW159231   2.453   6.257   5.075 -1.7972 -0.2056  1.1503
15751SOL    HW259232   2.410   6.392   5.021  0.2600  0.0349 -0.0022
15752SOL     OW59233   9.682   3.521   7.212 -0.6202  0.1644 -0.0674
15752SOL    HW159234   9.731   3.516   7.130 -0.2342 -0.0609  0.1751
15752SOL    HW259235   9.743   3.491   7.279 -1.2180 -0.5232  0.1873
15753SOL     OW59236   4.086   0.150   1.260  0.3059  0.7474  0.0141
15753SOL    HW159237   4.049   0.237   1.246  2.8792  1.9335  0.1367
15753SOL    HW259238   4.180   0.161   1.249  0.6216 -2.3785 -1.5668
15754SOL     OW59239   5.219   1.069   3.742 -0.2213 -0.2857 -0.1178
15754SOL    HW159240   5.286   1.059   3.674  0.7821  0.0831  0.7856
15754SOL    HW259241   5.167   1.144   3.713 -0.9663 -1.2712 -1.3935
15755SOL     OW59242   2.388   1.939   6.261 -0.0541  0.0750  0.5103
15755SOL    HW159243   2.300   1.930   6.225  0.0364  0.4637  0.1931
15755SOL    HW259244   2.414   2.029   6.240  0.0131  0.3059  1.5025
15756SOL     OW59245   1.187   8.335   4.061 -0.0795  0.2507 -0.1499
15756SOL    HW159246   1.176   8.293   4.147 -0.7643  2.0214  0.6814
15756SOL    HW259247   1.267   8.296   4.026  0.2172 -0.5225  1.2919
15757SOL     OW59248   0.593   4.107   2.798  0.3672 -0.2972 -0.1055
15757SOL    HW159249   0.633   4.149   2.722  1.8903 -0.1225  0.7607
15757SOL    HW259250   0.539   4.037   2.761  0.6626  0.1170 -1.3661
15758SOL     OW59251   3.850   4.934   5.872  0.1596  0.0451 -0.4259
15758SOL    HW159252   3.855   4.845   5.906  0.0501  0.6238  1.2110
15758SOL    HW259253   3.756   4.952   5.863  0.1883 -0.1376 -1.1777
15759SOL     OW59254  10.132   1.342   8.997  0.2961  0.2614 -0.0818
15759SOL    HW159255  10.064   1.390   9.045 -2.4189 -2.3199 -1.0358
15759SOL    HW259256  10.153   1.398   8.922 -2.7722  0.0974 -1.1915
15760SOL     OW59257   1.265   2.989   4.958  0.1809 -0.6800  0.5587
15760SOL    HW159258   1.296   3.063   4.907 -0.7292 -0.1088  0.8082
15760SOL    HW259259   1.313   2.913   4.923 -0.2803 -0.2797 -0.9938
15761SOL     OW59260   0.919   1.593   7.873 -0.1757  0.1692 -0.2427
15761SOL    HW159261   0.852   1.647   7.830 -1.8032 -2.2798 -0.9975
15761SOL    HW259262   0.871   1.517   7.906  1.9899 -0.8362  0.8258
15762SOL     OW59263   8.792   7.435  10.167  0.0657  0.0694 -0.4939
15762SOL    HW159264   8.883   7.421  10.141  0.2845 -0.1921  0.3640
15762SOL    HW259265   8.796   7.508  10.229 -0.0470 -1.0890  0.9342
15763SOL     OW59266   3.158   2.726  10.260  0.7939  0.0944 -0.8610
15763SOL    HW159267   3.075   2.716  10.213  0.5074  0.2782 -0.4022
15763SOL    HW259268   3.144   2.682  10.343  0.8324  0.9423 -0.3947
15764SOL     OW59269  10.241   3.281   4.291 -0.2523  0.3071  0.2398
15764SOL    HW159270  10.217   3.284   4.198  0.7998 -2.5036 -0.2008
15764SOL    HW259271  10.323   3.232   4.294 -0.0407  0.6661  2.6530
15765SOL     OW59272   3.069   8.999   0.871  0.0776 -0.9466  0.1330
15765SOL    HW159273   3.046   9.072   0.814 -0.9726 -0.8598  0.6415
15765SOL    HW259274   3.094   8.928   0.811  1.2003 -0.1595 -0.3584
15766SOL     OW59275   4.943   0.603   3.770  0.3567 -0.2873  0.3967
15766SOL    HW159276   4.954   0.563   3.683  1.5580  0.9045 -0.0515
15766SOL    HW259277   4.880   0.547   3.815 -1.3912 -0.1554 -1.7347
15767SOL     OW59278   9.224   8.604   7.556  0.3096 -0.0930  0.6639
15767SOL    HW159279   9.225   8.508   7.554 -0.9902 -0.1143 -0.8640
15767SOL    HW259280   9.214   8.625   7.649 -1.0097 -1.5089  0.8965
15768SOL     OW59281   4.264   0.251   6.768  0.0882  0.1696 -0.3830
15768SOL    HW159282   4.276   0.297   6.851 -0.8861  0.1074 -0.1964
15768SOL    HW259283   4.328   0.290   6.709  2.0784 -1.0238  0.8659
15769SOL     OW59284   6.473   0.442   7.604  0.2091  0.0806  0.0490
15769SOL    HW159285   6.495   0.352   7.577 -1.1615 -0.2259 -0.1419
15769SOL    HW259286   6.383   0.436   7.636 -0.1979  1.5300 -0.7239
15770SOL     OW59287   5.335   8.070   5.726 -0.4222 -0.0441 -0.0240
15770SOL    HW159288   5.338   7.983   5.687 -1.9402 -0.6395  1.0880
15770SOL    HW259289   5.390   8.064   5.803 -1.3369 -0.3485  0.6211
15771SOL     OW59290   9.510   1.369   5.580  0.3145  0.2624 -0.4181
15771SOL    HW159291   9.471   1.286   5.553  0.6783 -0.6782  1.7416
15771SOL    HW259292   9.602   1.362   5.553  0.3192  0.0240 -0.3404
15772SOL     OW59293   8.827   5.272   2.079  0.7008  0.1788 -0.4979
15772SOL    HW159294   8.900   5.298   2.135  1.4610  0.6516 -1.6746
15772SOL    HW259295   8.789   5.355   2.049 -0.7085 -0.0504  0.5525
15773SOL     OW59296   7.059   7.138   0.009  0.4800 -0.2058 -0.1766
15773SOL    HW159297   7.010   7.177  -0.064  0.1977 -0.0999  0.0673
15773SOL    HW259298   7.149   7.168  -0.004  0.6532 -1.0482 -1.0798
15774SOL     OW59299   3.267   4.045   1.167  0.0866 -0.1273  0.0970
15774SOL    HW159300   3.186   4.091   1.188  0.5204  0.6233  0.1698
15774SOL    HW259301   3.240   3.954   1.152 -0.7106  0.0363  0.4803
15775SOL     OW59302   1.786   8.625   0.173 -0.2722 -0.1139  0.6829
15775SOL    HW159303   1.711   8.591   0.124  0.5325  1.1160 -1.5813
15775SOL    HW259304   1.781   8.720   0.161 -0.5219  0.3604  3.8575
15776SOL     OW59305   3.350   7.444   8.003  0.7206  0.2955  0.4580
15776SOL    HW159306   3.291   7.386   7.955 -0.2100  0.8985  0.8578
15776SOL    HW259307   3.309   7.456   8.088  1.9715 -0.1306  1.1479
15777SOL     OW59308   6.628   9.133   9.943 -0.0688 -0.3895  0.0354
15777SOL    HW159309   6.605   9.041   9.954 -1.4239  0.2201  3.8741
15777SOL    HW259310   6.719   9.139   9.974 -0.3184 -0.3006  0.7612
15778SOL     OW59311   3.208   3.995   5.553 -0.1000 -0.9330 -0.3273
15778SOL    HW159312   3.175   4.075   5.594  0.0571  0.0839 -2.0513
15778SOL    HW259313   3.141   3.971   5.489  0.2814 -1.6365 -0.4731
15779SOL     OW59314   4.278   0.631   1.649 -0.4160  0.0110  0.3344
15779SOL    HW159315   4.195   0.595   1.680 -0.4061  0.4775  0.9279
15779SOL    HW259316   4.304   0.693   1.718 -0.3416  0.9960 -0.5524
15780SOL     OW59317   2.194   8.153   8.313 -0.2529 -0.1355 -0.6233
15780SOL    HW159318   2.178   8.109   8.396 -0.7181  0.4530 -0.3954
15780SOL    HW259319   2.162   8.243   8.326  0.4763  0.2141 -1.1470
15781SOL     OW59320   9.081   6.143   7.638 -0.0448 -0.4313 -0.1018
15781SOL    HW159321   8.995   6.119   7.605  1.1198 -1.4828 -2.5877
15781SOL    HW259322   9.143   6.101   7.579  2.2037  3.6009 -1.0338
15782SOL     OW59323  10.151   0.602   0.460  0.0498 -0.2425  0.2505
15782SOL    HW159324  10.125   0.570   0.373  1.4622  1.1365 -0.7495
15782SOL    HW259325  10.155   0.523   0.514 -0.0907 -1.2659 -1.1575
15783SOL     OW59326   5.203   4.089   9.961  0.3926 -0.2540 -0.2809
15783SOL    HW159327   5.188   4.123  10.049  3.0733 -0.0166  0.1968
15783SOL    HW259328   5.177   4.161   9.903  1.2547  0.7350  0.5045
15784SOL     OW59329   7.627   3.981   1.865 -0.0728 -0.0009 -0.3157
15784SOL    HW159330   7.588   3.902   1.828 -0.0207 -0.0372 -0.2940
15784SOL    HW259331   7.682   4.016   1.794  0.0257 -0.0697 -0.2746
15785SOL     OW59332   2.583   9.161   2.153 -0.1856  0.7635 -0.0173
15785SOL    HW159333   2.572   9.137   2.245  2.4229  0.1506  0.2095
15785SOL    HW259334   2.583   9.256   2.153 -1.7433  0.7824  0.3751
15786SOL     OW59335   0.335   5.361   9.836 -0.9680 -0.3062  0.0954
15786SOL    HW159336   0.276   5.388   9.906  0.8421  0.1435  1.5068
15786SOL    HW259337   0.325   5.266   9.831  0.5215 -0.6700  2.5912
15787SOL     OW59338   7.650   0.673   3.424 -0.0469  0.3901 -0.4382
15787SOL    HW159339   7.745   0.680   3.428  0.1334 -0.1930 -2.4184
15787SOL    HW259340   7.618   0.761   3.442  1.0019  1.1496 -2.0693
15788SOL     OW59341   1.071   3.077   1.496 -0.6556  0.2114 -0.0018
15788SOL    HW159342   0.992   3.130   1.497 -0.5069  0.4701  2.0227
15788SOL    HW259343   1.064   3.023   1.575 -0.1993 -1.9001 -1.3189
15789SOL     OW59344   8.348   3.951   8.092 -0.7021 -0.2252  0.1888
15789SOL    HW159345   8.368   3.980   8.181  0.4537  0.6881 -0.3374
15789SOL    HW259346   8.284   4.014   8.061 -2.0092 -1.2321  0.7480
15790SOL     OW59347   5.492   3.076   5.945  0.2164 -0.2381 -0.2414
15790SOL    HW159348   5.545   3.116   6.014 -0.2525  0.3886 -0.2300
15790SOL    HW259349   5.526   2.987   5.937  0.0367 -0.4382  1.0492
15791SOL     OW59350   2.086   5.204   5.217  0.8444 -0.4584 -0.3533
15791SOL    HW159351   2.095   5.299   5.217  1.4904 -0.5162 -1.1236
15791SOL    HW259352   2.151   5.173   5.280 -1.5111 -0.2368  2.3963
15792SOL     OW59353   0.769   5.357   0.214 -0.1016  0.6815 -0.3088
15792SOL    HW159354   0.792   5.368   0.122  1.2259 -1.2807 -0.2639
15792SOL    HW259355   0.852   5.339   0.258 -0.5542  2.6075  1.4953
15793SOL     OW59356  10.160   9.161   1.059 -0.0160 -0.4093 -0.8118
15793SOL    HW159357  10.217   9.136   1.131 -0.4593 -1.7575 -0.8982
15793SOL    HW259358  10.207   9.133   0.980 -0.0984 -0.0926 -0.9761
15794SOL     OW59359   0.560   9.039   2.407 -0.0421  0.2235 -0.0383
15794SOL    HW159360   0.498   9.014   2.476 -2.1266  1.4868 -1.3340
15794SOL    HW259361   0.546   8.973   2.339  0.1461  0.4226 -0.2689
15795SOL     OW59362   1.351   1.871   2.401  0.4147  0.5074  0.5317
15795SOL    HW159363   1.313   1.789   2.371 -0.2906  1.0688 -0.1212
15795SOL    HW259364   1.297   1.897   2.476  0.5465  0.4578  0.6452
15796SOL     OW59365   8.464   9.598   6.622  0.1414  0.0108 -0.3824
15796SOL    HW159366   8.455   9.686   6.659  0.2225  0.4008 -1.2696
15796SOL    HW259367   8.558   9.585   6.612  0.1864 -0.6136  0.7578
15797SOL     OW59368   1.451   8.667   2.211 -0.3730 -0.0371 -0.5094
15797SOL    HW159369   1.476   8.600   2.275  0.8817 -0.0489 -0.9878
15797SOL    HW259370   1.382   8.626   2.159 -0.4764 -0.5075 -0.0166
15798SOL     OW59371   9.063   9.063   5.802  0.2889 -0.8766  0.3363
15798SOL    HW159372   9.093   9.068   5.893  0.0368  4.3598  0.4224
15798SOL    HW259373   9.005   9.139   5.792 -1.0674 -2.2236 -3.7870
15799SOL     OW59374  10.168   3.166   9.886 -0.4256  0.4043 -0.5466
15799SOL    HW159375  10.188   3.260   9.893  0.5032  0.1543  0.4980
15799SOL    HW259376  10.209   3.139   9.804  1.4190  0.4458  0.3141
15800SOL     OW59377   2.185  10.293   8.654  0.2681 -0.5103  0.7728
15800SOL    HW159378   2.179  10.386   8.633  2.2597 -0.6830 -0.8020
15800SOL    HW259379   2.095  10.261   8.649 -0.3378  1.1506  0.5412
15801SOL     OW59380   4.514   4.387   0.601 -0.0725  0.4390 -0.4818
15801SOL    HW159381   4.454   4.452   0.564 -0.7468  0.3606  0.4360
15801SOL    HW259382   4.477   4.368   0.687 -0.3959 -1.8336 -1.0738
15802SOL     OW59383   5.139   7.261   2.112  0.5409 -0.5433 -0.1206
15802SOL    HW159384   5.172   7.221   2.193  0.3852  0.2878  0.3712
15802SOL    HW259385   5.044   7.255   2.120  0.5155 -0.0826 -0.0346
15803SOL     OW59386   3.052   1.554   7.215  0.8762 -0.0623 -0.0828
15803SOL    HW159387   3.080   1.568   7.306 -1.5352 -3.3020  1.3667
15803SOL    HW259388   3.077   1.464   7.196  0.3280  0.1906 -2.2685
15804SOL     OW59389   9.623   7.579   0.352  0.1650 -0.0741 -0.6395
15804SOL    HW159390   9.556   7.587   0.420  2.0965 -0.0129  1.3979
15804SOL    HW259391   9.668   7.496   0.373  2.8256  1.4532  0.2164
15805SOL     OW59392   2.282   1.251   9.310 -0.3779  0.3534 -0.5507
15805SOL    HW159393   2.209   1.190   9.323 -0.3578  0.5059  0.3301
15805SOL    HW259394   2.334   1.211   9.241 -0.5945 -0.4162 -0.2840
15806SOL     OW59395   6.813  10.268   7.123 -0.2054  0.4875  0.8233
15806SOL    HW159396   6.725  10.296   7.100 -0.5144 -1.4034 -0.5164
15806SOL    HW259397   6.807  10.172   7.130  1.6632  0.3433  1.0610
15807SOL     OW59398   0.338   5.152   7.976 -0.5083  0.2330 -0.1285
15807SOL    HW159399   0.349   5.213   7.903 -0.3826 -0.0875 -0.3797
15807SOL    HW259400   0.244   5.152   7.993 -0.2559  3.0496  2.0796
15808SOL     OW59401   0.648   0.185  10.295  0.3179  0.3772 -0.1008
15808SOL    HW159402   0.577   0.126  10.270 -0.2022  1.3655 -1.0462
15808SOL    HW259403   0.633   0.264  10.242  1.5744  0.9631  0.3836
15809SOL     OW59404   4.157   8.525   7.010  0.3860  0.3737  0.7831
15809SOL    HW159405   4.094   8.566   7.070  1.8051  2.6626  0.8284
15809SOL    HW259406   4.104   8.465   6.957 -1.4917  0.8436  2.0277
15810SOL     OW59407   3.616   7.499   8.618 -0.0170  0.3972 -0.0259
15810SOL    HW159408   3.592   7.450   8.540  0.8018  1.3392 -0.8908
15810SOL    HW259409   3.590   7.442   8.691  2.6633 -2.2650 -0.9515
15811SOL     OW59410   2.325   0.974   8.340  0.3015  0.4326  0.4819
15811SOL    HW159411   2.300   0.929   8.259  0.1066  1.1246  0.1518
15811SOL    HW259412   2.368   1.055   8.310 -0.5139  1.0923  1.0642
15812SOL     OW59413   0.917   0.117   2.136  0.2602  0.5166  0.1046
15812SOL    HW159414   0.991   0.173   2.111  0.1613  0.1809 -1.0148
15812SOL    HW259415   0.945   0.029   2.112 -0.8876  0.5089 -1.3224
15813SOL     OW59416   0.755   4.841   4.947  0.4483  0.2339  0.4854
15813SOL    HW159417   0.763   4.893   5.027  2.9636 -0.9992  1.1632
15813SOL    HW259418   0.765   4.750   4.977  0.3952 -0.3267 -1.1130
15814SOL     OW59419   0.406   8.396   3.310  0.1289  0.2378 -0.2168
15814SOL    HW159420   0.364   8.482   3.304  1.1046  0.6887 -0.7645
15814SOL    HW259421   0.345   8.343   3.362 -0.6147  1.1745 -0.1136
15815SOL     OW59422   6.951   5.591   3.408  0.3437  0.3648  0.1758
15815SOL    HW159423   7.001   5.571   3.328 -1.3059 -1.2477 -0.5006
15815SOL    HW259424   6.905   5.672   3.387  0.8606  0.6055 -0.0548
15816SOL     OW59425   0.444   1.707   9.402  0.2650  0.3008  0.5626
15816SOL    HW159426   0.368   1.755   9.371  1.8695  1.6033 -1.7096
15816SOL    HW259427   0.477   1.757   9.476  0.3622  1.2156 -0.0838
15817SOL     OW59428   2.320   1.560   1.349 -0.2337  0.2684  0.0349
15817SOL    HW159429   2.225   1.556   1.345 -0.1855 -0.3071 -2.4233
15817SOL    HW259430   2.346   1.593   1.263  1.8082 -0.0891  0.4572
15818SOL     OW59431   1.276   6.861   1.024  0.3287 -0.0291  0.0819
15818SOL    HW159432   1.201   6.908   0.988  1.4965  1.5743 -0.3111
15818SOL    HW259433   1.316   6.817   0.949  0.8884  0.6877 -0.0467
15819SOL     OW59434   1.988   7.605   1.667 -0.3634 -0.2509  0.2447
15819SOL    HW159435   2.074   7.567   1.649 -1.2717 -1.1463 -2.6763
15819SOL    HW259436   1.928   7.531   1.664 -1.3968  0.4953  1.3646
15820SOL     OW59437   1.243   7.651   4.790  0.1999  0.3083  0.2344
15820SOL    HW159438   1.173   7.586   4.797  2.0186 -1.6976  0.6977
15820SOL    HW259439   1.204   7.731   4.825 -2.0928 -0.5099 -0.2614
15821SOL     OW59440   1.106  10.305   2.023  0.1536  0.1736  0.0975
15821SOL    HW159441   1.166  10.282   2.095 -1.2050  0.3306  1.3207
15821SOL    HW259442   1.164  10.326   1.950  1.5705 -0.9337  0.8449
15822SOL     OW59443   7.767   1.799   0.127  0.1657  0.0327  0.2110
15822SOL    HW159444   7.694   1.777   0.184  0.3449  0.7322  0.7180
15822SOL    HW259445   7.739   1.770   0.040 -0.3529 -0.4906  0.5432
15823SOL     OW59446   8.559   7.043   3.205 -0.0222  0.3342 -0.1143
15823SOL    HW159447   8.553   7.108   3.275 -0.0791  1.5179 -1.1909
15823SOL    HW259448   8.652   7.042   3.182 -0.3662  1.8811 -1.7606
15824SOL     OW59449   3.571   8.228   6.510  0.0466  0.2734  0.1968
15824SOL    HW159450   3.588   8.186   6.594 -3.0821  0.6378  1.1244
15824SOL    HW259451   3.624   8.308   6.512  1.0908 -0.4089  1.1580
15825SOL     OW59452   8.908   9.190   3.091 -0.6973  0.1019 -0.6079
15825SOL    HW159453   8.816   9.211   3.105 -0.5868 -0.3878  1.1581
15825SOL    HW259454   8.950   9.213   3.174  0.7193  0.0217 -1.2819
15826SOL     OW59455   1.488   8.169   1.896  0.1908  0.0566  0.0271
15826SOL    HW159456   1.579   8.198   1.899  1.1107 -2.5742  0.4654
15826SOL    HW259457   1.472   8.150   1.804 -0.7098  2.5560 -0.4105
15827SOL     OW59458   4.051   5.806   6.315 -0.6396 -0.1835  0.0977
15827SOL    HW159459   4.020   5.753   6.242 -0.7117  0.9249 -0.7068
15827SOL    HW259460   4.143   5.822   6.296 -0.5269 -0.3046  0.5203
15828SOL     OW59461   6.351   9.902   0.848  0.2153 -0.2906  0.2237
15828SOL    HW159462   6.429   9.846   0.852  0.6720  0.0721 -2.1630
15828SOL    HW259463   6.384   9.986   0.816 -1.1783 -0.2423 -1.1798
15829SOL     OW59464   9.719   3.284   4.413 -0.1359  0.5031 -0.0589
15829SOL    HW159465   9.778   3.338   4.360  0.1215  2.3884  1.9843
15829SOL    HW259466   9.727   3.320   4.501 -1.7282 -1.4713  0.9778
15830SOL     OW59467   0.185   8.799   4.791 -0.3477 -0.0142  0.0290
15830SOL    HW159468   0.226   8.783   4.706  1.9892 -1.1833  1.2826
15830SOL    HW259469   0.107   8.743   4.791  0.6879 -1.5100 -0.6357
15831SOL     OW59470   9.510   2.343   2.795 -0.5147  0.1407 -0.3001
15831SOL    HW159471   9.517   2.368   2.703 -0.9629 -0.0021 -0.3737
15831SOL    HW259472   9.600   2.347   2.828 -0.3899  0.4448 -0.6763
15832SOL     OW59473   6.563   4.974   8.414 -0.0147 -0.2826 -0.2941
15832SOL    HW159474   6.493   4.909   8.404  0.2100 -0.8607  1.4882
15832SOL    HW259475   6.643   4.922   8.415  0.5299  0.4070 -2.6389
15833SOL     OW59476   8.408   4.706   6.510 -0.0043 -0.4444 -0.1884
15833SOL    HW159477   8.423   4.612   6.508  1.5679 -0.2266 -0.4764
15833SOL    HW259478   8.314   4.716   6.500 -0.0142 -1.9238 -2.0519
15834SOL     OW59479   9.393   9.595   0.999 -0.0573  0.0947 -0.1144
15834SOL    HW159480   9.426   9.672   0.954 -0.0765 -1.2079 -2.5514
15834SOL    HW259481   9.468   9.564   1.051  0.8268  0.2967 -1.2088
15835SOL     OW59482   6.570   3.796   3.858 -0.2212  0.2677 -0.1758
15835SOL    HW159483   6.624   3.832   3.929 -0.0675  1.3417 -0.8236
15835SOL    HW259484   6.557   3.869   3.798  0.9982 -1.0070 -2.0948
15836SOL     OW59485   1.291   8.634   3.630 -0.3694  0.4267 -0.0092
15836SOL    HW159486   1.331   8.665   3.711  0.9255  0.5402 -0.6791
15836SOL    HW259487   1.352   8.570   3.595 -0.0392  1.6268 -1.7864
15837SOL     OW59488   3.329   0.639   4.430  0.3952  0.0487  0.4753
15837SOL    HW159489   3.317   0.730   4.458 -0.0118 -0.1917  1.1007
15837SOL    HW259490   3.274   0.588   4.489  1.0806 -0.6629  0.5196
15838SOL     OW59491   2.906   9.506   1.339 -0.0160  0.7199  0.0146
15838SOL    HW159492   2.886   9.425   1.292  0.5484  0.5826  0.0117
15838SOL    HW259493   2.910   9.480   1.431  2.0400  0.3609 -0.1393
15839SOL     OW59494   2.663   9.049   3.309  0.3973 -0.1848  0.1631
15839SOL    HW159495   2.697   9.137   3.326 -0.6053  0.1954  0.2525
15839SOL    HW259496   2.568   9.061   3.303  0.2620 -1.2475  0.0862
15840SOL     OW59497  10.022   0.294   4.131  0.1072  0.1868 -0.4781
15840SOL    HW159498  10.010   0.387   4.148 -0.6721 -0.1768  1.2308
15840SOL    HW259499   9.947   0.269   4.077 -1.0854  0.1098  1.1185
15841SOL     OW59500   2.623   2.964   1.328  0.3973 -0.5749  0.1940
15841SOL    HW159501   2.590   2.931   1.411  0.5768  0.5874  0.7540
15841SOL    HW259502   2.559   3.029   1.300  1.8169  1.3055  1.0217
15842SOL     OW59503   9.347   1.019   9.369  0.5208 -0.4631  0.0611
15842SOL    HW159504   9.397   0.993   9.292 -0.7778  0.8258 -1.2735
15842SOL    HW259505   9.279   0.953   9.377  0.5337 -0.4853 -0.0163
15843SOL     OW59506   4.374  10.100   8.967  0.0570 -0.4143 -1.0314
15843SOL    HW159507   4.418  10.045   9.031 -0.6160  1.8839  1.6143
15843SOL    HW259508   4.293  10.053   8.947 -0.5713 -0.4205  1.2476
15844SOL     OW59509   0.584   4.801   8.504  0.1378  0.6931  0.2803
15844SOL    HW159510   0.627   4.882   8.532  1.9690 -0.3796  0.7815
15844SOL    HW259511   0.654   4.750   8.461 -0.7526 -0.9157  0.6444
15845SOL     OW59512   0.541   2.307   6.499 -0.3264 -0.3159  0.0601
15845SOL    HW159513   0.627   2.286   6.534 -0.0709 -0.3017 -0.5433
15845SOL    HW259514   0.527   2.399   6.524 -0.2699 -0.3874  0.3563
15846SOL     OW59515   4.376   4.517   1.119  1.1355 -0.0388 -0.6846
15846SOL    HW159516   4.338   4.479   1.199  1.6361  0.4535 -0.2062
15846SOL    HW259517   4.429   4.446   1.082  0.4533 -0.4521 -0.8896
15847SOL     OW59518   8.261   2.066   5.733  0.0672  0.3850 -0.0481
15847SOL    HW159519   8.192   2.001   5.721 -0.3156  0.8890 -0.6492
15847SOL    HW259520   8.235   2.139   5.677  1.1019  0.5837 -0.2858
15848SOL     OW59521   2.621   1.968   7.549  0.1371  0.2646 -0.0155
15848SOL    HW159522   2.604   1.876   7.571 -1.3567  0.4635 -0.2385
15848SOL    HW259523   2.680   1.999   7.618 -0.4525 -0.4923  0.8610
15849SOL     OW59524   3.233   3.847   8.327  0.7382 -0.0683 -0.2321
15849SOL    HW159525   3.305   3.904   8.300 -0.5611  1.7325 -0.0283
15849SOL    HW259526   3.191   3.820   8.245  1.3220 -0.7426 -0.3248
15850SOL     OW59527   5.852   8.208   2.807 -0.2766 -0.0398 -0.2978
15850SOL    HW159528   5.831   8.287   2.757  1.1874  1.5972  1.5260
15850SOL    HW259529   5.773   8.191   2.858 -0.7726 -0.0564 -1.0559
15851SOL     OW59530   9.226   2.396   0.480  0.3503 -0.0318  0.2682
15851SOL    HW159531   9.175   2.464   0.524  2.4254 -0.1967  3.2372
15851SOL    HW259532   9.186   2.388   0.393 -0.7811  4.0524  0.2078
15852SOL     OW59533   6.798   6.985   4.891 -0.3780 -0.4182  0.4763
15852SOL    HW159534   6.724   7.033   4.928 -1.3653 -1.2050 -0.4301
15852SOL    HW259535   6.830   7.040   4.820  0.5239  0.3580  1.4564
15853SOL     OW59536   4.794   3.914   2.358  0.1196 -0.7493 -0.2327
15853SOL    HW159537   4.846   3.994   2.359 -0.6010 -0.2400  1.8692
15853SOL    HW259538   4.794   3.884   2.449  0.6774 -3.3891 -1.0120
15854SOL     OW59539   3.411   7.908   0.761  0.0100  0.2840 -0.1703
15854SOL    HW159540   3.396   7.891   0.854 -2.6396 -1.4377 -0.8121
15854SOL    HW259541   3.340   7.967   0.736  1.1345  1.3332 -0.9864
15855SOL     OW59542   7.729   9.752   7.959 -0.0286  0.0324 -0.1486
15855SOL    HW159543   7.682   9.675   7.926  0.0798  0.3284 -1.0061
15855SOL    HW259544   7.721   9.746   8.054 -0.2772 -0.8819 -0.2192
15856SOL     OW59545   8.082   5.154   5.097  0.0353 -0.2736  0.2962
15856SOL    HW159546   8.005   5.112   5.058  0.6536 -1.4875  0.3323
15856SOL    HW259547   8.074   5.136   5.190  0.0177  0.1934  0.3869
15857SOL     OW59548   0.806   3.335   4.977 -0.3852  0.1811  0.1690
15857SOL    HW159549   0.799   3.241   4.997 -0.6998 -0.1234 -1.2779
15857SOL    HW259550   0.897   3.356   4.995  0.1281 -0.8207 -1.1458
15858SOL     OW59551   0.864   7.651   9.256 -0.8507  0.2963  0.7523
15858SOL    HW159552   0.940   7.635   9.312 -0.7267  0.3258  0.5931
15858SOL    HW259553   0.837   7.740   9.277 -0.3126  0.6023  0.1880
15859SOL     OW59554   1.156   9.659   7.710 -0.1041  0.0629  0.4701
15859SOL    HW159555   1.128   9.623   7.794 -0.8309 -0.2809  0.0909
15859SOL    HW259556   1.075   9.671   7.661  0.0767  2.3934  0.6171
15860SOL     OW59557   8.955   1.261   5.233 -0.4818  0.0577  0.1182
15860SOL    HW159558   9.013   1.327   5.194 -1.4453  0.7734 -0.1306
15860SOL    HW259559   9.014   1.189   5.255  0.1987 -0.1576 -2.1440
15861SOL     OW59560   6.761   9.692   7.274 -0.6380 -0.3234  0.1290
15861SOL    HW159561   6.839   9.702   7.329 -0.4352 -1.0314 -0.0261
15861SOL    HW259562   6.774   9.609   7.229  0.6109  1.5197 -3.2333
15862SOL     OW59563   0.935   8.512   8.249  0.4125 -0.1689  0.4123
15862SOL    HW159564   0.940   8.482   8.158 -0.5093  1.1949 -0.1365
15862SOL    HW259565   0.853   8.561   8.253  0.8128  0.4432  1.7806
15863SOL     OW59566  10.022   4.142   7.040  0.5321 -0.1070 -0.4817
15863SOL    HW159567   9.932   4.110   7.039  0.4663  0.0828 -0.6615
15863SOL    HW259568  10.017   4.227   7.083  0.8702 -0.8109  1.0366
15864SOL     OW59569   0.888   6.769   8.635 -0.5441  0.1946  0.0121
15864SOL    HW159570   0.844   6.838   8.586  1.1938  0.7368 -0.8730
15864SOL    HW259571   0.830   6.751   8.709 -2.1083  1.0081 -0.9640
15865SOL     OW59572   4.124   9.545   5.617  0.0942 -0.1015  0.4627
15865SOL    HW159573   4.097   9.560   5.708 -1.0484 -0.7822  0.2507
15865SOL    HW259574   4.205   9.595   5.608 -0.4634  1.0396  1.4811
15866SOL     OW59575   9.844   4.257   7.631  0.2102 -0.2294 -0.4450
15866SOL    HW159576   9.816   4.225   7.717  1.0033 -3.7504 -1.3113
15866SOL    HW259577   9.930   4.295   7.646  0.1983 -0.5174  0.3990
15867SOL     OW59578   0.985   1.776   1.875  0.2090  0.2165  0.1662
15867SOL    HW159579   0.965   1.702   1.933 -3.4795  0.6529 -0.2738
15867SOL    HW259580   0.929   1.762   1.799  0.3988  2.7676 -0.5289
15868SOL     OW59581   9.543   4.301   5.238 -0.0013  0.3606 -0.3362
15868SOL    HW159582   9.625   4.311   5.190  1.5627 -1.0765  1.8587
15868SOL    HW259583   9.520   4.209   5.228  0.2398  0.0819  1.4146
15869SOL     OW59584   7.594   1.015   5.736  0.0247 -0.0669  0.3728
15869SOL    HW159585   7.613   1.099   5.778 -0.8905 -0.6002  1.9298
15869SOL    HW259586   7.504   1.024   5.704  0.4091  0.0184 -0.7345
15870SOL     OW59587   6.280   5.880   5.189  0.2229 -0.6641  0.1010
15870SOL    HW159588   6.258   5.963   5.231  1.1857 -0.7050  0.7338
15870SOL    HW259589   6.212   5.820   5.218 -0.0615 -0.2754  0.2475
15871SOL     OW59590   1.037   7.721   5.180  0.3611 -0.0476  0.1514
15871SOL    HW159591   1.010   7.786   5.245  0.0648 -0.8364  0.8215
15871SOL    HW259592   1.121   7.688   5.212  0.1713 -0.5012  0.1883
15872SOL     OW59593   6.008   0.582   2.574 -0.0560  0.2632  0.0117
15872SOL    HW159594   6.030   0.609   2.664 -0.0168  0.4019 -0.0405
15872SOL    HW259595   6.016   0.486   2.576  0.5879  0.3092 -0.0109
15873SOL     OW59596   8.961   9.795   7.354 -0.1063  0.0842 -0.3862
15873SOL    HW159597   8.976   9.702   7.368  2.0677  0.2939 -0.9367
15873SOL    HW259598   8.867   9.803   7.338 -0.2427 -2.0740 -0.8575
15874SOL     OW59599   1.960   2.017   6.359 -0.5708 -0.5802 -0.5824
15874SOL    HW159600   1.964   1.949   6.425 -0.5288  0.7672  0.8747
15874SOL    HW259601   1.921   2.092   6.404  1.7721  1.2088 -1.3094
15875SOL     OW59602   4.832   7.826   9.390 -0.3705  0.6189 -0.7736
15875SOL    HW159603   4.746   7.858   9.418  0.1818  2.4629 -1.0645
15875SOL    HW259604   4.891   7.854   9.460  0.0946 -0.1115 -0.8688
15876SOL     OW59605   9.601   7.848   7.039 -0.2930 -0.4505 -0.0948
15876SOL    HW159606   9.594   7.848   7.135  0.4555 -0.2131 -0.0337
15876SOL    HW259607   9.512   7.830   7.009 -0.3179 -1.7360  0.6608
15877SOL     OW59608   9.551   8.391   6.766  0.5666  0.6423 -0.3529
15877SOL    HW159609   9.544   8.351   6.679 -1.5122 -0.7358  0.3793
15877SOL    HW259610   9.567   8.317   6.825 -0.3769  1.2440  0.6868
15878SOL     OW59611   6.748   8.154   4.756 -0.3526  0.6139  0.2271
15878SOL    HW159612   6.747   8.185   4.666 -1.0326  0.0465  0.0299
15878SOL    HW259613   6.747   8.058   4.748  1.2688  0.5069  0.8167
15879SOL     OW59614   7.143   0.641   6.976  0.2018  0.5714 -0.1820
15879SOL    HW159615   7.159   0.689   7.058  0.0139 -1.5274  1.1599
15879SOL    HW259616   7.169   0.551   6.995 -1.9271 -0.4705 -1.7029
15880SOL     OW59617   6.626   8.219   6.822 -0.4300 -0.2473 -0.1313
15880SOL    HW159618   6.536   8.253   6.823  0.1005  1.1983 -0.5092
15880SOL    HW259619   6.661   8.245   6.737  0.5289 -0.3385  0.2295
15881SOL     OW59620   5.910   6.373   9.491  0.4006  0.0630 -0.0666
15881SOL    HW159621   5.855   6.427   9.435 -1.6045 -0.8705  0.9283
15881SOL    HW259622   5.931   6.297   9.438 -0.6780 -0.3580  0.0948
15882SOL     OW59623   5.670   2.591   2.306  0.2915  0.0174 -0.1109
15882SOL    HW159624   5.635   2.606   2.393  1.8036 -0.4695  0.6117
15882SOL    HW259625   5.600   2.546   2.259 -0.4376  0.0509  0.9300
15883SOL     OW59626   4.442   4.610   6.245 -0.1448  0.3776  0.4337
15883SOL    HW159627   4.404   4.695   6.223 -1.5959 -0.8680 -2.4814
15883SOL    HW259628   4.537   4.625   6.247 -0.1762  1.6410 -2.6250
15884SOL     OW59629   2.048  10.339   6.647 -0.1507 -0.0176 -0.0692
15884SOL    HW159630   2.027  10.307   6.734 -0.1143  0.2315  0.0331
15884SOL    HW259631   2.136  10.376   6.656 -0.8357  1.6332  0.2368
15885SOL     OW59632   9.314   3.018   2.607 -0.2427 -0.3120  0.5794
15885SOL    HW159633   9.289   2.926   2.607 -1.7469  0.0392 -0.8470
15885SOL    HW259634   9.401   3.020   2.568  0.5755 -1.2553  2.2609
15886SOL     OW59635   0.531   9.969   5.497  0.6744  0.1626  0.0500
15886SOL    HW159636   0.566   9.952   5.585  1.4411 -1.3738 -0.5256
15886SOL    HW259637   0.443  10.003   5.513  0.7377 -0.2579  1.4229
15887SOL     OW59638   4.106   9.248   8.712  0.4725 -0.0336 -0.5598
15887SOL    HW159639   4.153   9.224   8.792  0.8483  1.4240 -0.3052
15887SOL    HW259640   4.142   9.334   8.688 -0.8072  0.3170 -1.3605
15888SOL     OW59641   3.549   4.016   0.925 -0.3555  0.0982  0.2130
15888SOL    HW159642   3.594   3.957   0.864  0.0369 -1.2524  1.7603
15888SOL    HW259643   3.619   4.068   0.964 -0.1229 -1.6410  2.2349
15889SOL     OW59644   4.902   5.654   6.513  0.4856  0.1282 -0.3234
15889SOL    HW159645   4.983   5.604   6.505  1.2930  1.5889 -1.9438
15889SOL    HW259646   4.923   5.722   6.578  1.4371  1.9281 -2.3647
15890SOL     OW59647   8.770   0.057   3.663 -0.2295  0.0773 -0.0986
15890SOL    HW159648   8.814   0.123   3.716  3.1059 -0.9406 -1.3626
15890SOL    HW259649   8.684   0.094   3.645  0.4434  2.7308  1.6326
15891SOL     OW59650   6.923   1.227   7.554 -0.0996 -0.3276 -0.0527
15891SOL    HW159651   6.932   1.316   7.519 -0.7510  0.0415  0.6933
15891SOL    HW259652   6.971   1.228   7.636 -3.3178  0.5432  1.9940
15892SOL     OW59653   0.093   1.835   8.057  0.0175  0.4647  0.0669
15892SOL    HW159654   0.038   1.912   8.070 -0.2614  0.2128  0.3881
15892SOL    HW259655   0.040   1.777   8.002  0.4330  0.7161 -0.6106
15893SOL     OW59656   5.569   5.455   9.763 -0.5084  0.6792 -0.0376
15893SOL    HW159657   5.484   5.432   9.723 -0.5568  0.4566  0.1892
15893SOL    HW259658   5.623   5.377   9.749 -0.7603  0.3108  0.9847
15894SOL     OW59659   0.735   5.244   2.001 -0.1023  0.3185 -0.0277
15894SOL    HW159660   0.649   5.202   2.001 -0.3555  0.8218  0.7292
15894SOL    HW259661   0.793   5.181   1.957 -0.6984 -0.3448  0.1279
15895SOL     OW59662   8.467   9.357   0.895 -0.5810 -0.2153 -0.1969
15895SOL    HW159663   8.482   9.265   0.918  0.7725 -0.4030 -1.6907
15895SOL    HW259664   8.463   9.358   0.800 -0.0353  1.3512 -0.2284
15896SOL     OW59665   6.458   7.005   9.839 -0.3649 -1.1682  0.0108
15896SOL    HW159666   6.477   7.093   9.872 -0.2069 -1.4048  0.5710
15896SOL    HW259667   6.383   6.976   9.891 -0.1585 -1.5196  0.1139
15897SOL     OW59668   9.175   0.077   7.760 -0.4664  0.0168  0.2667
15897SOL    HW159669   9.196   0.106   7.849  0.1726  2.0256 -0.4933
15897SOL    HW259670   9.088   0.038   7.768 -0.2855 -0.1338  1.8169
15898SOL     OW59671   6.768   5.968   4.002 -0.1953  0.7726 -0.0402
15898SOL    HW159672   6.760   5.914   3.924  3.9768 -0.9642  0.5042
15898SOL    HW259673   6.721   5.920   4.070  2.4833 -1.8513  0.1583
15899SOL     OW59674   0.895   0.640   7.694 -0.3786 -0.5465 -0.0721
15899SOL    HW159675   0.985   0.622   7.666 -0.1314 -0.7879  0.8430
15899SOL    HW259676   0.846   0.562   7.666 -0.3230 -0.3997 -0.6027
15900SOL     OW59677   9.589   3.535   0.458  0.2771  0.5345 -0.5259
15900SOL    HW159678   9.512   3.533   0.514 -0.2955 -0.8862 -1.3079
15900SOL    HW259679   9.646   3.467   0.493  0.6824  0.8097 -0.6387
15901SOL     OW59680   8.899   3.777   8.895 -0.0119  0.2809 -0.2944
15901SOL    HW159681   8.950   3.696   8.904  0.1260  0.2099 -1.5821
15901SOL    HW259682   8.881   3.784   8.801  0.4154  2.0103 -0.2827
15902SOL     OW59683   2.178   2.474   2.743  0.2041 -0.4703 -0.4089
15902SOL    HW159684   2.230   2.449   2.667  0.1472 -1.7041 -0.0705
15902SOL    HW259685   2.159   2.391   2.787 -0.0955  0.1821  0.7357
15903SOL     OW59686   2.812   4.359  10.067  0.6749 -0.2539 -0.0959
15903SOL    HW159687   2.881   4.303  10.031  0.5589 -0.4701  0.0191
15903SOL    HW259688   2.857   4.414  10.130  0.5964 -0.9895  0.6209
15904SOL     OW59689   2.039   1.990   8.958 -0.2274  0.4778 -0.0084
15904SOL    HW159690   1.947   1.964   8.955 -0.5838  1.5896  0.6048
15904SOL    HW259691   2.037   2.081   8.989  1.1397  0.1466  1.1776
15905SOL     OW59692   7.445   1.532   7.515  0.6641  0.2907 -0.4274
15905SOL    HW159693   7.401   1.448   7.521 -0.8587  1.0634 -0.2536
15905SOL    HW259694   7.499   1.526   7.436 -1.7154  0.1525 -2.1385
15906SOL     OW59695   1.266   6.748   2.049  0.4015 -0.1121  0.2291
15906SOL    HW159696   1.197   6.811   2.027 -0.0115 -0.9547 -1.0468
15906SOL    HW259697   1.222   6.681   2.102  0.3915 -0.2757  0.0187
15907SOL     OW59698   4.390   2.610   8.256 -0.3119  0.0441  0.2911
15907SOL    HW159699   4.406   2.704   8.256 -1.1330  0.2056 -0.6881
15907SOL    HW259700   4.363   2.591   8.166 -1.8422 -0.8303  0.9055
15908SOL     OW59701  10.261   8.543   5.742 -0.0075  0.4561 -0.5949
15908SOL    HW159702  10.170   8.572   5.752  0.6244  2.7669 -0.9173
15908SOL    HW259703  10.258   8.449   5.757 -2.0646  0.7972  1.8803
15909SOL     OW59704   1.290   5.881   4.447  0.1007  0.0072  0.3878
15909SOL    HW159705   1.244   5.893   4.530 -0.4313 -0.4147  0.1612
15909SOL    HW259706   1.318   5.969   4.421  2.6598 -0.1143  2.3455
15910SOL     OW59707   4.443   5.113   5.773  0.3246 -0.1310 -1.2280
15910SOL    HW159708   4.496   5.084   5.699  0.7074  0.4385 -1.1849
15910SOL    HW259709   4.353   5.096   5.747  0.5340 -1.5609 -1.1134
15911SOL     OW59710   0.190   8.390   7.976 -0.3094  0.0739 -0.3376
15911SOL    HW159711   0.097   8.391   7.952 -0.2103  1.2463 -0.7325
15911SOL    HW259712   0.204   8.302   8.012 -1.1194 -0.8427 -2.0739
15912SOL     OW59713   8.128   6.730   1.177  0.5325 -0.3118  0.1426
15912SOL    HW159714   8.199   6.669   1.197  1.2701 -0.5706 -2.8628
15912SOL    HW259715   8.171   6.805   1.135 -0.9481 -1.0793 -3.0387
15913SOL     OW59716   6.121   2.706   8.622  0.0642  0.3883  0.4537
15913SOL    HW159717   6.132   2.683   8.529  0.6594  1.4475  0.2446
15913SOL    HW259718   6.027   2.721   8.632 -0.2150 -1.1984  0.3939
15914SOL     OW59719   4.145   3.588   9.626  0.5562  0.0176 -0.4825
15914SOL    HW159720   4.223   3.584   9.571 -1.0349  2.2417 -3.1913
15914SOL    HW259721   4.079   3.538   9.578 -0.8741  1.9744 -0.6664
15915SOL     OW59722   5.844   8.364   8.697  0.2882  0.7680  0.0246
15915SOL    HW159723   5.876   8.332   8.613 -2.1670  0.4872 -0.9026
15915SOL    HW259724   5.834   8.459   8.685 -0.7417  0.6336 -0.2846
15916SOL     OW59725   7.923   5.657   7.457  0.2536 -0.4881 -0.3941
15916SOL    HW159726   7.970   5.741   7.465 -0.1731 -0.0140 -2.4151
15916SOL    HW259727   7.992   5.591   7.454  0.5910 -0.6015  3.7085
15917SOL     OW59728   0.493   4.477   1.470  0.2630 -0.0277 -0.0239
15917SOL    HW159729   0.444   4.521   1.539 -0.5344 -0.9027 -0.0047
15917SOL    HW259730   0.426   4.432   1.418  1.0613 -1.8804  0.4435
15918SOL     OW59731   2.285   0.729   4.196 -0.3988 -0.5627 -0.4891
15918SOL    HW159732   2.331   0.811   4.216 -0.1392 -0.7701 -0.2448
15918SOL    HW259733   2.193   0.756   4.189 -0.3701 -0.3107 -0.0107
15919SOL     OW59734   1.099   4.729   4.546  0.1636  0.3051  0.4954
15919SOL    HW159735   1.015   4.767   4.518 -0.0830 -0.6813 -0.1358
15919SOL    HW259736   1.089   4.716   4.640  0.0160  1.1975  0.6114
15920SOL     OW59737   9.857   7.027  10.349 -0.8413 -0.3306  0.1306
15920SOL    HW159738   9.765   7.053  10.342 -1.0035 -0.7024  0.8445
15920SOL    HW259739   9.861   6.941  10.308 -0.8477 -0.3969  0.2688
15921SOL     OW59740   2.512   2.176   7.014  0.6066 -0.1644  0.0210
15921SOL    HW159741   2.520   2.121   7.092  0.7087  1.3276  1.1117
15921SOL    HW259742   2.488   2.262   7.048  2.5977  1.0553 -1.3992
15922SOL     OW59743   3.953   8.994   7.968 -0.2939 -0.2030  0.1430
15922SOL    HW159744   4.021   9.029   7.910 -0.1759 -1.2811 -0.3966
15922SOL    HW259745   3.872   9.001   7.917  0.0408 -2.5896 -0.8302
15923SOL     OW59746   6.069   8.906   7.791 -0.2856 -0.0482  0.6401
15923SOL    HW159747   5.984   8.923   7.831 -0.5463 -0.5783  0.3345
15923SOL    HW259748   6.055   8.918   7.697 -0.6574 -2.3737  0.3189
15924SOL     OW59749   1.657   6.635   3.963 -0.4248  0.1459  0.8478
15924SOL    HW159750   1.696   6.585   3.891  1.3200  1.7524  0.5804
15924SOL    HW259751   1.612   6.708   3.920 -0.1938  0.5845  1.3447
15925SOL     OW59752   4.891   8.136   5.424  0.2881  0.1164 -0.0059
15925SOL    HW159753   4.881   8.058   5.370  0.9994 -0.4383  0.6359
15925SOL    HW259754   4.894   8.103   5.513 -0.8191  1.0234  0.3809
15926SOL     OW59755  10.215   2.687   5.494 -0.0176 -0.1417 -0.1757
15926SOL    HW159756  10.278   2.710   5.563  0.1158 -0.1675 -0.2887
15926SOL    HW259757  10.161   2.619   5.534 -0.9613  0.9494  0.4564
15927SOL     OW59758   2.914   7.746   7.766  0.0189  0.1937  0.1817
15927SOL    HW159759   2.975   7.758   7.693 -0.3712  0.0313 -0.1722
15927SOL    HW259760   2.967   7.707   7.836  0.2631 -0.1759 -0.2075
15928SOL     OW59761   3.069   9.809   7.800 -0.4038  0.0321 -0.0694
15928SOL    HW159762   3.082   9.903   7.814 -1.1177  0.1760 -0.3559
15928SOL    HW259763   2.989   9.803   7.749  0.7066 -0.6189 -1.8335
15929SOL     OW59764   4.471   1.062   6.158 -0.0061 -0.3184  0.0059
15929SOL    HW159765   4.451   1.030   6.070  0.2421  2.1047 -1.0183
15929SOL    HW259766   4.387   1.094   6.191 -0.1161 -1.3015  0.7313
15930SOL     OW59767   1.248   4.537   0.822  0.4605  0.0588 -0.2426
15930SOL    HW159768   1.188   4.582   0.883  1.0398 -0.3160  0.6240
15930SOL    HW259769   1.214   4.559   0.735 -1.7588 -1.2290  0.2084
15931SOL     OW59770   0.877   5.823   5.249 -0.1938 -0.3670  0.1438
15931SOL    HW159771   0.811   5.806   5.181  0.1755  0.1629 -0.3593
15931SOL    HW259772   0.887   5.918   5.250  1.8977 -0.4991 -1.1235
15932SOL     OW59773   4.843   4.189   6.804 -0.1314  0.3245  0.5014
15932SOL    HW159774   4.852   4.234   6.720  0.4878 -0.7360 -0.0195
15932SOL    HW259775   4.794   4.250   6.859 -0.0975  1.2452 -0.4665
15933SOL     OW59776   8.903   1.933   6.939  0.0112  0.0526  0.0759
15933SOL    HW159777   8.938   2.022   6.939 -1.4272  0.6874 -1.9986
15933SOL    HW259778   8.839   1.933   7.010 -0.5864  0.9602 -0.4381
15934SOL     OW59779   7.560   7.039   1.772 -0.1797  0.2238 -0.2562
15934SOL    HW159780   7.586   6.986   1.697  2.6169  1.1212 -0.0549
15934SOL    HW259781   7.577   7.129   1.745  0.8872  0.5670  1.3834
15935SOL     OW59782   2.072   5.898   6.752 -0.2248  0.2527 -0.0266
15935SOL    HW159783   2.036   5.922   6.667 -0.0513  1.7176  0.2934
15935SOL    HW259784   2.003   5.846   6.794 -0.9181  0.8080 -0.4618
15936SOL     OW59785   7.858   9.387   0.650  0.1820  0.1859 -0.1961
15936SOL    HW159786   7.841   9.412   0.741 -0.3114  0.0464 -0.2428
15936SOL    HW259787   7.904   9.461   0.613  2.2031 -0.5527  0.7058
15937SOL     OW59788   7.623   4.692   5.437  0.0640  0.0150  0.3558
15937SOL    HW159789   7.659   4.777   5.460  1.0948 -0.8325  1.9859
15937SOL    HW259790   7.667   4.669   5.354 -0.0727  0.9567  0.0129
15938SOL     OW59791   5.140   6.583   8.985  0.0183 -0.3245 -0.1347
15938SOL    HW159792   5.207   6.574   9.053  0.1360 -0.5220 -0.2765
15938SOL    HW259793   5.082   6.651   9.018  0.0550 -0.4448  0.1814
15939SOL     OW59794   0.949   7.064   6.465 -0.1612  0.4303 -0.0654
15939SOL    HW159795   0.871   7.075   6.520 -0.5076 -1.1759 -0.1857
15939SOL    HW259796   0.919   7.084   6.377 -0.2269  0.5961 -0.0067
15940SOL     OW59797   4.614   0.478   7.325  0.4527  0.2334 -0.8033
15940SOL    HW159798   4.679   0.418   7.361  1.3999 -0.3982 -3.3872
15940SOL    HW259799   4.595   0.445   7.237 -1.0013  2.2125 -1.3251
15941SOL     OW59800   8.202   9.037   4.275  0.2991 -0.0146 -0.0290
15941SOL    HW159801   8.228   9.094   4.203 -1.3916  2.0683  0.8830
15941SOL    HW259802   8.231   9.082   4.354  0.1568 -1.1246  0.6856
15942SOL     OW59803  10.056   8.656   9.747 -0.3463  0.1670 -0.2733
15942SOL    HW159804  10.064   8.560   9.747 -0.3122  0.1144 -2.2932
15942SOL    HW259805  10.145   8.687   9.764 -0.0116 -0.2000 -1.2853
15943SOL     OW59806   8.243   9.861  10.094 -0.7326  0.4012  0.2407
15943SOL    HW159807   8.296   9.869  10.173 -1.1762 -0.3936  0.6271
15943SOL    HW259808   8.156   9.838  10.126 -0.9827  0.3506 -0.4657
15944SOL     OW59809   3.024   4.043   0.115  0.2034  0.0590 -0.7232
15944SOL    HW159810   3.027   4.040   0.020 -1.1045 -1.3049 -0.7584
15944SOL    HW259811   2.938   4.008   0.138  0.3394  0.7217  0.9533
15945SOL     OW59812   8.493   6.602   0.464  0.3847  0.3957 -0.4086
15945SOL    HW159813   8.485   6.677   0.522  0.4680 -0.8376  1.2577
15945SOL    HW259814   8.423   6.614   0.400 -2.4511 -0.2534  2.3595
15946SOL     OW59815   3.330   7.557   5.090 -0.3039  0.0395  0.7290
15946SOL    HW159816   3.395   7.512   5.145  0.3575 -1.0465 -0.8919
15946SOL    HW259817   3.253   7.501   5.093 -0.3502  0.1029  0.7300
15947SOL     OW59818   5.644   3.401   0.198 -0.4010 -0.2228  0.7158
15947SOL    HW159819   5.611   3.433   0.283 -0.6805  0.0717  0.5026
15947SOL    HW259820   5.738   3.413   0.203 -0.3419 -0.8539  1.2495
15948SOL     OW59821   1.844   5.379   4.643  0.2394  0.5113 -0.0450
15948SOL    HW159822   1.792   5.429   4.581  0.1426  0.1975 -0.2206
15948SOL    HW259823   1.860   5.439   4.716 -1.7932  0.1143  0.7988
15949SOL     OW59824   0.715   8.874   1.702  0.1334  0.5651  0.7568
15949SOL    HW159825   0.648   8.940   1.718  0.1245  0.6096  0.5413
15949SOL    HW259826   0.783   8.920   1.653 -0.0272  0.3329  0.3100
15950SOL     OW59827   5.934   4.001   3.736 -0.2292  0.0794  0.2680
15950SOL    HW159828   5.889   4.085   3.726  1.2826  0.8472 -0.3009
15950SOL    HW259829   5.913   3.953   3.656 -2.6268 -0.8981  1.3828
15951SOL     OW59830   4.709   0.738   1.612  0.9348  0.7990 -0.6982
15951SOL    HW159831   4.788   0.685   1.597  0.6459 -1.1714  3.5565
15951SOL    HW259832   4.640   0.693   1.563  1.6621  0.3158 -1.3066
15952SOL     OW59833   1.325   6.757   9.951 -0.0115  0.1265 -0.7589
15952SOL    HW159834   1.301   6.750  10.043 -3.5826  0.7723 -1.4815
15952SOL    HW259835   1.319   6.667   9.918  0.8813 -0.0450 -0.4880
15953SOL     OW59836   8.626  10.053   1.934  0.2793  0.8061 -0.2456
15953SOL    HW159837   8.664  10.105   2.004  0.8429 -1.1584  0.9864
15953SOL    HW259838   8.701  10.023   1.882  0.0710  0.3565 -0.2992
15954SOL     OW59839   9.845   8.235   6.772 -0.3460 -0.4124  0.3051
15954SOL    HW159840   9.769   8.227   6.830 -0.2508 -2.0888  0.2677
15954SOL    HW259841   9.874   8.144   6.759  3.4901  0.2222  2.7227
15955SOL     OW59842   8.995   4.136   0.466  0.1543 -0.0904 -0.4507
15955SOL    HW159843   9.085   4.108   0.483 -0.5406 -1.6941  0.9148
15955SOL    HW259844   8.996   4.166   0.375  2.0019 -0.3552 -0.5560
15956SOL     OW59845   5.367   5.217   8.649 -0.2912 -0.1409 -0.2079
15956SOL    HW159846   5.447   5.187   8.606 -0.6445 -0.6622 -0.5113
15956SOL    HW259847   5.297   5.193   8.588 -0.7492 -0.4116  0.4193
15957SOL     OW59848   1.581   2.843   5.363  0.5248  0.5560  0.3551
15957SOL    HW159849   1.490   2.854   5.333 -0.0567 -2.5651  0.5633
15957SOL    HW259850   1.595   2.914   5.425 -1.8788  1.0188  0.4735
15958SOL     OW59851   6.341   3.913   8.114 -0.4026 -0.2945 -0.3403
15958SOL    HW159852   6.280   3.924   8.041 -0.2470  0.7925 -0.3353
15958SOL    HW259853   6.307   3.971   8.182 -0.0828 -0.6682  0.1395
15959SOL     OW59854   2.657   5.183  10.221  0.2241 -0.5702  0.2609
15959SOL    HW159855   2.700   5.140  10.147  0.7678 -0.2859  0.4081
15959SOL    HW259856   2.677   5.128  10.297 -0.4038 -0.9074  0.1844
15960SOL     OW59857   3.928  10.064   7.564  0.0941 -0.5724  0.1956
15960SOL    HW159858   4.009  10.017   7.582  0.0289 -0.7843 -0.0652
15960SOL    HW259859   3.889  10.018   7.489 -0.0788 -0.2427  0.0806
15961SOL     OW59860   6.701   6.840   9.845 -0.1201  0.0746 -0.2623
15961SOL    HW159861   6.637   6.908   9.867 -1.1955 -1.2108  0.8128
15961SOL    HW259862   6.733   6.863   9.758 -1.0745  1.4763 -0.2671
15962SOL     OW59863   7.737   9.646   3.866 -0.5928  0.1541 -0.3367
15962SOL    HW159864   7.759   9.580   3.801  1.4802  0.1831  0.2395
15962SOL    HW259865   7.646   9.630   3.888 -0.3306 -2.1301 -0.6666
15963SOL     OW59866   8.499   0.344   0.564  0.0117  0.2266  0.1552
15963SOL    HW159867   8.515   0.268   0.507 -0.5858 -0.9639  1.5042
15963SOL    HW259868   8.458   0.409   0.506 -2.2091 -1.5804 -0.4881
15964SOL     OW59869   8.146   8.606   9.804 -0.0421  0.2469 -0.2384
15964SOL    HW159870   8.159   8.562   9.888 -0.3366 -0.9925 -0.8142
15964SOL    HW259871   8.051   8.622   9.800  0.0167  0.6182 -0.1919
15965SOL     OW59872   0.108   9.470   6.517  0.0500 -0.0879  0.1456
15965SOL    HW159873   0.043   9.529   6.479  0.4084 -1.0716 -2.1523
15965SOL    HW259874   0.056   9.396   6.550 -0.1304 -0.1137 -0.1919
15966SOL     OW59875   3.748   8.883   3.003  0.2340  0.5300  0.2602
15966SOL    HW159876   3.734   8.976   2.983 -0.0702  0.1395 -1.4763
15966SOL    HW259877   3.662   8.843   2.992  0.8278 -0.3562 -1.4550
15967SOL     OW59878   9.498   5.620   5.536 -0.3589 -0.0128  0.7824
15967SOL    HW159879   9.521   5.545   5.590  0.1822 -0.4096  0.0139
15967SOL    HW259880   9.578   5.640   5.487 -0.0591  1.8927  1.9164
15968SOL     OW59881   8.269   8.143   3.466  0.1412  0.6422 -0.1159
15968SOL    HW159882   8.344   8.157   3.523  0.6039 -1.4643 -0.1244
15968SOL    HW259883   8.218   8.074   3.509  0.4396 -0.9432 -2.1172
15969SOL     OW59884   2.697   2.592   3.431 -0.2685  0.0121 -0.1087
15969SOL    HW159885   2.632   2.524   3.444 -0.2451 -0.3836 -1.7905
15969SOL    HW259886   2.648   2.668   3.399 -0.0395  0.0932 -0.2760
15970SOL     OW59887   6.274   1.090   9.173 -0.6222 -0.6534  0.1108
15970SOL    HW159888   6.260   1.181   9.199 -3.3947 -0.9294 -0.1081
15970SOL    HW259889   6.310   1.096   9.084 -1.7277  0.2653 -0.3009
15971SOL     OW59890  10.283   0.921   3.268 -0.4040  0.5387 -0.1889
15971SOL    HW159891  10.318   0.839   3.302  1.3833  1.3491  0.0838
15971SOL    HW259892  10.255   0.901   3.179  0.1188 -0.3527 -0.1628
15972SOL     OW59893   5.758   7.457   4.578  0.1390 -0.3586 -0.0189
15972SOL    HW159894   5.792   7.506   4.503  2.3531 -1.5837  0.0850
15972SOL    HW259895   5.703   7.520   4.625  0.1707  0.9766 -1.6732
15973SOL     OW59896   3.523   7.410   3.596 -0.2385 -0.1820 -0.2848
15973SOL    HW159897   3.611   7.398   3.630 -0.2934  0.0000 -0.0817
15973SOL    HW259898   3.469   7.350   3.648 -0.7518  1.8402  1.6683
15974SOL     OW59899  10.388   9.846   5.459  0.0932  0.1146  0.5398
15974SOL    HW159900  10.366   9.935   5.485 -2.3242 -0.4518  0.7029
15974SOL    HW259901  10.481   9.849   5.436  0.2520  2.4744  1.2875
15975SOL     OW59902   4.452   9.517   1.498 -0.3906  0.5639  0.2991
15975SOL    HW159903   4.369   9.529   1.452 -0.6904 -0.0339  0.6640
15975SOL    HW259904   4.518   9.550   1.438 -0.7674 -0.2730 -0.5997
15976SOL     OW59905   4.166   1.445   3.754 -0.0207  0.1443 -0.1826
15976SOL    HW159906   4.227   1.374   3.735 -1.3214 -1.1179  0.1639
15976SOL    HW259907   4.128   1.468   3.669  0.5330  0.5713 -0.3211
15977SOL     OW59908  10.097   1.744   0.773  0.3595 -0.4193  0.7340
15977SOL    HW159909  10.139   1.714   0.853  2.7114 -1.8226 -0.8966
15977SOL    HW259910  10.009   1.707   0.776  0.5533 -0.8129  2.4297
15978SOL     OW59911   8.331   0.983   5.688  0.5698 -0.3896 -0.0264
15978SOL    HW159912   8.295   1.031   5.613 -2.9289 -1.7616  0.5463
15978SOL    HW259913   8.338   0.892   5.657  1.2389 -0.5869  0.6729
15979SOL     OW59914   5.891   2.321   7.207  0.1788  0.2341  0.6657
15979SOL    HW159915   5.814   2.308   7.153 -0.4670  1.9504  1.0992
15979SOL    HW259916   5.965   2.300   7.149 -0.5623 -0.1874 -0.1455
15980SOL     OW59917   7.609   6.229   8.785  0.2565 -0.1452 -0.5522
15980SOL    HW159918   7.664   6.231   8.707  0.8383  0.1519 -0.1430
15980SOL    HW259919   7.529   6.184   8.757  1.7903 -3.1294 -0.4541
15981SOL     OW59920   6.329   9.812   2.123  0.2544  0.4240 -0.4770
15981SOL    HW159921   6.273   9.859   2.062 -0.7961  0.2108  0.2818
15981SOL    HW259922   6.295   9.722   2.122  0.4882  0.3221  0.0780
15982SOL     OW59923   0.957   1.494   7.137  0.0914  0.0399  0.5785
15982SOL    HW159924   0.908   1.453   7.209  1.4855 -1.6871  0.6130
15982SOL    HW259925   0.914   1.461   7.058  0.4879 -0.5912  0.6174
15983SOL     OW59926   2.275   2.308   8.843 -0.3886 -0.0674  0.2989
15983SOL    HW159927   2.358   2.327   8.800 -0.3295  0.9959  0.8460
15983SOL    HW259928   2.231   2.246   8.785 -1.1125  2.6309 -2.2778
15984SOL     OW59929   8.987  10.162   1.257  0.4610  0.5758  0.5985
15984SOL    HW159930   8.984  10.092   1.192  1.6303  0.1123  1.0150
15984SOL    HW259931   8.918  10.139   1.321 -1.4582  1.6167 -0.9899
15985SOL     OW59932   4.976   2.067   6.779  0.2777 -0.2901 -0.1185
15985SOL    HW159933   4.978   1.983   6.824  2.2974  0.5856  1.6240
15985SOL    HW259934   5.005   2.048   6.690 -1.2414 -1.6874 -0.3483
15986SOL     OW59935  10.382   4.202  10.279  0.1014 -0.3357  0.5220
15986SOL    HW159936  10.392   4.283  10.229  0.8752 -0.0859  1.0567
15986SOL    HW259937  10.468   4.189  10.321 -0.3521 -0.8365  1.3282
15987SOL     OW59938   1.626  10.002   1.896  0.1597  0.3304  0.6950
15987SOL    HW159939   1.572  10.036   1.969 -0.7860 -0.0057  0.1721
15987SOL    HW259940   1.601   9.910   1.889  0.5232  0.2689  0.1838
15988SOL     OW59941   4.842   3.218   9.269  0.3777  0.7850  0.4203
15988SOL    HW159942   4.883   3.298   9.236  0.3274  1.1954  1.3143
15988SOL    HW259943   4.914   3.165   9.302  0.4527  0.2705 -0.5223
15989SOL     OW59944   1.397   2.503   5.817  0.3779 -0.1529  0.1930
15989SOL    HW159945   1.401   2.516   5.912 -0.2410 -1.2560  0.3892
15989SOL    HW259946   1.348   2.422   5.807 -0.0959  0.2776 -1.0994
15990SOL     OW59947   6.813   5.655   8.819  0.1426 -0.4552  0.0070
15990SOL    HW159948   6.790   5.563   8.829  0.3846 -0.5212 -0.0416
15990SOL    HW259949   6.854   5.661   8.732 -0.7685 -0.1231 -0.4101
15991SOL     OW59950   2.725   0.226   1.987  0.1545  0.0771 -0.1589
15991SOL    HW159951   2.674   0.146   1.976 -1.0882  0.9698 -1.2105
15991SOL    HW259952   2.690   0.286   1.921  3.1716  0.4553 -1.5857
15992SOL     OW59953   5.881  10.325   8.869 -0.1300  0.3010 -0.1530
15992SOL    HW159954   5.943  10.392   8.898  2.3211 -1.6726 -0.5056
15992SOL    HW259955   5.881  10.331   8.773  0.2583 -0.3047 -0.1973
15993SOL     OW59956   9.354   1.230   3.194 -0.2435 -0.1791 -0.0495
15993SOL    HW159957   9.336   1.292   3.264 -0.1773 -0.2418  0.0233
15993SOL    HW259958   9.269   1.216   3.152 -0.3363 -0.3475  0.1906
15994SOL     OW59959   6.281   6.101   8.220  0.2084 -0.1257 -0.4094
15994SOL    HW159960   6.283   6.035   8.150  1.5579 -2.5456  1.7458
15994SOL    HW259961   6.215   6.068   8.281  0.2458  1.0388  0.2839
15995SOL     OW59962   7.706   5.616   7.264  0.0637 -0.1343 -0.1458
15995SOL    HW159963   7.766   5.662   7.323 -0.3867  0.3155 -0.0275
15995SOL    HW259964   7.756   5.541   7.232 -0.0605 -1.1229  1.7940
15996SOL     OW59965   8.156   1.367   9.067  0.2428  0.3110 -0.2340
15996SOL    HW159966   8.221   1.350   9.135  1.3868 -0.7218 -1.5331
15996SOL    HW259967   8.131   1.281   9.035 -1.3423  0.7274 -0.1611
15997SOL     OW59968   2.284   9.593   5.683  0.5603  0.0740 -0.0240
15997SOL    HW159969   2.227   9.545   5.623  1.5381  0.7429 -1.5696
15997SOL    HW259970   2.294   9.535   5.759 -1.0317 -0.6337 -0.3162
15998SOL     OW59971   8.922  10.330   7.744 -0.3548  0.2546  0.1318
15998SOL    HW159972   8.832  10.335   7.777 -0.4685  0.2192 -0.1761
15998SOL    HW259973   8.954  10.245   7.776 -0.7845 -0.2133 -0.6544
15999SOL     OW59974   5.249   0.174   9.096  0.4135  0.1671  0.0443
15999SOL    HW159975   5.333   0.214   9.117  0.0176  0.9924  0.0881
15999SOL    HW259976   5.250   0.090   9.142  1.6878 -0.3600 -0.8824
16000SOL     OW59977   7.591   3.563   9.700  0.1853  0.3097  0.1051
16000SOL    HW159978   7.603   3.493   9.636  1.5643 -0.1194  0.7872
16000SOL    HW259979   7.607   3.644   9.651 -0.0477  0.0622 -0.3794
16001SOL     OW59980   2.501   7.193   5.237 -0.0085  0.0176  0.9974
16001SOL    HW159981   2.420   7.211   5.190  1.7242 -0.6911 -2.5305
16001SOL    HW259982   2.488   7.106   5.275 -0.7317 -0.3293 -0.0056
16002SOL     OW59983   0.510   7.573   4.921  0.6025 -0.2874  0.3301
16002SOL    HW159984   0.440   7.600   4.862 -0.4091  1.2890  2.1477
16002SOL    HW259985   0.474   7.500   4.970  1.9813 -2.6387 -1.9062
16003SOL     OW59986   4.548   4.804   5.477 -0.5379  0.4032 -0.4973
16003SOL    HW159987   4.641   4.783   5.466 -0.6792 -0.3808 -0.2575
16003SOL    HW259988   4.519   4.833   5.390 -0.2356 -0.0267 -0.7431
16004SOL     OW59989   5.620   9.924   8.061 -0.3585 -0.0133 -0.3706
16004SOL    HW159990   5.532   9.912   8.024 -0.0867  0.3510 -1.1490
16004SOL    HW259991   5.604   9.946   8.153 -1.0279 -1.3533 -0.1478
16005SOL     OW59992   0.802   4.920   0.729 -0.1714 -0.3243  0.3566
16005SOL    HW159993   0.880   4.869   0.753  0.0615 -0.3572 -0.4405
16005SOL    HW259994   0.754   4.930   0.811  0.5589 -0.5018  0.8215
16006SOL     OW59995  10.068   1.116   8.875 -0.0466  0.4285  0.1735
16006SOL    HW159996  10.088   1.202   8.912  1.5960 -0.1605  0.7236
16006SOL    HW259997  10.049   1.061   8.951  0.6547 -0.1225 -0.0454
16007SOL     OW59998   6.208   8.446   6.329 -0.3063  0.3416  0.0185
16007SOL    HW159999   6.184   8.538   6.320  1.5259  0.7648 -1.0935
16007SOL    HW260000   6.223   8.416   6.240  0.6873 -0.5695  0.4632
16008SOL     OW60001   7.138   6.114  10.388  0.0825 -0.0896 -0.7854
16008SOL    HW160002   7.200   6.162  10.333  2.4070 -0.4632  1.2928
16008SOL    HW260003   7.125   6.031  10.343  2.0237 -0.4408 -0.8065
16009SOL     OW60004   1.907   4.526   5.652  0.4267  0.1359  0.1169
16009SOL    HW160005   1.903   4.442   5.606  0.1432  0.5103 -0.5574
16009SOL    HW260006   1.993   4.562   5.630  1.1377 -0.6098  1.5602
16010SOL     OW60007   1.663   1.840   1.121 -0.1712  0.0182  0.2245
16010SOL    HW160008   1.599   1.779   1.159 -0.7202  0.5637  0.1774
16010SOL    HW260009   1.647   1.923   1.164  0.6721  0.1127  0.3870
16011SOL     OW60010   9.996   7.095   9.924 -0.1488 -0.0590 -0.1169
16011SOL    HW160011  10.060   7.144   9.871 -2.0175  0.6892 -1.8163
16011SOL    HW260012   9.969   7.156   9.992  1.5194 -0.6770  1.1645
16012SOL     OW60013   1.044   0.178   0.578  0.4364  0.3017  0.4356
16012SOL    HW160014   1.062   0.243   0.646  0.5978  1.0535 -0.3117
16012SOL    HW260015   0.960   0.140   0.604  0.3490  0.7920  0.9018
16013SOL     OW60016   9.190   7.405   7.668  0.0804 -0.5856 -0.8973
16013SOL    HW160017   9.256   7.424   7.734 -1.6043 -0.9908  1.0097
16013SOL    HW260018   9.190   7.481   7.610  0.4378  0.5905  0.6037
16014SOL     OW60019   1.314  10.049   1.532  0.4067 -0.0887  0.6454
16014SOL    HW160020   1.383  10.071   1.470  0.7432 -3.3885 -0.3570
16014SOL    HW260021   1.237  10.033   1.477 -0.2766  0.3242  1.4500
16015SOL     OW60022   5.982   1.175   0.805 -0.5601 -0.0160 -0.1217
16015SOL    HW160023   6.051   1.139   0.750 -1.0362 -0.6149 -0.3350
16015SOL    HW260024   6.004   1.268   0.814  2.7230 -0.8647  3.3685
16016SOL     OW60025   5.685   7.245   1.683 -0.4930 -0.6321  0.2926
16016SOL    HW160026   5.687   7.330   1.639  1.1846 -0.3279  0.8873
16016SOL    HW260027   5.662   7.265   1.774  1.8732 -0.5067  0.9324
16017SOL     OW60028   7.275   5.407   0.341 -0.3607 -0.2824 -0.1287
16017SOL    HW160029   7.183   5.417   0.365  0.0276  2.9906  0.4588
16017SOL    HW260030   7.318   5.384   0.424 -0.5859 -1.7179 -0.3847
16018SOL     OW60031   0.503   7.550   8.815 -0.2440 -0.2306  0.5824
16018SOL    HW160032   0.565   7.487   8.777  0.1094  0.3531  0.1687
16018SOL    HW260033   0.420   7.503   8.818 -0.5994  0.0470 -2.0532
16019SOL     OW60034   4.907   8.760   7.145  0.3349  0.0832 -0.1886
16019SOL    HW160035   4.953   8.833   7.103 -0.2129 -0.3023 -1.5093
16019SOL    HW260036   4.859   8.718   7.074 -2.6418  0.8689  1.1776
16020SOL     OW60037   5.819  10.121   8.433 -0.6387  0.0592  0.0666
16020SOL    HW160038   5.736  10.117   8.385 -0.4090  0.9789 -0.4227
16020SOL    HW260039   5.872  10.051   8.394 -0.7344  0.2958 -0.4944
16021SOL     OW60040   6.643   0.647   7.778  0.0442 -0.3756 -0.3766
16021SOL    HW160041   6.574   0.593   7.741  0.1815  0.1386 -1.3957
16021SOL    HW260042   6.724   0.605   7.750  0.1479 -0.0496 -0.5754
16022SOL     OW60043   9.254   3.395   9.488 -0.2290 -0.6097  0.2074
16022SOL    HW160044   9.293   3.436   9.411  0.7957 -1.1784  0.4006
16022SOL    HW260045   9.297   3.436   9.563 -2.1224  0.8620  0.5817
16023SOL     OW60046  10.214   7.320   1.572 -0.5922 -0.3142  0.0348
16023SOL    HW160047  10.186   7.403   1.533 -0.5006 -1.7522 -3.4493
16023SOL    HW260048  10.138   7.291   1.622 -2.0975  0.1497 -1.8258
16024SOL     OW60049   8.082   7.702   0.283 -0.6693 -0.2102  0.1133
16024SOL    HW160050   8.054   7.698   0.375 -0.8621  2.3974  0.2600
16024SOL    HW260051   8.049   7.787   0.252  1.4326  0.0533 -1.6542
16025SOL     OW60052   9.952  10.050   7.757  0.2395 -0.3020 -0.3070
16025SOL    HW160053   9.894  10.085   7.690 -1.0257  1.3478  1.5328
16025SOL    HW260054  10.039  10.083   7.733 -0.4433  1.6353 -0.3404
16026SOL     OW60055   4.553   9.379   9.709 -0.4892 -0.4647  0.4003
16026SOL    HW160056   4.487   9.356   9.775 -0.7444 -1.0411 -0.0483
16026SOL    HW260057   4.521   9.462   9.673 -2.0331 -1.6688 -1.1592
16027SOL     OW60058   0.455  10.317   2.027 -0.2560  0.2697 -0.9805
16027SOL    HW160059   0.526  10.259   2.055 -0.1885  0.5955 -0.4571
16027SOL    HW260060   0.387  10.258   1.994 -0.5839 -0.1954  0.4331
16028SOL     OW60061   1.471  10.293   0.529 -0.0760  0.2719  0.0145
16028SOL    HW160062   1.399  10.347   0.495 -0.4686 -0.3339 -0.1398
16028SOL    HW260063   1.514  10.259   0.450 -0.4409 -0.4245  0.1030
16029SOL     OW60064   0.860   8.766  10.347 -0.3978 -0.0711  0.2785
16029SOL    HW160065   0.820   8.839  10.394 -1.5584 -0.7255  0.3335
16029SOL    HW260066   0.927   8.732  10.407 -1.9381 -0.9743  1.5482
16030SOL     OW60067   5.257   7.589   8.321  0.5135  0.7160 -0.1947
16030SOL    HW160068   5.240   7.638   8.240 -0.0753  0.1984 -0.3921
16030SOL    HW260069   5.192   7.623   8.383 -0.8836 -0.7982 -0.7540
16031SOL     OW60070   9.535  10.089   2.284  0.4752 -0.5545 -0.3866
16031SOL    HW160071   9.573  10.024   2.225  0.8558 -0.2610 -0.4766
16031SOL    HW260072   9.589  10.084   2.363  0.3162 -0.5608 -0.2784
16032SOL     OW60073   4.418   8.338   9.474 -0.5874 -0.2075  0.0672
16032SOL    HW160074   4.404   8.384   9.391 -1.5875  0.4033  0.5479
16032SOL    HW260075   4.389   8.401   9.540 -1.3887 -1.3060  0.7881
16033SOL     OW60076   3.271   5.918   4.466 -0.2018 -0.1210  0.1659
16033SOL    HW160077   3.302   5.995   4.513 -0.1196 -0.7740  1.2280
16033SOL    HW260078   3.193   5.947   4.420 -0.8367  0.3463  1.4649
16034SOL     OW60079   8.192   0.955   6.442  0.6086 -0.2723 -0.0659
16034SOL    HW160080   8.099   0.952   6.419 -0.2616 -4.9344  2.8051
16034SOL    HW260081   8.237   0.929   6.362 -0.6976  0.3389 -1.0366
16035SOL     OW60082   1.666   5.421   3.609  0.3413  0.2454  0.5885
16035SOL    HW160083   1.613   5.463   3.678  0.4423  2.0094 -0.3502
16035SOL    HW260084   1.681   5.490   3.545 -0.7071 -1.5869 -1.8233
16036SOL     OW60085   4.277   2.526   2.238 -0.2632 -0.0661  0.3927
16036SOL    HW160086   4.314   2.441   2.264 -1.0337 -0.4633  0.2231
16036SOL    HW260087   4.353   2.584   2.231  0.2164 -0.5924  1.0797
16037SOL     OW60088   2.751   3.349   4.010  0.0684 -0.3745 -0.4208
16037SOL    HW160089   2.700   3.360   4.090  3.5946 -2.0592  2.3824
16037SOL    HW260090   2.691   3.308   3.948 -2.7879  0.8225  1.3352
16038SOL     OW60091   5.540  10.381   8.702  0.5892  0.0250  0.0025
16038SOL    HW160092   5.480  10.343   8.638  0.6024 -1.0040  0.5775
16038SOL    HW260093   5.518  10.474   8.703  0.5669  0.0690 -1.4588
16039SOL     OW60094   0.939   5.519   5.259  0.1288  0.1564  0.0550
16039SOL    HW160095   0.860   5.565   5.231  0.3840  2.4023  2.5337
16039SOL    HW260096   0.965   5.467   5.184 -4.3088 -1.6696 -0.5499
16040SOL     OW60097   0.685   1.366   1.545 -0.7910  0.5593 -0.1926
16040SOL    HW160098   0.599   1.377   1.503 -0.6252  1.7030 -0.2746
16040SOL    HW260099   0.697   1.272   1.552 -1.0723  0.3384 -2.1867
16041SOL     OW60100   0.175   8.774   6.953  0.0949 -0.3684 -0.0833
16041SOL    HW160101   0.095   8.754   6.904  0.7480 -0.8855 -0.9567
16041SOL    HW260102   0.214   8.689   6.971  0.9732 -0.0834 -0.5701
16042SOL     OW60103   3.709   8.942   9.182  0.5873 -0.5048  0.3557
16042SOL    HW160104   3.665   8.905   9.259 -0.4181 -0.0366  0.0156
16042SOL    HW260105   3.709   9.036   9.198 -0.4489 -0.3220 -0.6320
16043SOL     OW60106   2.562   7.428   9.665 -0.1535 -0.0714 -0.4920
16043SOL    HW160107   2.476   7.401   9.698 -0.4742  0.7395 -0.6462
16043SOL    HW260108   2.546   7.513   9.624  0.8370  0.3670  0.0119
16044SOL     OW60109   9.529   2.341   5.402 -0.6575 -0.3269  0.2516
16044SOL    HW160110   9.619   2.311   5.411 -0.4992  0.1204  0.1441
16044SOL    HW260111   9.535   2.428   5.362 -1.1118 -0.1159  0.6231
16045SOL     OW60112   5.170   8.145   8.784  0.0597 -0.8006 -0.2244
16045SOL    HW160113   5.111   8.152   8.709  1.4070  0.4104 -1.2327
16045SOL    HW260114   5.117   8.104   8.852 -1.8793  0.0661 -1.1303
16046SOL     OW60115   9.286   6.315   9.815  0.3056 -0.6501  0.1221
16046SOL    HW160116   9.226   6.344   9.884 -0.5486  1.8152 -1.4938
16046SOL    HW260117   9.232   6.312   9.736  1.6618 -1.4257 -0.8114
16047SOL     OW60118   7.063   1.967  10.085 -0.0405 -0.0615 -0.1745
16047SOL    HW160119   7.058   2.023  10.007 -1.1151  0.3782  0.1813
16047SOL    HW260120   7.123   2.012  10.144  1.1744 -0.6477 -0.9237
16048SOL     OW60121   8.486   3.065   4.385  0.4110  0.5357  0.0277
16048SOL    HW160122   8.580   3.074   4.401  0.2136  1.5062  0.7908
16048SOL    HW260123   8.468   2.971   4.393  1.3286  0.3382 -0.2278
16049SOL     OW60124   7.339  10.235   2.340  0.1492  0.1724 -0.9012
16049SOL    HW160125   7.253  10.272   2.359 -1.5115 -2.9441 -1.6286
16049SOL    HW260126   7.365  10.275   2.257 -0.1363  1.7528 -0.2692
16050SOL     OW60127   7.025   4.923  10.003 -0.2819  0.0433 -0.3693
16050SOL    HW160128   7.014   4.879  10.088  0.3315  0.6342  0.0194
16050SOL    HW260129   7.119   4.925   9.989 -0.3635  0.2908 -0.8934
16051SOL     OW60130   1.113   5.729   3.908 -0.2715 -0.1278  0.3742
16051SOL    HW160131   1.151   5.655   3.861  0.3467 -0.4326  1.3072
16051SOL    HW260132   1.184   5.793   3.913 -1.1614  1.1001 -1.5099
16052SOL     OW60133   4.120   3.549   5.597  0.5785  0.6089  0.3118
16052SOL    HW160134   4.033   3.538   5.636 -1.1765  0.9635 -3.1123
16052SOL    HW260135   4.156   3.461   5.595 -0.8372  0.0156 -0.5106
16053SOL     OW60136   5.745   6.507   9.320 -0.0886 -0.2819 -0.5245
16053SOL    HW160137   5.764   6.488   9.228  1.5978 -0.1689 -0.2222
16053SOL    HW260138   5.755   6.602   9.328 -2.0936 -0.0174 -0.6020
16054SOL     OW60139   8.703   1.903   3.423  0.5403 -0.1719  0.2778
16054SOL    HW160140   8.765   1.976   3.413 -0.3451  0.4542 -0.9502
16054SOL    HW260141   8.731   1.838   3.358  1.5975 -1.1652  1.6746
16055SOL     OW60142   3.710   1.392   3.545  0.9598 -0.3782  0.3396
16055SOL    HW160143   3.792   1.348   3.521  1.3981  0.7585 -0.3265
16055SOL    HW260144   3.703   1.465   3.485 -1.1456 -1.0744 -0.3521
16056SOL     OW60145   6.387   7.514   6.271 -0.3013  0.0442 -0.5836
16056SOL    HW160146   6.474   7.476   6.278 -0.4020 -0.1868 -0.5925
16056SOL    HW260147   6.397   7.587   6.210  0.1294  0.7311  0.2762
16057SOL     OW60148   5.115   1.061   0.271  0.0708  0.6549 -0.1434
16057SOL    HW160149   5.023   1.034   0.279  0.6470 -1.4848 -0.2174
16057SOL    HW260150   5.164   0.995   0.320  1.4856  2.7682  1.4698
16058SOL     OW60151   0.039   0.051   7.962 -0.2022  0.1593 -0.3434
16058SOL    HW160152   0.022   0.049   8.056 -0.2362  1.7286 -0.2913
16058SOL    HW260153   0.041  -0.041   7.936 -1.2598 -0.2761  0.9970
16059SOL     OW60154   4.944   0.076   5.191 -0.3805  0.1866 -0.1290
16059SOL    HW160155   4.862   0.057   5.145  0.9440  2.6975 -4.0642
16059SOL    HW260156   4.983  -0.009   5.208 -1.9140 -0.9787 -2.0230
16060SOL     OW60157   8.342   8.076   9.672 -0.2006  0.2056  0.1325
16060SOL    HW160158   8.306   8.003   9.622  1.1465  1.1036 -2.3428
16060SOL    HW260159   8.382   8.133   9.606 -0.9508  3.0728  1.9577
16061SOL     OW60160   1.232   1.603   8.367  0.3953  0.1483  0.3436
16061SOL    HW160161   1.141   1.617   8.394  0.2906  0.3336 -0.0937
16061SOL    HW260162   1.264   1.534   8.425  0.0948  0.3568  0.7580
16062SOL     OW60163   7.435   2.331   3.260  0.5877 -0.0989  0.1216
16062SOL    HW160164   7.482   2.250   3.281  0.1929  0.0872  1.8596
16062SOL    HW260165   7.477   2.397   3.315 -1.0686  0.2594  1.0042
16063SOL     OW60166   3.272   9.933   3.412  0.0895  0.1644  0.0917
16063SOL    HW160167   3.287  10.025   3.389  1.5099 -0.5206 -2.0564
16063SOL    HW260168   3.360   9.895   3.418 -0.4832 -1.1766  0.3712
16064SOL     OW60169   5.596   1.068   1.754  0.1700 -0.1126  0.1020
16064SOL    HW160170   5.674   1.048   1.805 -0.6480 -1.5997  0.8241
16064SOL    HW260171   5.619   1.045   1.664  1.4084  1.9315 -0.1805
16065SOL     OW60172  10.219   3.654   2.245 -0.0467 -0.6007 -0.3267
16065SOL    HW160173  10.206   3.561   2.227 -0.0816 -0.5038 -0.8266
16065SOL    HW260174  10.176   3.699   2.172 -2.3300 -0.0994  1.2381
16066SOL     OW60175   9.722   3.771   0.020 -0.7554  0.6321 -0.0270
16066SOL    HW160176   9.734   3.742  -0.071 -0.7671 -1.5285  0.6108
16066SOL    HW260177   9.774   3.850   0.027  0.1848  0.1943 -1.6113
16067SOL     OW60178   5.443   0.398   2.976  0.2369  0.1614  0.4180
16067SOL    HW160179   5.504   0.327   2.994  2.0422  0.8943 -2.2108
16067SOL    HW260180   5.458   0.420   2.884 -0.3712  3.8045  1.0392
16068SOL     OW60181  10.117   5.224   7.299  0.1978  0.2984 -0.2719
16068SOL    HW160182  10.069   5.253   7.376 -1.2973  0.8302 -1.3433
16068SOL    HW260183  10.053   5.170   7.251  1.3803 -0.7645 -0.7090
16069SOL     OW60184   7.657   2.069   3.704 -0.2451 -0.4001 -0.4563
16069SOL    HW160185   7.581   2.015   3.681 -0.5550 -0.5343  0.8103
16069SOL    HW260186   7.725   2.006   3.727  0.1780 -0.2747 -1.3396
16070SOL     OW60187   0.676   1.609   5.626 -0.2448  0.0158 -0.5623
16070SOL    HW160188   0.660   1.704   5.628  0.0804  0.0707  1.0561
16070SOL    HW260189   0.769   1.601   5.603  0.2510  0.2084  1.2317
16071SOL     OW60190   4.535   5.772   7.535 -0.0037 -0.0340  0.2074
16071SOL    HW160191   4.526   5.792   7.442  0.0896 -0.8143  0.0174
16071SOL    HW260192   4.609   5.711   7.539 -2.3776 -3.2038  0.2345
16072SOL     OW60193   1.639   7.541   6.763 -0.1415  0.7466 -0.7900
16072SOL    HW160194   1.735   7.542   6.766 -0.1429 -0.5617  0.4878
16072SOL    HW260195   1.618   7.584   6.680  1.5328  1.2407 -1.0036
16073SOL     OW60196   3.542   0.185   8.807  0.5730  0.2102  0.6631
16073SOL    HW160197   3.552   0.093   8.787 -0.7123  0.3022 -0.5177
16073SOL    HW260198   3.628   0.224   8.788  0.8859 -0.5930  0.4195
16074SOL     OW60199   8.612   4.477   4.193  0.3727 -0.0651 -0.5417
16074SOL    HW160200   8.631   4.561   4.234  0.0597 -0.0258 -0.4772
16074SOL    HW260201   8.676   4.471   4.122  1.9574 -0.8370  0.8811
16075SOL     OW60202   1.777   8.042   6.272 -0.0292  0.5061 -0.5373
16075SOL    HW160203   1.692   8.009   6.244  0.0014  0.2582 -0.3441
16075SOL    HW260204   1.781   8.022   6.365  0.5590 -0.1889 -0.7006
16076SOL     OW60205   0.056   1.088   2.256  0.2278  0.0595 -0.1241
16076SOL    HW160206   0.119   1.034   2.304  0.8020 -0.4813 -1.4572
16076SOL    HW260207  -0.029   1.045   2.270  0.3250  0.1198  0.6969
16077SOL     OW60208   3.135   1.904   6.954  0.3396 -0.6220 -0.1312
16077SOL    HW160209   3.091   1.987   6.976  0.5489 -1.1704  2.7450
16077SOL    HW260210   3.211   1.931   6.902 -0.0683  0.9094 -0.0066
16078SOL     OW60211   1.246   1.947   7.416  0.0135 -0.5405 -0.2867
16078SOL    HW160212   1.227   1.960   7.509 -0.5851  0.0655 -0.4870
16078SOL    HW260213   1.162   1.921   7.379  0.8524 -4.0034 -0.1255
16079SOL     OW60214   6.589   7.061   8.885 -0.0850  0.2782  0.1378
16079SOL    HW160215   6.518   7.021   8.834  1.4208  0.0118 -1.8972
16079SOL    HW260216   6.600   7.148   8.848  2.4936 -0.6886 -1.6766
16080SOL     OW60217   1.785   5.453   3.930  0.8180  1.1447 -0.0138
16080SOL    HW160218   1.697   5.426   3.904  0.9342  1.2941 -0.5726
16080SOL    HW260219   1.812   5.388   3.995  0.8888  0.1946 -0.9664
16081SOL     OW60220   4.678   5.954   5.936 -0.3099  0.4212  0.3605
16081SOL    HW160221   4.593   5.997   5.925 -0.2691  0.3600 -0.2894
16081SOL    HW260222   4.707   5.978   6.023 -1.1421  0.1971  0.7077
16082SOL     OW60223   0.519   7.304   7.240  0.1190 -0.2718  0.1832
16082SOL    HW160224   0.602   7.318   7.286  0.4338 -0.1288 -0.4196
16082SOL    HW260225   0.489   7.392   7.217  1.1329 -0.3997 -1.9029
16083SOL     OW60226   5.210   1.022   1.150  0.2673 -0.1000  0.4493
16083SOL    HW160227   5.153   1.084   1.195  0.9932  0.3689  0.7424
16083SOL    HW260228   5.263   0.983   1.219  1.8926  1.1397 -0.0168
16084SOL     OW60229   6.194   2.762   2.934 -0.2643 -0.1634 -0.2248
16084SOL    HW160230   6.163   2.674   2.914  0.3352 -0.3212 -0.4698
16084SOL    HW260231   6.193   2.807   2.849  1.3375 -0.5383 -0.4711
16085SOL     OW60232   8.799   1.057   4.124 -0.4393  0.0284 -0.0387
16085SOL    HW160233   8.726   1.118   4.133 -0.5817  0.5186 -3.2575
16085SOL    HW260234   8.871   1.111   4.092  0.2699 -1.0518 -0.3105
16086SOL     OW60235   7.166   4.313   7.971 -0.0401 -0.2602  0.1446
16086SOL    HW160236   7.200   4.386   7.919 -1.7228 -0.5338 -1.4572
16086SOL    HW260237   7.132   4.354   8.051  0.7577  0.4532  0.1289
16087SOL     OW60238   2.555   3.527   2.408 -0.4393 -0.3525  0.3685
16087SOL    HW160239   2.574   3.617   2.432 -2.7837 -0.0184  1.2797
16087SOL    HW260240   2.585   3.476   2.484  0.0463 -0.2494  0.2488
16088SOL     OW60241  10.246   7.389   2.223 -0.1378 -0.1559 -0.0763
16088SOL    HW160242  10.188   7.422   2.291  0.7268  0.2321  0.4850
16088SOL    HW260243  10.330   7.376   2.267  1.5383  3.5082 -1.7472
16089SOL     OW60244   9.240   6.199   5.358  0.2546 -0.2974  0.0766
16089SOL    HW160245   9.164   6.141   5.369 -1.4792  1.4357 -1.7953
16089SOL    HW260246   9.217   6.278   5.406  1.2364 -0.0402  0.1316
16090SOL     OW60247   7.946  10.090   4.114  0.1653 -0.3263 -0.1843
16090SOL    HW160248   7.942  10.182   4.089  1.6104  0.3125  1.6877
16090SOL    HW260249   7.856  10.058   4.105 -0.1910  1.0026 -1.7118
16091SOL     OW60250   4.174   7.895   1.179 -0.0405  0.1010 -0.0098
16091SOL    HW160251   4.230   7.839   1.232  0.6059 -1.2101 -1.9787
16091SOL    HW260252   4.204   7.984   1.198  1.1963 -0.4314  0.6305
16092SOL     OW60253   9.002   2.339   9.824 -0.5304  0.1289  0.3040
16092SOL    HW160254   9.097   2.349   9.816 -0.4386 -1.3683 -0.9150
16092SOL    HW260255   8.980   2.387   9.904  1.2115  0.7002  0.4972
16093SOL     OW60256   3.483   8.019   7.812  0.1456  0.0885 -0.0417
16093SOL    HW160257   3.429   7.940   7.815 -1.0794  0.8881 -0.2609
16093SOL    HW260258   3.564   7.995   7.857 -0.4098 -1.1366  0.3374
16094SOL     OW60259   2.579   8.982   1.395  0.0600  0.0698 -0.1606
16094SOL    HW160260   2.495   8.980   1.349  0.4186  1.7542 -0.9928
16094SOL    HW260261   2.561   8.942   1.480 -0.8727 -2.1959 -1.3312
16095SOL     OW60262   3.056   0.712   1.050  0.4062 -0.4523 -0.5127
16095SOL    HW160263   2.971   0.737   1.086  0.8323 -1.2033  1.0999
16095SOL    HW260264   3.103   0.795   1.039  0.1760 -0.1869  0.4501
16096SOL     OW60265   1.851   0.932   9.468 -0.4297 -0.7064  0.1993
16096SOL    HW160266   1.917   0.869   9.437  1.3334  0.4798  1.4115
16096SOL    HW260267   1.818   0.894   9.549 -0.3122 -0.6664  0.2643
16097SOL     OW60268   0.957   0.586   6.785  0.0577 -0.3008  0.4347
16097SOL    HW160269   0.967   0.504   6.736  1.5641  0.3540 -0.4158
16097SOL    HW260270   1.022   0.581   6.854  0.2839  0.2434  0.2694
16098SOL     OW60271   8.837   2.140  10.082  0.0231 -0.0269  0.4340
16098SOL    HW160272   8.895   2.064  10.070 -1.0106 -0.7916  0.1950
16098SOL    HW260273   8.873   2.184  10.159  0.3761 -1.0141  0.8601
16099SOL     OW60274   7.265   0.955   6.308 -0.6533  0.2164  0.2233
16099SOL    HW160275   7.208   0.881   6.330 -0.7751 -0.1524 -1.2456
16099SOL    HW260276   7.269   0.955   6.212  2.3778 -0.1788  0.2646
16100SOL     OW60277   8.118   6.331   3.889  0.2023  0.3073 -0.5061
16100SOL    HW160278   8.172   6.407   3.870  0.1627  0.3867 -0.3005
16100SOL    HW260279   8.055   6.362   3.954 -0.4886  0.3891 -1.2000
16101SOL     OW60280   5.858   3.466   8.387  0.4634 -0.0289 -0.4492
16101SOL    HW160281   5.951   3.452   8.403  0.9614  0.9506 -2.1663
16101SOL    HW260282   5.814   3.398   8.437  1.9482  0.8274  2.2145
16102SOL     OW60283   3.507   8.331   7.550  0.4626  0.0456  0.2116
16102SOL    HW160284   3.577   8.396   7.560  1.4039 -1.0314  0.8162
16102SOL    HW260285   3.553   8.250   7.526 -0.5558 -0.7302  0.8206
16103SOL     OW60286   8.437   4.232   7.647  0.2915 -0.6149 -0.1014
16103SOL    HW160287   8.533   4.243   7.649  0.3038 -0.5442 -0.9463
16103SOL    HW260288   8.423   4.147   7.607  0.0312 -1.4376  1.6495
16104SOL     OW60289   7.039   0.938   4.758  0.2697 -0.2685  0.4895
16104SOL    HW160290   7.027   0.884   4.680 -1.9366 -0.1997  0.7051
16104SOL    HW260291   7.079   0.880   4.822 -1.1546 -1.4036  0.4002
16105SOL     OW60292   9.276   7.745   3.051  0.2972  0.0654 -0.2954
16105SOL    HW160293   9.280   7.652   3.026 -0.3031 -0.0048 -0.1415
16105SOL    HW260294   9.268   7.792   2.968 -0.5564 -0.0966 -0.3115
16106SOL     OW60295   2.923   3.442   4.270  0.5788  0.7610  0.3854
16106SOL    HW160296   2.828   3.436   4.266  0.3978  2.3765  1.7055
16106SOL    HW260297   2.953   3.366   4.219 -1.3782  1.0564 -1.3536
16107SOL     OW60298   0.947   6.410   2.456 -0.9612 -0.8484  0.1198
16107SOL    HW160299   1.015   6.441   2.397  0.9690  0.2837  2.7274
16107SOL    HW260300   0.880   6.372   2.399 -0.1498  1.7911 -2.8502
16108SOL     OW60301   5.632   7.852   6.929  0.4238  0.0802 -0.5044
16108SOL    HW160302   5.699   7.884   6.989 -0.0102  0.5432 -0.2577
16108SOL    HW260303   5.658   7.762   6.910  1.6187  0.5384 -1.1494
16109SOL     OW60304   0.902   5.434   8.399  0.3596 -0.1116  0.3038
16109SOL    HW160305   0.858   5.377   8.336  1.4516 -0.5393 -0.0832
16109SOL    HW260306   0.985   5.390   8.418 -0.0036 -0.0832  2.1745
16110SOL     OW60307   5.362   5.469   1.793 -0.2779  0.1952 -0.1053
16110SOL    HW160308   5.458   5.475   1.795 -0.1671 -1.0252  1.9557
16110SOL    HW260309   5.332   5.551   1.831  0.1084 -0.5291  1.8781
16111SOL     OW60310   1.645  10.367   7.788 -0.1701 -0.5464 -0.7953
16111SOL    HW160311   1.674  10.441   7.735  0.5055 -0.5875 -0.4942
16111SOL    HW260312   1.553  10.355   7.765 -0.2618  0.3256 -0.9169
16112SOL     OW60313   9.944   5.015   3.462  0.1617 -0.3505  0.9139
16112SOL    HW160314   9.971   4.991   3.550  0.3483 -0.0186  0.9471
16112SOL    HW260315   9.856   5.052   3.473 -0.1843 -1.1375  0.8450
16113SOL     OW60316   1.677   5.487   6.039 -0.8541  0.1921  0.0898
16113SOL    HW160317   1.582   5.478   6.042 -0.7010 -1.6464  0.7324
16113SOL    HW260318   1.701   5.517   6.126 -0.9137  1.7606 -0.4133
16114SOL     OW60319  10.352   0.664   6.179 -0.0442 -0.5105  0.0660
16114SOL    HW160320  10.415   0.592   6.173  0.7336  0.2466 -2.0192
16114SOL    HW260321  10.398   0.732   6.227  0.1492 -0.5170 -0.1099
16115SOL     OW60322  10.339   1.848   1.555 -0.2977 -0.2893  0.1895
16115SOL    HW160323  10.395   1.838   1.632 -1.3922 -2.1965  0.7795
16115SOL    HW260324  10.322   1.759   1.525 -0.0926  0.3872 -2.1598
16116SOL     OW60325   7.502   1.081   3.262 -0.0628  0.2552 -0.5161
16116SOL    HW160326   7.558   1.011   3.228  0.1625  0.5565 -0.7735
16116SOL    HW260327   7.560   1.133   3.317  0.2118  1.2505 -1.7154
16117SOL     OW60328  10.088   4.625   4.422 -0.0959 -0.2229  0.2195
16117SOL    HW160329  10.127   4.582   4.345  0.7338  1.0190 -0.0864
16117SOL    HW260330  10.038   4.698   4.385  0.2082  0.3130  0.8610
16118SOL     OW60331   3.297   6.125   5.067 -0.1912  0.1268 -0.3344
16118SOL    HW160332   3.352   6.080   5.002 -2.1943  1.4061 -3.1536
16118SOL    HW260333   3.342   6.208   5.082  0.5126 -0.3557  0.3114
16119SOL     OW60334   1.310   9.213   0.891  0.1412 -0.2599  0.7844
16119SOL    HW160335   1.257   9.293   0.887  0.1157 -0.2722  0.8812
16119SOL    HW260336   1.260   9.154   0.947 -0.2740 -0.6713  0.0025
16120SOL     OW60337   6.720   9.058   9.417 -0.3746 -0.4568 -0.1831
16120SOL    HW160338   6.780   9.003   9.468 -0.4084 -1.3782 -1.0921
16120SOL    HW260339   6.699   9.131   9.474  0.7882 -0.6722  0.5433
16121SOL     OW60340   1.105   1.433   8.013 -0.4408 -0.2175  0.1303
16121SOL    HW160341   1.065   1.499   7.957 -0.2477  0.0889  0.3499
16121SOL    HW260342   1.147   1.372   7.951  1.4749  1.1827 -0.0657
16122SOL     OW60343   8.993   1.264   4.077  0.2880  0.1573  0.4697
16122SOL    HW160344   9.032   1.286   3.993 -0.5185  1.1242  0.3224
16122SOL    HW260345   9.065   1.270   4.140  1.0022 -1.0854 -0.2130
16123SOL     OW60346   7.009   5.419   0.425  0.4072  0.1270 -0.4901
16123SOL    HW160347   7.002   5.323   0.421  1.4278  0.0745 -1.8016
16123SOL    HW260348   6.952   5.444   0.498 -1.7646 -1.2679 -1.5810
16124SOL     OW60349   8.719   0.116   8.298  0.1688 -0.1039 -0.2004
16124SOL    HW160350   8.706   0.166   8.218  1.6413  1.2858  0.3602
16124SOL    HW260351   8.735   0.026   8.268 -0.9499  0.0480 -1.3266
16125SOL     OW60352   3.367   8.176   6.888  0.8233  0.0675  0.0193
16125SOL    HW160353   3.397   8.138   6.805  0.9625 -2.6719  1.2216
16125SOL    HW260354   3.337   8.101   6.939 -0.7795  1.8540  1.8699
16126SOL     OW60355   3.691   8.667   0.008 -0.3173 -0.7034  0.4550
16126SOL    HW160356   3.687   8.720  -0.071  0.1146 -1.4054 -0.0468
16126SOL    HW260357   3.736   8.587  -0.019 -0.2945 -1.0099  1.3764
16127SOL     OW60358   1.707   0.743   7.768  0.3134 -0.7329  0.5041
16127SOL    HW160359   1.703   0.652   7.740 -0.5411 -1.0331  1.5073
16127SOL    HW260360   1.801   0.762   7.777  0.5356 -1.1206 -0.8817
16128SOL     OW60361   1.070   8.842   5.974  0.0558 -0.2006  0.4830
16128SOL    HW160362   1.158   8.878   5.987  0.2710 -0.7046  0.4773
16128SOL    HW260363   1.071   8.760   6.024 -0.6265  0.1082  1.0081
16129SOL     OW60364   1.879   2.392   4.408 -0.4901 -0.6690  0.1311
16129SOL    HW160365   1.955   2.363   4.358  0.5307 -0.6548  1.6003
16129SOL    HW260366   1.915   2.422   4.492 -2.2047 -1.6950  1.3150
16130SOL     OW60367   8.962   3.753   9.761 -0.1102 -0.3324  0.9112
16130SOL    HW160368   8.917   3.696   9.824 -1.1711 -0.3919  0.1225
16130SOL    HW260369   9.010   3.693   9.704  0.0011 -0.3379  1.0087
16131SOL     OW60370   3.046   9.777   2.650  0.9487 -0.0771  0.3842
16131SOL    HW160371   3.037   9.697   2.599 -1.5010 -0.9440  2.0150
16131SOL    HW260372   3.111   9.756   2.717  3.2802  0.6848 -1.4896
16132SOL     OW60373   0.645   6.931   7.288  0.4011 -0.1173  0.2363
16132SOL    HW160374   0.702   6.868   7.333  0.0695 -0.9917 -0.5338
16132SOL    HW260375   0.566   6.935   7.341  0.8113  0.4121  0.8191
16133SOL     OW60376   9.225   9.192   2.478 -0.4890 -0.1411  0.8554
16133SOL    HW160377   9.266   9.148   2.403  0.9767  0.8486  1.0498
16133SOL    HW260378   9.131   9.185   2.460 -0.1946  1.2560 -1.7948
16134SOL     OW60379   1.135   9.429   4.039  0.6226  0.6749 -0.6421
16134SOL    HW160380   1.229   9.435   4.055  0.3803  0.7707  0.8644
16134SOL    HW260381   1.124   9.347   3.992  1.3894  0.3022 -0.1871
16135SOL     OW60382   4.295   3.405  10.299  0.5480 -0.9311 -0.2350
16135SOL    HW160383   4.356   3.349  10.347  0.5679  0.2656  1.2274
16135SOL    HW260384   4.351   3.466  10.250  0.6658  1.1146  2.2341
16136SOL     OW60385   5.123   9.249   6.169 -0.3869 -0.1969 -0.0720
16136SOL    HW160386   5.170   9.292   6.098 -1.4208  0.4345 -0.4041
16136SOL    HW260387   5.189   9.233   6.236  0.2620  0.8533 -0.4390
16137SOL     OW60388   8.156   4.315   2.284 -0.1335  0.3725  0.2271
16137SOL    HW160389   8.230   4.350   2.334 -1.2928  1.0736  1.5297
16137SOL    HW260390   8.137   4.384   2.220  1.5325 -0.6462 -1.4859
16138SOL     OW60391   9.548   2.158   1.768  0.4998  0.1416  0.1776
16138SOL    HW160392   9.588   2.242   1.744  0.1014  0.0516 -0.8216
16138SOL    HW260393   9.458   2.180   1.790  0.1217 -0.1434 -1.0230
16139SOL     OW60394   8.217   2.220   7.116  0.6187  0.2132  0.0442
16139SOL    HW160395   8.157   2.204   7.043 -0.0486  3.0307 -0.1521
16139SOL    HW260396   8.298   2.249   7.075  0.9139 -0.0821  0.4033
16140SOL     OW60397   1.506   4.599   8.059  0.0582 -0.0463  0.0667
16140SOL    HW160398   1.462   4.536   8.001 -1.0794  0.1005  0.7459
16140SOL    HW260399   1.468   4.583   8.145 -0.4227  1.7192  0.2154
16141SOL     OW60400   7.266   0.607   7.996  0.4680  0.2333  0.4980
16141SOL    HW160401   7.352   0.564   8.000  0.8540  1.0481  1.5819
16141SOL    HW260402   7.238   0.612   8.088 -2.0600 -2.5119  0.0579
16142SOL     OW60403  10.202   5.400   2.450  0.2985 -0.2623 -0.3032
16142SOL    HW160404  10.255   5.479   2.442 -0.2715 -0.0451 -2.8337
16142SOL    HW260405  10.193   5.386   2.544  0.2545  2.7981  0.2346
16143SOL     OW60406   5.455   9.751   5.269  0.3576 -0.4309 -0.2236
16143SOL    HW160407   5.394   9.733   5.197  0.5831 -1.3318 -0.2068
16143SOL    HW260408   5.531   9.696   5.250  1.1089  0.5467 -0.1536
16144SOL     OW60409   4.687   6.773   0.933 -0.6502 -0.3441 -0.9894
16144SOL    HW160410   4.666   6.833   1.004 -0.2070 -2.1221  0.7269
16144SOL    HW260411   4.695   6.829   0.855 -2.0924  1.5331  0.1486
16145SOL     OW60412   5.864   4.762   7.000 -0.2437 -0.0183  0.5429
16145SOL    HW160413   5.877   4.739   6.909 -0.7129 -0.6883  0.6359
16145SOL    HW260414   5.789   4.822   6.999 -2.5099 -2.6493  0.7600
16146SOL     OW60415   0.716   3.250   7.306 -0.1578 -0.5238 -0.8517
16146SOL    HW160416   0.623   3.275   7.307 -0.5443 -1.5758 -3.4657
16146SOL    HW260417   0.759   3.319   7.256  0.4516 -0.1916  0.1048
16147SOL     OW60418   7.264   3.001   7.110  0.2444  0.8273 -0.0923
16147SOL    HW160419   7.252   3.037   7.023 -0.9383  0.4394 -0.1072
16147SOL    HW260420   7.184   2.953   7.128  1.3033 -0.8580  0.3827
16148SOL     OW60421   0.658   7.704   5.114 -0.3425  0.3151  0.0497
16148SOL    HW160422   0.608   7.651   5.052  0.6340 -2.1819  1.2467
16148SOL    HW260423   0.689   7.779   5.062 -0.1606 -1.2797 -2.3060
16149SOL     OW60424   9.411   7.574   8.762  0.2514  0.4271 -0.2247
16149SOL    HW160425   9.486   7.620   8.800 -0.0829 -0.3755  1.5257
16149SOL    HW260426   9.448   7.523   8.690  1.1538  1.0170 -0.1987
16150SOL     OW60427   9.711   5.369   1.613 -0.0555  0.0930 -0.1852
16150SOL    HW160428   9.636   5.423   1.638  1.2143  2.8986 -1.8985
16150SOL    HW260429   9.680   5.321   1.536 -0.7612 -0.5791  0.4963
16151SOL     OW60430   2.640   6.839   8.805  0.6235 -0.1532  0.3766
16151SOL    HW160431   2.695   6.857   8.881  2.8150 -1.7508 -0.7304
16151SOL    HW260432   2.558   6.804   8.842  0.4799  1.7704  2.0415
16152SOL     OW60433   7.211   9.675   1.333  0.0216 -0.1013  0.2235
16152SOL    HW160434   7.121   9.646   1.348 -0.2324  0.5468  0.0018
16152SOL    HW260435   7.250   9.681   1.421 -0.3601  0.2516  0.3721
16153SOL     OW60436   1.426   9.100   0.288 -0.2519  0.0598 -0.4587
16153SOL    HW160437   1.355   9.049   0.249  0.3242 -0.1198 -1.2938
16153SOL    HW260438   1.475   9.135   0.213 -0.6506  1.8883  0.0845
16154SOL     OW60439   0.685   5.059   7.247  0.4429  0.1094  0.6604
16154SOL    HW160440   0.711   4.994   7.312  0.4694  0.3394  0.8834
16154SOL    HW260441   0.668   5.009   7.167  0.6778 -0.1438  0.7688
16155SOL     OW60442   8.537   0.311   2.987  0.6897  0.0937 -0.1549
16155SOL    HW160443   8.599   0.241   3.005  0.2888 -0.3764 -0.5863
16155SOL    HW260444   8.511   0.299   2.896  1.7272  1.6971 -0.7167
16156SOL     OW60445   2.361   3.866  10.307 -0.1225  0.2508  0.3178
16156SOL    HW160446   2.278   3.913  10.312  0.3439  1.3018 -1.2047
16156SOL    HW260447   2.428   3.933  10.321  0.5363  0.0035 -1.3666
16157SOL     OW60448   4.876   3.947   7.725  0.3285 -0.5917  0.1926
16157SOL    HW160449   4.851   4.018   7.666 -0.8566 -0.9793  0.2030
16157SOL    HW260450   4.871   3.986   7.813 -0.4002 -0.6849  0.2049
16158SOL     OW60451   2.188   1.355   1.949 -0.0471  0.0580 -0.0142
16158SOL    HW160452   2.213   1.399   2.030  0.2621  2.1099 -1.1828
16158SOL    HW260453   2.245   1.278   1.946  0.5188  0.3902  1.2791
16159SOL     OW60454   7.347   9.685   4.128  0.0397 -0.4164 -0.3721
16159SOL    HW160455   7.257   9.714   4.119 -0.7708 -2.0306  1.6037
16159SOL    HW260456   7.398   9.765   4.139 -1.2394  0.4881 -0.8512
16160SOL     OW60457   0.203   2.463   0.394  0.4342 -0.2868 -0.2307
16160SOL    HW160458   0.180   2.378   0.431  1.3337 -0.3609  0.1785
16160SOL    HW260459   0.145   2.472   0.318  0.8275 -1.6008 -0.7195
16161SOL     OW60460   8.125   3.720   4.855 -0.0410 -0.4908 -0.1111
16161SOL    HW160461   8.210   3.737   4.814 -0.5198 -0.9604 -1.3474
16161SOL    HW260462   8.114   3.791   4.918  1.2308 -0.3899  0.0207
16162SOL     OW60463   0.469   4.605   7.368 -0.3403  0.1570  0.1874
16162SOL    HW160464   0.388   4.657   7.369 -0.2095  0.3780  1.5327
16162SOL    HW260465   0.484   4.586   7.276 -2.9655 -1.4977 -0.0122
16163SOL     OW60466   3.786   7.260   0.430  0.1209 -0.2210  0.4799
16163SOL    HW160467   3.806   7.347   0.395  1.1328 -0.3410  0.7296
16163SOL    HW260468   3.714   7.274   0.491  0.6827  0.5504  0.9817
16164SOL     OW60469  10.280   9.063   3.033  0.1813  0.2355  0.1718
16164SOL    HW160470  10.263   9.137   2.974  1.6201 -0.1325 -0.7749
16164SOL    HW260471  10.201   9.009   3.027 -0.1955  0.8379 -0.4634
16165SOL     OW60472   4.186   3.369   3.962  0.0809  0.0183 -0.1102
16165SOL    HW160473   4.260   3.429   3.961 -0.5967  0.8749 -0.3902
16165SOL    HW260474   4.173   3.346   3.870  0.0325 -0.1734 -0.0560
16166SOL     OW60475   9.286   4.177   7.713  0.5599  0.8329 -0.2506
16166SOL    HW160476   9.254   4.180   7.623 -0.5585  1.4620  0.1514
16166SOL    HW260477   9.380   4.196   7.706  0.4302  1.1263 -1.2573
16167SOL     OW60478   9.787   8.283   9.127  0.7009  0.0988 -0.4479
16167SOL    HW160479   9.768   8.192   9.148  1.8459  0.1354  0.9038
16167SOL    HW260480   9.722   8.334   9.176 -0.3072  0.0336 -1.6531
16168SOL     OW60481   0.235   6.438   0.854 -0.4688 -0.3192 -0.6300
16168SOL    HW160482   0.177   6.376   0.900  1.0491 -1.7794 -0.5949
16168SOL    HW260483   0.296   6.383   0.806  0.7665  1.1712 -0.8492
16169SOL     OW60484   9.666  10.134   8.049  0.0786 -0.2220  0.1319
16169SOL    HW160485   9.686  10.203   7.985 -1.8428 -0.9547 -1.3635
16169SOL    HW260486   9.662  10.054   7.997  1.0928 -1.3124  1.6459
16170SOL     OW60487   9.635   7.504   7.128  0.3113 -0.1922 -0.1468
16170SOL    HW160488   9.651   7.427   7.183  4.4648 -1.2100 -2.3550
16170SOL    HW260489   9.700   7.568   7.158  1.5129 -0.1535 -2.6294
16171SOL     OW60490  10.091   1.027   4.264  0.6528 -0.0168 -0.0258
16171SOL    HW160491  10.184   1.007   4.263  0.6774  0.1040 -0.8188
16171SOL    HW260492  10.063   1.015   4.173 -0.4574 -1.6643  0.4885
16172SOL     OW60493   8.814   1.190   3.594  0.2499  0.1436  0.3583
16172SOL    HW160494   8.882   1.226   3.538  0.1301  0.4673  0.4158
16172SOL    HW260495   8.820   1.096   3.583  0.6286  0.1781  0.2719
16173SOL     OW60496   8.841   1.310   5.479  0.1440 -0.3994 -0.1848
16173SOL    HW160497   8.878   1.278   5.397 -2.0409 -1.6629 -0.7497
16173SOL    HW260498   8.847   1.405   5.473 -0.7339 -0.4319 -2.2149
16174SOL     OW60499   6.017   9.779   7.533  0.0513  0.3485 -0.1202
16174SOL    HW160500   6.052   9.809   7.617 -0.7958 -0.9037  0.7096
16174SOL    HW260501   6.023   9.856   7.476  2.2747  0.7440  0.5405
16175SOL     OW60502   2.478   6.218   8.018  0.1354  0.2259  0.2539
16175SOL    HW160503   2.500   6.266   7.939  0.1910 -0.6802 -0.3029
16175SOL    HW260504   2.424   6.278   8.069  1.5562  1.4550  0.3448
16176SOL     OW60505   7.559   9.476   0.580  0.3088 -0.1682  0.4013
16176SOL    HW160506   7.472   9.446   0.557  0.0896  0.5491  0.2790
16176SOL    HW260507   7.545   9.560   0.624  0.8158 -0.7869  1.8280
16177SOL     OW60508   3.413   8.421   9.060 -0.3690  0.1250 -0.3479
16177SOL    HW160509   3.482   8.356   9.047 -1.2494 -0.4723 -2.5474
16177SOL    HW260510   3.381   8.405   9.148  0.6708 -1.2241 -0.1928
16178SOL     OW60511   9.270   8.895   3.161 -0.2054  0.3998 -0.0599
16178SOL    HW160512   9.343   8.841   3.129  0.7756  1.7353 -0.1609
16178SOL    HW260513   9.273   8.884   3.256 -1.3247 -1.3201 -0.1851
16179SOL     OW60514   9.299   6.072   0.873 -0.0507 -0.0616  0.2658
16179SOL    HW160515   9.338   6.159   0.887 -1.6350  0.2806  3.3361
16179SOL    HW260516   9.205   6.088   0.867 -0.3110 -1.5146  0.1415
16180SOL     OW60517   2.773   0.668   6.193  0.0149 -0.3738  0.5944
16180SOL    HW160518   2.852   0.653   6.140 -1.2552  0.0531 -1.5456
16180SOL    HW260519   2.702   0.630   6.141 -1.1678 -1.2814  2.7380
16181SOL     OW60520   2.871   0.836   3.840 -0.3514  0.2579  0.1628
16181SOL    HW160521   2.958   0.808   3.813 -0.5221 -0.7124  0.5858
16181SOL    HW260522   2.822   0.843   3.758 -0.0443  0.2150 -0.0270
16182SOL     OW60523   9.630   4.581   9.762  0.0121 -0.0133  0.0179
16182SOL    HW160524   9.570   4.615   9.696  0.6327  1.6049  0.2573
16182SOL    HW260525   9.594   4.495   9.784 -0.4102 -0.4283 -2.1203
16183SOL     OW60526   8.349   7.865   4.179 -0.1109 -0.3577  0.1986
16183SOL    HW160527   8.420   7.820   4.226 -0.2558 -0.6984  0.0950
16183SOL    HW260528   8.392   7.940   4.138  0.6459 -1.6586 -1.5489
16184SOL     OW60529   5.461   0.763   5.877  1.0637  0.3401  0.2072
16184SOL    HW160530   5.367   0.776   5.893  0.8160 -1.3546  0.3173
16184SOL    HW260531   5.504   0.800   5.954  0.5275  1.5619 -0.0650
16185SOL     OW60532  10.371   6.080   5.848  0.2493 -0.2893  0.0708
16185SOL    HW160533  10.370   6.107   5.940 -0.8936  0.6256 -0.1795
16185SOL    HW260534  10.330   5.993   5.848  0.9323 -0.6169  0.5082
16186SOL     OW60535  10.031   8.982   2.488 -0.3184 -0.1716  0.5221
16186SOL    HW160536  10.108   9.038   2.479 -0.0081 -0.6425  0.2460
16186SOL    HW260537  10.027   8.962   2.582  0.2774 -0.6809  0.4451
16187SOL     OW60538   9.944   7.421   5.532  0.0648 -0.2257  0.0396
16187SOL    HW160539   9.855   7.456   5.542  0.6312  0.9526  1.2611
16187SOL    HW260540   9.956   7.415   5.437 -0.9852  0.4809 -0.1628
16188SOL     OW60541   7.445   4.538   3.522  0.1060  0.5802  0.6389
16188SOL    HW160542   7.482   4.561   3.437 -0.9811  1.1063  0.2872
16188SOL    HW260543   7.379   4.605   3.539 -1.1970 -0.7014  0.8897
16189SOL     OW60544   6.712   8.142   7.825  0.1181  0.2686  0.2797
16189SOL    HW160545   6.747   8.202   7.891 -0.4636  0.8382  0.0925
16189SOL    HW260546   6.673   8.200   7.760 -0.3784 -0.3156  0.0504
16190SOL     OW60547   4.575   4.910   1.191  0.0231  0.1063  0.0932
16190SOL    HW160548   4.487   4.891   1.221  0.5470  0.1137  1.7608
16190SOL    HW260549   4.628   4.911   1.271  1.3257  1.2225 -0.7248
16191SOL     OW60550   6.033   6.787   1.580  0.0678 -0.5881  0.1090
16191SOL    HW160551   6.116   6.825   1.551  0.0465 -0.5703  0.0720
16191SOL    HW260552   6.058   6.708   1.628  0.1039 -0.5965  0.0756
16192SOL     OW60553   7.785   6.277   8.549  1.2895 -0.4971 -0.1452
16192SOL    HW160554   7.842   6.200   8.548  1.6975 -0.2280 -1.8422
16192SOL    HW260555   7.836   6.344   8.503  0.1035  0.1243 -0.5841
16193SOL     OW60556   7.477   8.136   7.808 -0.1654  0.1486  0.0664
16193SOL    HW160557   7.494   8.109   7.898 -1.9081 -1.4838 -0.0323
16193SOL    HW260558   7.529   8.077   7.755  0.0803  0.4485 -0.0284
16194SOL     OW60559   4.395   1.238   5.282 -0.0480  0.1658 -0.3670
16194SOL    HW160560   4.332   1.291   5.234  0.3375  0.6549 -0.3434
16194SOL    HW260561   4.354   1.224   5.368 -1.7665 -2.6220 -1.5250
16195SOL     OW60562   4.644   8.297  10.262  0.0668 -0.3550 -0.4394
16195SOL    HW160563   4.710   8.256  10.318 -0.1026  0.4784  0.3876
16195SOL    HW260564   4.634   8.386  10.297 -1.1019 -0.2886 -0.8863
16196SOL     OW60565   9.957   1.104   6.500 -0.1167 -0.0741  0.3336
16196SOL    HW160566   9.982   1.085   6.410  0.8433  0.3905  0.4935
16196SOL    HW260567   9.890   1.173   6.492 -1.2338 -1.1663 -0.0812
16197SOL     OW60568   2.983   9.681   8.033  0.5530 -0.0156  0.4417
16197SOL    HW160569   3.032   9.710   7.956  0.0722  0.4210  0.2922
16197SOL    HW260570   2.996   9.751   8.097  0.0278  0.1705  0.3532
16198SOL     OW60571   0.908   2.529   5.435 -0.4528 -0.8295  0.1522
16198SOL    HW160572   0.823   2.561   5.406  0.2009 -0.5967 -1.6331
16198SOL    HW260573   0.920   2.566   5.523 -0.9919  1.4514 -0.6857
16199SOL     OW60574   5.233   7.488   9.557  0.0178 -0.0828 -0.6738
16199SOL    HW160575   5.158   7.465   9.503  0.3216 -0.7978 -0.7940
16199SOL    HW260576   5.307   7.492   9.496  0.6218 -2.1867 -0.1591
16200SOL     OW60577   8.582   8.401   0.270 -0.5454  0.1352  0.0813
16200SOL    HW160578   8.670   8.381   0.237 -0.5628 -1.5140  0.9210
16200SOL    HW260579   8.528   8.408   0.192 -0.0763 -1.0828 -0.3763
16201SOL     OW60580   3.588  10.270   8.944  0.5610 -0.2116 -0.1142
16201SOL    HW160581   3.538  10.217   8.881  1.0298 -0.0882 -0.6028
16201SOL    HW260582   3.560  10.238   9.030  1.9245 -2.3390 -0.3791
16202SOL     OW60583   6.014   3.604   1.330 -0.5568  0.0942  0.1030
16202SOL    HW160584   5.945   3.668   1.344 -0.2254  0.3676  0.5200
16202SOL    HW260585   6.036   3.612   1.237  0.8738  2.0342  0.5512
16203SOL     OW60586   6.418   2.843   3.056 -0.2310  0.4030 -0.1741
16203SOL    HW160587   6.425   2.937   3.037  0.4517  0.4842  0.4453
16203SOL    HW260588   6.341   2.814   3.006 -0.3712  1.2627 -0.4692
16204SOL     OW60589   9.348   6.242   2.980 -0.0046  0.1309  0.0796
16204SOL    HW160590   9.355   6.149   2.957 -1.4220 -0.0118  0.0930
16204SOL    HW260591   9.420   6.257   3.041  0.8487 -0.7034 -0.6831
16205SOL     OW60592  10.307   0.969   1.967 -0.2319  0.1948  0.0282
16205SOL    HW160593  10.261   0.899   1.921 -1.2459 -0.9262  2.5276
16205SOL    HW260594  10.364   0.923   2.029  1.2160  1.6019 -0.2208
16206SOL     OW60595   1.689   5.010   9.246 -0.2331  0.0972  0.1240
16206SOL    HW160596   1.688   4.960   9.328  0.0782  1.0717  0.7377
16206SOL    HW260597   1.766   4.978   9.199 -0.5098 -0.5896  0.1244
16207SOL     OW60598   8.247   2.075   4.253 -0.1330  0.0223  0.6079
16207SOL    HW160599   8.336   2.082   4.287 -0.0447 -0.9764  0.5944
16207SOL    HW260600   8.205   2.158   4.277  0.7612  0.4517  0.7107
16208SOL     OW60601   0.302   5.553   7.240  0.4712  0.6764 -0.2642
16208SOL    HW160602   0.278   5.473   7.287 -0.6816  1.3021  0.2625
16208SOL    HW260603   0.256   5.547   7.157  0.6507  0.6388 -0.3608
16209SOL     OW60604   1.183   4.227   1.726  0.1690  0.0365 -0.2047
16209SOL    HW160605   1.143   4.270   1.802  0.4980  0.7250 -0.4130
16209SOL    HW260606   1.108   4.204   1.670  0.0564  3.3885 -1.6965
16210SOL     OW60607   6.010   8.949   1.681  0.3336  0.0666 -0.2204
16210SOL    HW160608   6.023   9.032   1.726  3.3102  1.0816 -2.6062
16210SOL    HW260609   6.014   8.883   1.751  3.0885  1.6462  1.2850
16211SOL     OW60610   0.053   9.467   7.509 -0.0652  0.4839 -0.1709
16211SOL    HW160611   0.040   9.521   7.431 -1.3653 -0.7228 -0.8386
16211SOL    HW260612   0.083   9.383   7.475 -1.7308 -0.4277  0.4976
16212SOL     OW60613   3.447   1.393   4.893 -0.5232  0.7182  0.2276
16212SOL    HW160614   3.500   1.376   4.970 -1.0616 -1.7967  0.1155
16212SOL    HW260615   3.374   1.332   4.899 -1.7196  1.8966 -1.2334
16213SOL     OW60616   4.373   9.734   6.535  0.3762 -0.0438  0.5882
16213SOL    HW160617   4.326   9.816   6.520 -0.0381 -0.2669  0.6552
16213SOL    HW260618   4.465   9.757   6.524  0.1689 -0.0054 -1.5052
16214SOL     OW60619   6.514   9.391   6.395  0.9315 -0.4262 -0.1958
16214SOL    HW160620   6.463   9.441   6.459  0.3757 -1.1485 -0.0571
16214SOL    HW260621   6.599   9.434   6.394  0.1751  1.1208 -0.8141
16215SOL     OW60622   0.902   9.414   0.049 -0.7833  0.2182 -0.2332
16215SOL    HW160623   0.881   9.356  -0.024  1.1055  0.7328 -1.2668
16215SOL    HW260624   0.924   9.497   0.007  0.7793  0.3944  0.8670
16216SOL     OW60625   1.734   0.944   1.227 -0.1752 -0.2509 -0.2506
16216SOL    HW160626   1.643   0.960   1.202  0.1789  2.2889 -0.1198
16216SOL    HW260627   1.782   0.945   1.144 -0.3374 -2.9324 -0.4827
16217SOL     OW60628   2.638   7.696   8.750 -0.6309  0.0935 -0.0242
16217SOL    HW160629   2.697   7.655   8.814 -1.3186 -0.4663  0.2640
16217SOL    HW260630   2.642   7.639   8.673 -2.5794 -1.3183  0.8319
16218SOL     OW60631   7.350   1.829   7.170  0.0450  0.0677  0.5435
16218SOL    HW160632   7.293   1.773   7.117  0.5672  0.1886 -0.1498
16218SOL    HW260633   7.290   1.891   7.211 -0.3045  0.3517 -0.3723
16219SOL     OW60634   4.074  10.255   3.923 -0.1548 -0.7170  0.1247
16219SOL    HW160635   4.151  10.230   3.873 -0.4913 -0.8251 -0.3450
16219SOL    HW260636   4.001  10.246   3.862 -0.6386 -1.3184  0.7594
16220SOL     OW60637   6.281   8.860   5.494  0.1315 -0.5170  0.6076
16220SOL    HW160638   6.288   8.920   5.420  1.8686 -2.0643 -0.5795
16220SOL    HW260639   6.196   8.880   5.534 -0.9404  0.2440 -1.8909
16221SOL     OW60640   1.712   4.420   0.795 -0.2168 -0.3693  0.4841
16221SOL    HW160641   1.677   4.369   0.723 -0.8506  1.1375 -0.3026
16221SOL    HW260642   1.636   4.463   0.834  0.2027 -0.6245  1.6445
16222SOL     OW60643   2.590   4.672   6.881  0.0076  0.1227  0.1624
16222SOL    HW160644   2.510   4.664   6.934 -1.1005 -0.4433 -1.5226
16222SOL    HW260645   2.661   4.658   6.944 -1.2601 -1.2422  1.3921
16223SOL     OW60646   4.545   0.848   4.865  0.2052  0.4677 -0.1779
16223SOL    HW160647   4.457   0.818   4.888 -0.5178  0.7978 -2.2773
16223SOL    HW260648   4.575   0.895   4.943 -0.9279 -0.7571  1.0555
16224SOL     OW60649   2.393   4.770   8.573  0.2570  0.3000  0.1565
16224SOL    HW160650   2.440   4.853   8.578 -0.5297  0.7778 -0.1896
16224SOL    HW260651   2.304   4.795   8.546 -0.0942 -0.6132  0.4562
16225SOL     OW60652   1.151   2.461   8.677 -0.4291 -0.3626  0.4661
16225SOL    HW160653   1.132   2.534   8.736 -0.0243 -0.2295  0.4284
16225SOL    HW260654   1.089   2.393   8.704  0.6219 -0.7938  1.9454
16226SOL     OW60655  10.149   5.965   5.521 -0.0862 -0.5677  0.2582
16226SOL    HW160656  10.142   5.943   5.429 -2.0801 -0.4676  0.3426
16226SOL    HW260657  10.132   6.060   5.525  2.7002  0.0281  0.5000
16227SOL     OW60658   8.492   0.099   7.034 -0.2611 -0.7170 -0.2602
16227SOL    HW160659   8.470   0.028   6.974 -0.0525  0.0905 -1.3286
16227SOL    HW260660   8.445   0.175   7.000  0.6101 -0.0233  0.0314
16228SOL     OW60661   1.065   5.332   4.570  0.0279  0.6006 -0.6063
16228SOL    HW160662   1.103   5.400   4.626  1.1112  0.6289 -1.3356
16228SOL    HW260663   1.049   5.376   4.487 -1.3815  0.5046 -0.4049
16229SOL     OW60664   8.305   9.564   8.900  0.2384  0.2665 -0.5984
16229SOL    HW160665   8.300   9.536   8.809 -0.7853 -0.0640 -0.4532
16229SOL    HW260666   8.292   9.658   8.897  0.2963  0.2688 -0.7987
16230SOL     OW60667   4.112   8.639   5.700  0.1544 -0.2400  0.3693
16230SOL    HW160668   4.136   8.569   5.639  0.1065  0.2546 -0.2310
16230SOL    HW260669   4.132   8.720   5.653 -2.9999  0.2645 -0.3657
16231SOL     OW60670   1.495   8.543   5.019  0.2166 -0.7611  0.0946
16231SOL    HW160671   1.492   8.459   5.065 -2.5406 -0.3156  0.8803
16231SOL    HW260672   1.523   8.605   5.087 -0.8934 -0.5709  0.3900
16232SOL     OW60673   2.258   4.852   1.418 -0.0191 -0.1111 -0.0479
16232SOL    HW160674   2.340   4.810   1.394  0.7325  1.1769  0.1778
16232SOL    HW260675   2.260   4.856   1.514 -0.0244  0.5459 -0.0753
16233SOL     OW60676   1.326   7.390   5.820  0.2526 -0.6130  0.8341
16233SOL    HW160677   1.301   7.482   5.805 -2.0387 -1.1441  1.0431
16233SOL    HW260678   1.342   7.385   5.915  0.3660 -0.4328  0.8254
16234SOL     OW60679   0.825   9.832   7.043  0.0249  0.6908  0.2748
16234SOL    HW160680   0.772   9.845   7.121  1.7047 -4.3948  2.7176
16234SOL    HW260681   0.907   9.878   7.062 -0.0004  0.4482  0.9964
16235SOL     OW60682   5.527   4.928   8.271  0.0672 -0.2439  0.1851
16235SOL    HW160683   5.604   4.886   8.231 -0.8318 -2.3685  0.5251
16235SOL    HW260684   5.496   4.864   8.335 -1.4111  0.9933  0.7650
16236SOL     OW60685   2.340   0.678   3.342 -1.1980  0.5592 -0.0132
16236SOL    HW160686   2.287   0.717   3.273  0.4040  1.8161 -0.5944
16236SOL    HW260687   2.341   0.744   3.412 -0.9430  0.2633  0.2668
16237SOL     OW60688   2.599   8.695   7.373 -0.1910  0.0098  0.5950
16237SOL    HW160689   2.584   8.602   7.358 -2.4571  0.0447  2.1871
16237SOL    HW260690   2.595   8.735   7.286 -0.5188 -1.2160  0.0330
16238SOL     OW60691  10.253   3.671   0.166  0.5553 -0.2854 -0.0310
16238SOL    HW160692  10.341   3.640   0.185  0.0413 -0.3987  2.5012
16238SOL    HW260693  10.201   3.591   0.156  0.6359 -0.2150 -1.2077
16239SOL     OW60694   6.709   3.789   9.212 -0.0253 -0.0884 -0.0428
16239SOL    HW160695   6.734   3.805   9.303  0.4125 -0.2414 -0.1352
16239SOL    HW260696   6.790   3.801   9.163 -0.1924 -0.3252 -0.3760
16240SOL     OW60697   3.113   6.981   6.981  0.0133 -0.2972 -0.0069
16240SOL    HW160698   3.041   6.976   6.918 -0.6385  0.3449  0.6532
16240SOL    HW260699   3.189   7.005   6.929 -0.0488 -1.8757 -0.8527
16241SOL     OW60700   2.461   9.484   9.072 -0.3685  0.3751 -0.1068
16241SOL    HW160701   2.433   9.467   9.162  0.8846  1.5574  0.5409
16241SOL    HW260702   2.529   9.419   9.055  0.2973  0.9410  0.2918
16242SOL     OW60703   3.800   6.049   0.825  1.1501 -0.3416  0.3039
16242SOL    HW160704   3.891   6.080   0.819 -0.2381  4.2873 -1.7774
16242SOL    HW260705   3.770   6.082   0.910  1.0061 -0.4550  0.2958
16243SOL     OW60706   0.873   1.332   9.598 -0.3241  0.2552  0.0865
16243SOL    HW160707   0.902   1.418   9.566  0.1342  0.0658 -0.0128
16243SOL    HW260708   0.825   1.352   9.679 -0.2339  0.6051  0.0569
16244SOL     OW60709   9.906   5.455   7.762 -0.0035 -0.0611  0.0627
16244SOL    HW160710   9.915   5.426   7.671  1.6071 -0.2101  0.2319
16244SOL    HW260711   9.929   5.548   7.761  0.1484 -0.0934  0.3287
16245SOL     OW60712   3.525   7.804   0.545  0.4551  0.2338 -0.3859
16245SOL    HW160713   3.478   7.829   0.625  1.0997  0.9241 -0.2149
16245SOL    HW260714   3.472   7.734   0.507 -0.5250  0.7568 -0.0129
16246SOL     OW60715   6.184   0.253   8.345 -0.1175 -0.2902  0.2854
16246SOL    HW160716   6.251   0.205   8.297 -0.6501 -1.2281  0.4653
16246SOL    HW260717   6.131   0.295   8.278  0.9966  0.9782  0.1503
16247SOL     OW60718   6.067   3.571   1.614 -0.2094 -0.2028  0.2684
16247SOL    HW160719   6.034   3.558   1.703 -0.0752  1.1188  0.5300
16247SOL    HW260720   6.052   3.664   1.596  2.0347  0.1400 -0.1425
16248SOL     OW60721   5.720   5.875   2.769 -0.2923 -0.1385  0.2026
16248SOL    HW160722   5.768   5.816   2.828 -1.0243 -1.3794 -0.3914
16248SOL    HW260723   5.645   5.904   2.821  0.0640  0.2595  0.4955
16249SOL     OW60724   4.388   7.322   8.568  0.5853  0.1721  0.2757
16249SOL    HW160725   4.376   7.416   8.559  0.7550  0.0398 -1.5760
16249SOL    HW260726   4.303   7.289   8.598  0.9484  1.0421  2.4763
16250SOL     OW60727   8.110   3.171   6.863 -0.6886  0.7341  0.0935
16250SOL    HW160728   8.184   3.174   6.803 -0.6398 -1.2516 -0.0066
16250SOL    HW260729   8.048   3.235   6.828 -0.4254  0.0282 -1.7648
16251SOL     OW60730   6.785   9.510   1.762 -0.5586 -0.0799  0.1006
16251SOL    HW160731   6.759   9.445   1.828 -1.7281 -0.6647 -0.8856
16251SOL    HW260732   6.703   9.531   1.717  0.6333 -2.4870 -3.6279
16252SOL     OW60733   1.010   1.699   4.565 -0.3178 -0.0739 -0.1837
16252SOL    HW160734   0.944   1.674   4.629 -1.6267  0.7431 -1.1575
16252SOL    HW260735   1.005   1.631   4.497  0.5705 -0.5602  0.2249
16253SOL     OW60736   9.820   1.386   8.513  0.0291  0.1520  0.4881
16253SOL    HW160737   9.728   1.360   8.525 -0.0210 -0.6018 -1.2598
16253SOL    HW260738   9.870   1.315   8.552 -0.1290 -0.3559 -0.2259
16254SOL     OW60739   9.301   3.613   5.536 -0.0467  0.7830 -0.2414
16254SOL    HW160740   9.223   3.557   5.544  0.3539  0.1416 -0.6741
16254SOL    HW260741   9.297   3.647   5.447 -0.5439  1.8463  0.1803
16255SOL     OW60742   3.492   3.624   9.324  0.1480  0.3253 -0.2087
16255SOL    HW160743   3.439   3.674   9.386  0.1105  1.7963 -1.3593
16255SOL    HW260744   3.459   3.651   9.238  1.9356  0.3404 -0.9194
16256SOL     OW60745   6.503   9.311   5.045 -0.1955 -0.3800 -0.2190
16256SOL    HW160746   6.532   9.308   5.136  0.0269  1.5244 -0.1890
16256SOL    HW260747   6.447   9.234   5.035 -1.0526 -0.0806  1.8279
16257SOL     OW60748   3.768   2.857   5.413 -0.2019 -0.3436 -0.3219
16257SOL    HW160749   3.756   2.949   5.391 -1.9533 -0.8074 -1.5598
16257SOL    HW260750   3.724   2.810   5.342  1.0330 -2.1566  0.0513
16258SOL     OW60751   8.563   4.727   4.323 -0.6355  0.2793  0.0412
16258SOL    HW160752   8.478   4.689   4.302 -0.4739 -0.5362  0.7862
16258SOL    HW260753   8.543   4.803   4.378 -0.9931  1.7047 -1.9453
16259SOL     OW60754   5.000   5.399   7.176 -0.3049  1.0082 -0.5197
16259SOL    HW160755   5.065   5.456   7.134 -1.7692  1.0336 -2.9850
16259SOL    HW260756   5.035   5.311   7.163  0.1972  1.1305 -0.0193
16260SOL     OW60757   4.399   0.176   2.069  0.5717  0.0499 -0.1902
16260SOL    HW160758   4.482   0.154   2.110 -0.1960  2.3847  3.1033
16260SOL    HW260759   4.335   0.118   2.111  0.3165 -0.9358 -1.8523
16261SOL     OW60760   6.771   8.864   1.104 -0.2813  0.3937 -0.4568
16261SOL    HW160761   6.715   8.900   1.036 -0.7667  1.4603  0.4887
16261SOL    HW260762   6.721   8.791   1.140 -0.1190 -0.0312 -1.0676
16262SOL     OW60763   3.555   8.968   2.658  0.1707 -0.5243 -0.3337
16262SOL    HW160764   3.573   8.891   2.712 -0.3600 -0.9841 -0.7961
16262SOL    HW260765   3.595   9.040   2.706  1.1363 -1.1578 -0.1549
16263SOL     OW60766   2.446   7.925  10.052  0.1380 -0.0995 -0.1100
16263SOL    HW160767   2.475   8.014  10.072  2.0313 -0.7009 -0.0118
16263SOL    HW260768   2.355   7.922  10.082  0.1457  1.6838  0.1937
16264SOL     OW60769   6.967   6.332   8.064 -0.0860 -0.1339  0.2191
16264SOL    HW160770   7.025   6.392   8.018 -0.6247  0.8502  0.7976
16264SOL    HW260771   6.925   6.280   7.995  0.8207 -0.2544 -0.2473
16265SOL     OW60772   8.778   1.330   0.693  0.3211  0.3902 -0.1180
16265SOL    HW160773   8.762   1.328   0.598  0.1004  1.9452 -0.1277
16265SOL    HW260774   8.848   1.393   0.705  2.7375 -2.1985  0.4975
16266SOL     OW60775   3.709   9.771   1.254  0.2587  0.6746  0.1465
16266SOL    HW160776   3.719   9.679   1.280  0.5681  0.9587  1.0791
16266SOL    HW260777   3.713   9.819   1.337 -3.3949  1.2858  0.1524
16267SOL     OW60778   5.826   8.373   4.825 -0.2648  0.2307  0.9735
16267SOL    HW160779   5.901   8.371   4.766 -0.2560 -0.8317  0.9980
16267SOL    HW260780   5.771   8.300   4.797 -0.0255 -0.6100  2.5535
16268SOL     OW60781   8.420   0.930   1.893 -0.1778  0.1353 -0.1268
16268SOL    HW160782   8.387   0.986   1.964  0.5276  0.1050  0.2291
16268SOL    HW260783   8.510   0.958   1.880 -0.4595  0.5314 -1.4126
16269SOL     OW60784   0.266   6.980   9.511 -0.1795  0.1306  0.0334
16269SOL    HW160785   0.260   7.054   9.451 -0.3540  1.6124  1.8119
16269SOL    HW260786   0.331   7.006   9.576 -0.6835 -1.0255  1.0456
16270SOL     OW60787   3.448   0.889   4.327  0.3094  0.1054 -1.0474
16270SOL    HW160788   3.509   0.829   4.284  0.2811  0.0684 -1.0364
16270SOL    HW260789   3.406   0.936   4.255  0.0408 -0.1730 -1.0745
16271SOL     OW60790   1.821   9.378   3.859 -0.3567 -0.2365 -0.0872
16271SOL    HW160791   1.860   9.457   3.895 -0.3465  0.5218 -1.6766
16271SOL    HW260792   1.761   9.348   3.928  1.4253 -0.2730  1.5391
16272SOL     OW60793   7.522   3.176   0.916  0.3023  0.1142  0.2906
16272SOL    HW160794   7.512   3.082   0.935 -0.4128 -0.1081 -1.0197
16272SOL    HW260795   7.564   3.178   0.830 -1.5048  0.9253 -0.6402
16273SOL     OW60796   7.147   1.212   7.756 -0.1124  0.0604 -0.4752
16273SOL    HW160797   7.156   1.296   7.801 -0.9431 -0.1461  0.1066
16273SOL    HW260798   7.236   1.177   7.752  0.1672  0.7269 -0.2507
16274SOL     OW60799   7.014   4.793   5.993  0.3729 -0.4885  0.1618
16274SOL    HW160800   7.008   4.739   5.915  0.8749  1.8703 -1.6334
16274SOL    HW260801   7.077   4.862   5.970  0.0277  0.6747  2.3943
16275SOL     OW60802   7.675   0.822   1.106 -0.7045  0.0659  0.2657
16275SOL    HW160803   7.640   0.869   1.182 -0.7460  1.2759 -0.4880
16275SOL    HW260804   7.753   0.778   1.140 -2.2626 -1.8381  1.7221
16276SOL     OW60805   1.932   5.143   6.535 -0.2041 -0.1167 -0.0021
16276SOL    HW160806   2.009   5.138   6.478 -0.0383 -1.2649  0.2951
16276SOL    HW260807   1.936   5.063   6.587  0.5156  1.6192  2.7688
16277SOL     OW60808   6.455   9.590   6.066  0.2914 -0.0700  0.2005
16277SOL    HW160809   6.445   9.684   6.079 -0.0492 -0.2406  1.2488
16277SOL    HW260810   6.464   9.580   5.971  1.7398  1.1323  0.1739
16278SOL     OW60811   6.701   5.915   8.138 -0.1785 -0.7136 -0.4031
16278SOL    HW160812   6.653   5.927   8.056 -2.5755 -1.6081  0.7714
16278SOL    HW260813   6.750   5.834   8.126  0.9424  0.0945 -1.5532
16279SOL     OW60814   3.155   9.336   0.370  0.2710 -0.5969  0.2577
16279SOL    HW160815   3.137   9.343   0.464  0.3984 -2.5029  0.4737
16279SOL    HW260816   3.235   9.385   0.357  0.4576 -0.6227  1.2357
16280SOL     OW60817   9.071   8.475   4.088 -0.2656 -0.5339 -0.4003
16280SOL    HW160818   9.027   8.503   4.168 -0.6772 -1.1495 -0.4027
16280SOL    HW260819   9.091   8.556   4.041 -2.8929 -0.2666 -1.2138
16281SOL     OW60820   0.328   7.502   5.107 -0.1821 -0.5531 -0.0977
16281SOL    HW160821   0.333   7.593   5.080  1.6360 -0.7334 -0.5455
16281SOL    HW260822   0.378   7.498   5.189 -0.3067 -1.1319 -0.0430
16282SOL     OW60823   6.347   4.578   8.103 -0.4054  0.9388  0.5150
16282SOL    HW160824   6.324   4.583   8.196  0.3073  0.0013  0.7557
16282SOL    HW260825   6.266   4.553   8.059 -0.5119  0.4071  1.0079
16283SOL     OW60826   4.262   7.769   6.882  0.6878 -0.2944 -0.2305
16283SOL    HW160827   4.209   7.798   6.808  1.0635 -0.0768 -0.4227
16283SOL    HW260828   4.276   7.848   6.934 -0.9958 -0.7593  1.0097
16284SOL     OW60829   0.620   6.784   9.256 -0.3998 -0.0999 -0.1450
16284SOL    HW160830   0.706   6.743   9.266  0.0617  0.5907 -1.1444
16284SOL    HW260831   0.578   6.773   9.341  1.4160  1.2436  0.9977
16285SOL     OW60832   5.916   4.432   3.633  0.6578  0.1663 -0.3752
16285SOL    HW160833   5.914   4.521   3.668 -2.4236  0.1747 -0.2552
16285SOL    HW260834   5.880   4.441   3.544 -0.2732 -0.9981 -0.1372
16286SOL     OW60835   2.422   5.873   7.514 -0.0002 -0.0804 -0.5247
16286SOL    HW160836   2.427   5.967   7.527 -2.7513  0.4345 -2.4823
16286SOL    HW260837   2.473   5.857   7.434  0.2125 -0.2480 -0.3605
16287SOL     OW60838   8.748   6.891   1.568 -0.2114  0.9623 -0.1606
16287SOL    HW160839   8.689   6.848   1.506 -0.0710 -1.8749  1.4978
16287SOL    HW260840   8.693   6.911   1.643  0.7810 -1.7650  1.4261
16288SOL     OW60841   2.478   1.444   3.854 -0.2462 -0.5422  0.3879
16288SOL    HW160842   2.561   1.435   3.808 -0.4461 -0.1778 -0.0514
16288SOL    HW260843   2.419   1.383   3.809 -0.2160 -0.8089  0.7058
16289SOL     OW60844   2.614   6.820   4.448  0.3453  0.0379  0.3692
16289SOL    HW160845   2.574   6.744   4.491  1.0737  0.3600  1.6971
16289SOL    HW260846   2.691   6.785   4.404  1.5806  0.1610  2.2798
16290SOL     OW60847   5.174   4.661   2.477  0.3346  0.5713  0.3089
16290SOL    HW160848   5.228   4.656   2.556 -0.3254 -0.6399  0.7124
16290SOL    HW260849   5.152   4.570   2.458  0.3492  0.8685 -1.1938
16291SOL     OW60850   5.855   8.980   9.499 -0.2583 -0.0669  0.2046
16291SOL    HW160851   5.830   8.894   9.532 -0.1867 -0.8704 -1.6927
16291SOL    HW260852   5.776   9.033   9.509 -0.3085 -0.3456  1.3734
16292SOL     OW60853   0.736  10.315   2.359 -0.6435  0.2680  0.2219
16292SOL    HW160854   0.766  10.402   2.334  0.4781 -0.1149  0.1387
16292SOL    HW260855   0.687  10.328   2.440 -1.1950  1.0708 -0.2366
16293SOL     OW60856   8.670   3.558   6.285  0.9644  0.2653  0.0975
16293SOL    HW160857   8.644   3.603   6.204  0.3564  1.2920  0.8315
16293SOL    HW260858   8.590   3.513   6.314  0.7315  1.1425  0.8943
16294SOL     OW60859   8.105   1.441   5.280  0.2583  0.1627  0.0369
16294SOL    HW160860   8.037   1.376   5.295 -0.1497  0.8092  1.1102
16294SOL    HW260861   8.114   1.445   5.185 -1.9040  0.7573 -0.1904
16295SOL     OW60862   8.982   6.109   5.627  0.5742 -0.5337  0.2457
16295SOL    HW160863   8.993   6.048   5.554  0.5747  1.3040 -1.3647
16295SOL    HW260864   8.906   6.076   5.675 -0.5295 -0.8146 -1.6160
16296SOL     OW60865   8.481   8.492   5.222 -0.2509 -0.4529 -0.1216
16296SOL    HW160866   8.533   8.465   5.146  0.7364  1.3987 -0.1435
16296SOL    HW260867   8.511   8.435   5.293  0.5683 -0.5795 -0.5544
16297SOL     OW60868   4.549   7.746   2.312  0.1593  0.3154 -0.1857
16297SOL    HW160869   4.618   7.737   2.379  1.6010 -1.1214 -1.7555
16297SOL    HW260870   4.481   7.685   2.339 -0.7210  1.9490  1.5368
16298SOL     OW60871   2.148   2.984  10.030 -0.1453  0.6197  0.2742
16298SOL    HW160872   2.093   2.908  10.047  1.4020 -0.2886  1.4516
16298SOL    HW260873   2.127   3.046  10.100 -0.7749  0.9264 -0.1797
16299SOL     OW60874  10.294   5.740   8.701 -0.1287 -0.1739  0.1573
16299SOL    HW160875  10.227   5.798   8.664  0.2847 -0.2622 -0.7658
16299SOL    HW260876  10.250   5.696   8.773 -0.5988  0.9261  0.5696
16300SOL     OW60877   7.563   0.178   0.872 -0.1668 -0.4905 -0.4945
16300SOL    HW160878   7.625   0.244   0.843  2.1248 -2.0877  0.4518
16300SOL    HW260879   7.519   0.148   0.792  1.2810 -0.2585 -1.4062
16301SOL     OW60880   7.652   0.664   6.239  0.3062 -0.2655  0.1155
16301SOL    HW160881   7.733   0.674   6.289  1.2197 -2.1688 -0.8584
16301SOL    HW260882   7.670   0.707   6.156  0.9937 -2.0461 -0.7222
16302SOL     OW60883  10.112   0.699   6.085 -0.3688  0.2411  0.0368
16302SOL    HW160884  10.196   0.674   6.122 -0.9666 -2.3543 -0.1280
16302SOL    HW260885  10.048   0.648   6.136 -1.7814  1.6294 -0.2907
16303SOL     OW60886   2.468   9.566   7.503  0.3576  0.3898 -0.4047
16303SOL    HW160887   2.538   9.501   7.509  1.6737  1.8333  0.6074
16303SOL    HW260888   2.494   9.623   7.431  1.5021  2.2876  1.4098
16304SOL     OW60889   2.280   4.756   6.738  0.2987  0.2078 -0.5319
16304SOL    HW160890   2.307   4.833   6.789 -1.9756  0.6554  0.1421
16304SOL    HW260891   2.230   4.703   6.800 -1.2272 -0.0024 -1.8825
16305SOL     OW60892   7.679   9.446  10.046 -0.5038  0.0946 -0.3002
16305SOL    HW160893   7.727   9.380  10.096 -0.3914  0.1038 -0.3942
16305SOL    HW260894   7.668   9.519  10.107 -0.5697  0.0145 -0.2171
16306SOL     OW60895   7.023   5.669   3.663 -0.4185  0.2661  0.3646
16306SOL    HW160896   6.971   5.646   3.586 -1.0916  2.6836  0.0059
16306SOL    HW260897   7.113   5.673   3.630 -0.3248 -1.3502  0.3693
16307SOL     OW60898   0.790   9.865   8.024 -0.5849  0.1136  0.3403
16307SOL    HW160899   0.877   9.860   8.062 -0.2860 -0.2234 -0.3873
16307SOL    HW260900   0.778   9.958   8.005  0.6221 -0.1156 -1.8445
16308SOL     OW60901   0.749   2.948   1.134  0.5735  0.0840 -0.3918
16308SOL    HW160902   0.830   2.991   1.161 -0.0324  1.0783 -0.1257
16308SOL    HW260903   0.765   2.855   1.150  0.8263  0.4554  1.9130
16309SOL     OW60904   4.457   2.443   9.950  0.3528  0.3539  0.3221
16309SOL    HW160905   4.487   2.361   9.910 -0.0907 -0.0127  0.7292
16309SOL    HW260906   4.417   2.491   9.877  0.0572 -0.0681  0.1979
16310SOL     OW60907   5.306   7.878   6.130  0.0443 -0.6802 -0.0809
16310SOL    HW160908   5.215   7.848   6.129 -0.8857  1.8793 -1.2758
16310SOL    HW260909   5.357   7.801   6.104 -1.4298 -2.8628  2.9420
16311SOL     OW60910   2.885   0.404   5.917  0.6025 -0.0377  0.8264
16311SOL    HW160911   2.801   0.429   5.879  0.2956  2.0808  2.6516
16311SOL    HW260912   2.881   0.309   5.925 -1.0366 -0.1144 -0.3765
16312SOL     OW60913   6.925   0.273   4.027 -0.7438  0.1820 -0.4839
16312SOL    HW160914   6.891   0.349   3.980 -0.0762 -0.1136 -1.4718
16312SOL    HW260915   7.019   0.290   4.034 -0.9005  0.4887  1.2770
16313SOL     OW60916   7.670   5.324   7.762 -0.1836  0.0532 -0.4923
16313SOL    HW160917   7.698   5.373   7.685 -0.0456  1.3144  0.3243
16313SOL    HW260918   7.585   5.362   7.785 -1.2131 -1.6986 -1.1841
16314SOL     OW60919   2.943   1.722   7.013  0.1243 -0.4095 -0.0899
16314SOL    HW160920   3.006   1.664   7.055  2.1031  1.3125 -0.4743
16314SOL    HW260921   2.997   1.791   6.973 -1.9916  0.8965 -0.8890
16315SOL     OW60922   7.856   0.306   8.413  0.4957  0.3496  0.2231
16315SOL    HW160923   7.810   0.368   8.470 -1.2994 -0.8965  0.2485
16315SOL    HW260924   7.937   0.350   8.388 -0.5107  2.5093  0.5761
16316SOL     OW60925   9.275   1.877   9.772  0.1198  0.8056  0.1539
16316SOL    HW160926   9.224   1.812   9.821  0.2687 -0.5576 -1.4392
16316SOL    HW260927   9.273   1.955   9.828 -1.7131  0.0654  1.2299
16317SOL     OW60928   8.055   9.436   5.796 -0.4034 -0.4906  0.0077
16317SOL    HW160929   8.089   9.350   5.821  0.1378 -0.7244 -1.4624
16317SOL    HW260930   7.962   9.422   5.783 -0.1547 -1.1202 -1.2319
16318SOL     OW60931   7.606   1.632   5.825 -0.1068 -0.1634 -0.2552
16318SOL    HW160932   7.690   1.590   5.847  0.3430  1.2012  0.7659
16318SOL    HW260933   7.622   1.673   5.740  0.1293 -0.2263 -0.2426
16319SOL     OW60934   9.427   6.637   4.020 -0.6907  0.1847  0.2753
16319SOL    HW160935   9.464   6.557   4.059 -0.3809  0.5300  0.7006
16319SOL    HW260936   9.415   6.696   4.094  0.2932  1.0014 -0.2006
16320SOL     OW60937   4.484   7.466   5.943 -0.1908  0.2417  0.4931
16320SOL    HW160938   4.574   7.499   5.949 -0.3894  0.6313  1.5363
16320SOL    HW260939   4.430   7.537   5.978 -1.2536  1.2711 -2.8553
16321SOL     OW60940   5.569   0.983   3.603 -0.2674 -0.0497 -0.6034
16321SOL    HW160941   5.550   0.977   3.697 -1.6288  1.1182 -0.7696
16321SOL    HW260942   5.512   0.917   3.563 -0.0346 -0.2224 -0.6499
16322SOL     OW60943   6.414   8.826   6.171 -0.2458 -0.0887 -0.6172
16322SOL    HW160944   6.414   8.816   6.076 -0.2590  0.9918 -0.7446
16322SOL    HW260945   6.407   8.921   6.185  3.3918  0.1638  0.4207
16323SOL     OW60946   3.439   4.771   8.512  0.0488  0.2105  0.2122
16323SOL    HW160947   3.501   4.705   8.483 -0.8969 -0.1581 -1.0216
16323SOL    HW260948   3.473   4.853   8.476 -0.1638  0.0143 -0.4453
16324SOL     OW60949   9.069   2.804   1.064  0.7144  0.1289  0.3859
16324SOL    HW160950   9.145   2.849   1.101  0.6169  0.3741  0.2862
16324SOL    HW260951   9.063   2.723   1.115  0.7220  0.3560  0.7511
16325SOL     OW60952   1.902   5.267   9.679 -0.6262 -0.0435  0.2764
16325SOL    HW160953   1.830   5.207   9.699  0.0762 -0.6687  0.9985
16325SOL    HW260954   1.952   5.222   9.610 -0.7060  0.2112  0.0526
16326SOL     OW60955   9.845   1.036   8.083 -0.4014 -0.3848 -0.2685
16326SOL    HW160956   9.902   1.107   8.055 -0.9938  1.2855  2.3717
16326SOL    HW260957   9.898   0.985   8.144 -0.8025 -0.6208 -0.1095
16327SOL     OW60958   7.802  10.297   6.281 -0.4610 -0.0075 -0.3265
16327SOL    HW160959   7.742  10.307   6.207 -0.7707 -0.4253 -0.1351
16327SOL    HW260960   7.810  10.202   6.293 -0.6105  0.0540  0.3317
16328SOL     OW60961   3.451   7.730   5.563 -0.0755  0.7231 -0.0462
16328SOL    HW160962   3.381   7.791   5.587 -1.6942 -0.8123 -0.6466
16328SOL    HW260963   3.407   7.665   5.508  2.0387  0.2048 -1.1943
16329SOL     OW60964   3.674   3.854   5.142  0.1036  0.1396 -0.5967
16329SOL    HW160965   3.608   3.790   5.166 -0.3938  0.1481 -1.9128
16329SOL    HW260966   3.726   3.812   5.074  0.3209  0.8048 -0.8523
16330SOL     OW60967   5.974   5.189   1.357  0.6021 -0.2051 -0.0334
16330SOL    HW160968   5.880   5.180   1.342  1.0212 -2.6557 -1.5930
16330SOL    HW260969   5.998   5.270   1.311 -1.2304  2.6884  3.5428
16331SOL     OW60970   2.250   8.292   6.693  0.1997 -0.0231  0.2965
16331SOL    HW160971   2.220   8.371   6.738  1.4213  1.5609 -1.5188
16331SOL    HW260972   2.249   8.316   6.601  0.6708 -2.1396 -0.3018
16332SOL     OW60973   2.932   9.136   5.610  0.5205  0.1782  0.7838
16332SOL    HW160974   3.023   9.146   5.582  0.0104  3.1057 -0.1699
16332SOL    HW260975   2.921   9.202   5.678 -0.7978 -0.4214  1.1812
16333SOL     OW60976   1.253   6.108   9.521 -0.7686 -0.1865  0.2742
16333SOL    HW160977   1.293   6.026   9.550  0.8664  1.2794  2.4514
16333SOL    HW260978   1.174   6.117   9.574  0.2090  0.6379  1.6619
16334SOL     OW60979   8.612   8.020   9.086  0.3052  0.2885  0.0705
16334SOL    HW160980   8.685   8.064   9.041  0.7252 -0.5697 -0.0995
16334SOL    HW260981   8.633   8.027   9.179  0.8550 -0.3721  0.0022
16335SOL     OW60982   9.694   5.425   9.814  0.3295  0.5698  0.2092
16335SOL    HW160983   9.709   5.372   9.736  1.0226 -0.7759  1.2270
16335SOL    HW260984   9.782   5.454   9.840  0.0247  1.7003  0.0459
16336SOL     OW60985   4.092   9.981   8.893 -0.3259 -0.2721  0.0093
16336SOL    HW160986   4.077   9.942   8.979  0.9166  0.8710  0.7810
16336SOL    HW260987   4.036  10.058   8.891  0.8241  0.6098  0.4781
16337SOL     OW60988   1.107  10.309   3.017 -0.5598  0.2130 -0.3725
16337SOL    HW160989   1.163  10.384   3.038 -0.4994 -0.1243  0.7210
16337SOL    HW260990   1.167  10.234   3.017 -0.5943  0.1749 -1.6047
16338SOL     OW60991   1.115   6.917   8.690 -0.0167 -0.0086 -0.4327
16338SOL    HW160992   1.176   6.906   8.617  0.4221  1.8183 -0.3827
16338SOL    HW260993   1.031   6.890   8.654 -0.3774  3.3582 -2.6173
16339SOL     OW60994   8.710   9.091   8.469 -0.6907  0.2855  0.6849
16339SOL    HW160995   8.708   9.043   8.386  2.2572  0.0695  0.6402
16339SOL    HW260996   8.732   9.025   8.535 -0.5451  0.8949  1.2575
16340SOL     OW60997   2.243   8.132   3.716 -0.0877 -0.1276  0.1470
16340SOL    HW160998   2.336   8.110   3.711 -0.0066 -0.9284  3.2253
16340SOL    HW260999   2.237   8.218   3.674  2.6069  1.2105  2.1436
16341SOL     OW61000   2.722   9.665  10.206  0.1896 -0.0478 -0.2093
16341SOL    HW161001   2.771   9.733  10.252 -1.1623  1.0566 -0.3246
16341SOL    HW261002   2.632   9.674  10.238 -0.0934 -1.5524 -0.5046
16342SOL     OW61003   3.890   9.403   0.256  0.0046  0.0152  0.0658
16342SOL    HW161004   3.937   9.482   0.285  3.1684 -1.3952 -0.7851
16342SOL    HW261005   3.890   9.409   0.160 -0.4417 -0.6601  0.0169
16343SOL     OW61006   8.603   2.981   2.557  0.1292  0.4877  0.3734
16343SOL    HW161007   8.541   3.047   2.525  0.1332 -0.1092 -0.9185
16343SOL    HW261008   8.674   3.032   2.596  1.1127  1.3999 -2.3514
16344SOL     OW61009   9.783   9.724  10.137 -0.0664 -0.1061  0.4296
16344SOL    HW161010   9.864   9.771  10.118 -0.2219 -0.0564 -0.1399
16344SOL    HW261011   9.761   9.749  10.226  1.2832 -1.2253  1.1154
16345SOL     OW61012   9.124   2.927   5.528  0.0923 -0.2847  0.3223
16345SOL    HW161013   9.121   2.898   5.437  1.8813  1.5379 -0.3941
16345SOL    HW261014   9.217   2.924   5.551 -0.3960 -1.5000  2.4098
16346SOL     OW61015   1.238   0.451   3.534  0.6351  0.2190  0.0476
16346SOL    HW161016   1.236   0.465   3.439  0.2191  0.4978  0.0969
16346SOL    HW261017   1.146   0.452   3.561  0.7040 -0.5965  0.3504
16347SOL     OW61018   5.910   0.936   9.409 -0.2393 -0.0420 -0.2155
16347SOL    HW161019   5.849   1.010   9.411  1.4189  1.3798 -0.2518
16347SOL    HW261020   5.917   0.912   9.317  2.4115  2.6082 -0.8407
16348SOL     OW61021   2.781   3.168   5.596  0.0866  0.2328 -0.4145
16348SOL    HW161022   2.735   3.137   5.518  1.3000 -2.5166 -0.1587
16348SOL    HW261023   2.750   3.257   5.609  0.7809  1.3030 -4.7555
16349SOL     OW61024   0.234   1.713   5.243 -0.4919  1.0634  0.4146
16349SOL    HW161025   0.275   1.673   5.167 -0.7371 -0.4629  1.0508
16349SOL    HW261026   0.307   1.726   5.305 -0.6452  0.1661  0.7927
16350SOL     OW61027   4.605   5.451  10.330  0.0162 -0.7272 -0.0336
16350SOL    HW161028   4.618   5.356  10.339  1.3269 -0.6754 -1.1209
16350SOL    HW261029   4.689   5.489  10.356 -0.7297  0.2078  1.1322
16351SOL     OW61030   0.695   8.315   9.452  0.2655  0.1199 -0.0631
16351SOL    HW161031   0.745   8.397   9.447 -0.2095  0.3265 -2.0596
16351SOL    HW261032   0.622   8.335   9.510  1.0883  0.5747  0.8467
16352SOL     OW61033   3.117  10.138   2.682  0.5818 -0.7495 -0.1453
16352SOL    HW161034   3.169  10.057   2.689  0.8004 -0.9168 -2.7324
16352SOL    HW261035   3.050  10.118   2.617  0.7439  1.2051 -0.9798
16353SOL     OW61036   2.218   5.030   5.394 -0.0873 -0.4136 -0.4745
16353SOL    HW161037   2.232   5.051   5.487  0.6602 -0.1758 -0.6315
16353SOL    HW261038   2.124   5.015   5.387 -0.3712  0.9172  0.0656
16354SOL     OW61039   9.331   9.039   2.275 -0.0147 -0.3843 -0.0694
16354SOL    HW161040   9.351   8.946   2.280  2.0262  0.0523  0.6585
16354SOL    HW261041   9.403   9.077   2.224 -1.4430  0.6553 -1.4311
16355SOL     OW61042   1.924   1.726   2.815  0.3133  0.7094  0.0928
16355SOL    HW161043   1.862   1.790   2.780  2.4691  2.0529 -1.5517
16355SOL    HW261044   2.003   1.777   2.834  0.1151 -0.3207  5.0775
16356SOL     OW61045   9.501   5.142  10.073  0.1887  0.3467 -0.1594
16356SOL    HW161046   9.418   5.136  10.026 -0.3590 -0.6990  0.8955
16356SOL    HW261047   9.495   5.075  10.141  1.7302  0.5453  0.2047
16357SOL     OW61048   1.817   6.428   5.776  0.2874 -0.5557  0.2210
16357SOL    HW161049   1.901   6.472   5.779  0.8417 -1.6180  0.8793
16357SOL    HW261050   1.814   6.376   5.856 -1.5301  0.3930  0.8453
16358SOL     OW61051   1.152   8.015   2.370 -0.0510 -0.6158  0.3658
16358SOL    HW161052   1.139   8.109   2.354 -0.5397 -0.8886 -0.9809
16358SOL    HW261053   1.246   8.002   2.363  0.0864 -0.1285  1.1969
16359SOL     OW61054   3.889   9.808   5.526  0.3647 -0.1682 -0.2578
16359SOL    HW161055   3.924   9.847   5.606  2.9730 -2.2688 -0.2493
16359SOL    HW261056   3.806   9.854   5.511  1.0328  2.0499  2.2014
16360SOL     OW61057   3.675   7.546   8.229 -0.1224  0.0638 -0.1248
16360SOL    HW161058   3.626   7.628   8.226  0.2104  0.2943  0.7662
16360SOL    HW261059   3.618   7.486   8.278  0.1737  0.1235  0.2926
16361SOL     OW61060   8.829   0.693   8.609  0.0189  0.1875  0.0502
16361SOL    HW161061   8.764   0.763   8.611  1.6543  1.8189 -0.9738
16361SOL    HW261062   8.891   0.715   8.678  1.3575  0.6328 -1.2270
16362SOL     OW61063   1.707   4.619   8.380  0.5042 -0.6048  0.0005
16362SOL    HW161064   1.756   4.543   8.348  1.8936  0.9580 -1.8613
16362SOL    HW261065   1.656   4.648   8.304 -0.2130  0.1580  0.7560
16363SOL     OW61066   3.790   0.296   8.757  0.7243  0.3588 -0.1208
16363SOL    HW161067   3.840   0.262   8.682 -0.5235  1.1693 -1.3746
16363SOL    HW261068   3.809   0.390   8.756 -0.0079  0.5082  0.0192
16364SOL     OW61069   3.847   0.852   4.217  0.0896  0.4296  0.6015
16364SOL    HW161070   3.865   0.797   4.293  0.3641  1.0237  0.9743
16364SOL    HW261071   3.760   0.825   4.187  0.7510 -1.1257 -0.0269
16365SOL     OW61072   9.407   7.582   2.803 -0.6205  0.3938 -0.4946
16365SOL    HW161073   9.490   7.615   2.839 -0.2710 -0.6059 -0.3667
16365SOL    HW261074   9.431   7.551   2.715 -0.6195 -0.9312 -0.0370
16366SOL     OW61075   9.079   0.679   9.613 -0.4928 -0.2467  0.5863
16366SOL    HW161076   8.998   0.645   9.652 -1.7338  1.0488 -0.7623
16366SOL    HW261077   9.148   0.640   9.666 -1.8888 -3.0062  0.5515
16367SOL     OW61078   4.448   3.261   6.280  0.2294 -0.2203 -0.6045
16367SOL    HW161079   4.465   3.166   6.281 -2.1062 -0.7876  3.2119
16367SOL    HW261080   4.392   3.274   6.204 -0.9522 -2.3144 -0.1721
16368SOL     OW61081  10.194  10.083   5.298 -0.1985 -0.0031  0.2964
16368SOL    HW161082  10.254  10.072   5.371  1.3523 -0.1531 -0.9548
16368SOL    HW261083  10.112  10.112   5.339  0.0420 -1.8378  2.2397
16369SOL     OW61084   9.050   9.186   6.235  0.3817 -0.0614  0.5732
16369SOL    HW161085   9.019   9.277   6.238  0.5268  0.0439  4.4443
16369SOL    HW261086   8.973   9.134   6.212 -0.3555  0.8586  0.9071
16370SOL     OW61087   4.196   5.511   6.650 -0.0619  0.2029  0.0643
16370SOL    HW161088   4.192   5.538   6.559 -0.2147  0.3038  0.1011
16370SOL    HW261089   4.289   5.512   6.671  0.1242 -1.2892 -0.5312
16371SOL     OW61090   5.966   9.409   1.745 -0.3110  0.1371  0.4881
16371SOL    HW161091   6.005   9.324   1.762  0.9495  0.6104  0.1217
16371SOL    HW261092   5.943   9.443   1.832  0.3270 -0.0552  0.7368
16372SOL     OW61093   7.558   2.964   4.478  0.1196 -0.0495 -0.3190
16372SOL    HW161094   7.617   2.893   4.502  0.8139  1.2006  1.9839
16372SOL    HW261095   7.477   2.944   4.525  0.0822  0.2971 -0.2333
16373SOL     OW61096   2.009   2.442   4.633  0.0237  0.9964  0.1635
16373SOL    HW161097   2.088   2.392   4.655 -0.3932  0.5616  0.6981
16373SOL    HW261098   2.035   2.533   4.645  0.6849  0.9042 -0.4695
16374SOL     OW61099   9.298   2.628   7.805 -0.2320  0.1531  0.3544
16374SOL    HW161100   9.253   2.557   7.849 -1.0272  1.5512  1.9117
16374SOL    HW261101   9.351   2.669   7.874  0.1636  1.0917 -0.4790
16375SOL     OW61102   9.330   1.112   8.337 -0.4247 -0.1475 -0.3478
16375SOL    HW161103   9.345   1.205   8.325 -0.5908  0.1186  1.2226
16375SOL    HW261104   9.358   1.072   8.255  0.7333  1.1688 -0.6410
16376SOL     OW61105   0.528   3.447   0.640  1.0850  0.6693 -0.3930
16376SOL    HW161106   0.524   3.516   0.706 -1.8362 -0.6732  0.9958
16376SOL    HW261107   0.525   3.365   0.690 -1.6309 -0.4153 -2.1125
16377SOL     OW61108   7.579   8.237  10.183 -0.4746 -0.2212  0.2734
16377SOL    HW161109   7.659   8.186  10.172  0.9552  1.7701  0.8363
16377SOL    HW261110   7.556   8.265  10.094  0.4903  0.6392  0.2778
16378SOL     OW61111   2.883   9.755   6.599 -0.9241  0.1878 -0.0664
16378SOL    HW161112   2.870   9.850   6.609 -0.0510  0.2277  0.8729
16378SOL    HW261113   2.844   9.734   6.514 -1.7108  1.2748  0.0093
16379SOL     OW61114   7.496   0.814   9.975 -0.0643  0.0107  0.3572
16379SOL    HW161115   7.533   0.902   9.972 -1.0411  0.4792  1.2484
16379SOL    HW261116   7.470   0.796   9.884 -1.6825  1.4846  0.4649
16380SOL     OW61117   2.980   9.949   1.309 -0.1161 -0.7208 -0.1213
16380SOL    HW161118   3.020   9.980   1.390 -2.4340 -1.1210  1.2818
16380SOL    HW261119   2.922  10.021   1.283  2.4071  0.5081 -2.9436
16381SOL     OW61120   9.029   1.998   4.751  0.4068 -0.6279  0.0985
16381SOL    HW161121   9.014   2.090   4.771  2.5096 -0.3009  0.3521
16381SOL    HW261122   9.016   1.992   4.656  0.0488 -0.1296  0.1099
16382SOL     OW61123   8.349   8.132   3.964 -0.4918 -0.2133  0.1458
16382SOL    HW161124   8.429   8.179   3.943 -1.4166  0.3799 -2.4281
16382SOL    HW261125   8.297   8.194   4.015 -0.8899  0.9019 -1.5469
16383SOL     OW61126   3.215   9.750   6.059  0.2046  0.0989  0.7069
16383SOL    HW161127   3.150   9.768   5.991 -0.3894  0.6643  1.4068
16383SOL    HW261128   3.273   9.825   6.058  0.7717 -0.3412  0.1784
16384SOL     OW61129   0.649   3.539   9.737  0.2614  0.2534 -0.0009
16384SOL    HW161130   0.626   3.447   9.747 -2.1874  1.0202  2.9606
16384SOL    HW261131   0.745   3.541   9.743  0.4242 -2.1187 -1.0165
16385SOL     OW61132   9.479   2.697   6.100 -0.4824 -0.4977 -0.0191
16385SOL    HW161133   9.426   2.757   6.152  1.2916 -0.3678  1.7730
16385SOL    HW261134   9.444   2.611   6.120 -1.7594 -0.2266 -1.0243
16386SOL     OW61135   0.579   5.930   4.877 -0.3946  0.2709 -0.9531
16386SOL    HW161136   0.618   5.914   4.791  0.1235  1.4360 -0.9546
16386SOL    HW261137   0.492   5.889   4.872  0.3441 -1.3108 -1.3633
16387SOL     OW61138   4.488   9.424   8.722 -0.1015 -0.1525  0.0765
16387SOL    HW161139   4.564   9.478   8.699 -0.2259  0.3523  0.8346
16387SOL    HW261140   4.429   9.433   8.647  1.0147 -1.3815 -0.9932
16388SOL     OW61141   3.034   0.608   6.700  0.2515 -0.1858 -0.2447
16388SOL    HW161142   3.107   0.635   6.755  0.7423 -1.7612 -0.0786
16388SOL    HW261143   2.998   0.531   6.744 -1.7374  0.7196 -0.1516
16389SOL     OW61144   2.021   8.915   4.436 -0.3513 -0.9254 -0.1677
16389SOL    HW161145   1.972   8.860   4.497 -0.4918  0.3921  0.9665
16389SOL    HW261146   2.091   8.953   4.489 -0.7859  0.6651 -0.6730
16390SOL     OW61147   2.080   6.513   8.473 -0.2834  1.1682  0.1004
16390SOL    HW161148   2.014   6.532   8.540  0.9281  1.2812  1.3190
16390SOL    HW261149   2.035   6.526   8.390 -2.1176  0.1031  0.8677
16391SOL     OW61150   0.828   1.048   8.953 -0.3947  0.4367 -0.2416
16391SOL    HW161151   0.766   1.004   9.012  1.6835 -1.3491  0.7507
16391SOL    HW261152   0.882   1.101   9.010 -0.4172  1.2717 -0.9847
16392SOL     OW61153   6.780   8.932   5.752  0.0992 -0.6130  0.2303
16392SOL    HW161154   6.711   8.996   5.732  0.2241 -0.6772 -0.4278
16392SOL    HW261155   6.767   8.862   5.688 -0.0999 -1.3087  1.0023
16393SOL     OW61156   0.478   2.893   4.387 -0.1898  0.4671  0.2435
16393SOL    HW161157   0.479   2.835   4.463 -0.4015  0.2604  0.0876
16393SOL    HW261158   0.491   2.835   4.312 -1.9237  0.4057 -0.0483
16394SOL     OW61159   1.703   1.876  10.256  0.2633 -0.4840 -0.6290
16394SOL    HW161160   1.671   1.914  10.174  0.8614  0.6997 -0.3370
16394SOL    HW261161   1.627   1.881  10.315  0.4621  0.7739 -0.4433
16395SOL     OW61162   4.298   7.166   6.786  0.4091  0.2746 -0.1626
16395SOL    HW161163   4.354   7.206   6.720 -0.0352  0.2060 -0.5912
16395SOL    HW261164   4.212   7.205   6.771 -0.1326 -1.1262 -0.8537
16396SOL     OW61165   7.027   1.467   7.449  0.1038 -0.0025 -0.3336
16396SOL    HW161166   7.122   1.454   7.447 -0.0054 -1.0870 -2.6945
16396SOL    HW261167   7.011   1.542   7.392 -0.3911  0.9946  1.0834
16397SOL     OW61168   7.134   6.199   8.720  0.3369  0.1669 -0.2245
16397SOL    HW161169   7.066   6.176   8.783  0.1542 -1.0304 -0.8214
16397SOL    HW261170   7.109   6.153   8.640  1.3620  0.4381 -0.7206
16398SOL     OW61171  10.218   2.694   7.258  0.2393 -0.5967  0.0788
16398SOL    HW161172  10.217   2.669   7.351  0.8944 -3.5316 -0.6078
16398SOL    HW261173  10.310   2.684   7.232  0.3295  1.6039 -0.6001
16399SOL     OW61174   0.724   9.938   0.268 -0.0087 -0.1461  0.9358
16399SOL    HW161175   0.672   9.857   0.267  0.5924 -0.5379  1.0354
16399SOL    HW261176   0.771   9.935   0.351 -0.4114  0.5904  1.2043
16400SOL     OW61177   5.014   7.824   8.016  0.0037  0.0393  0.2495
16400SOL    HW161178   4.983   7.886   7.950 -0.7700  0.1385  0.6861
16400SOL    HW261179   4.936   7.805   8.069 -0.3591 -2.9012 -1.0948
16401SOL     OW61180   9.692   9.114   6.871  0.2377 -0.4584 -0.4003
16401SOL    HW161181   9.777   9.086   6.838  0.0224 -1.2366 -0.3153
16401SOL    HW261182   9.638   9.036   6.866 -0.4671  0.0200 -0.4193
16402SOL     OW61183   7.040   5.382   5.099 -0.1614  0.2951  0.2542
16402SOL    HW161184   7.009   5.410   5.013 -0.5140  1.8494  0.8436
16402SOL    HW261185   6.961   5.348   5.142  0.0195 -0.5038 -0.0357
16403SOL     OW61186   8.369   7.056   9.183  0.4789  0.5949 -0.0438
16403SOL    HW161187   8.438   7.015   9.236  0.1254 -1.0692 -0.8370
16403SOL    HW261188   8.291   7.004   9.199  0.3817 -0.0431 -2.2742
16404SOL     OW61189   4.122   5.352   7.837 -0.5068  0.0405  0.1545
16404SOL    HW161190   4.088   5.428   7.885 -2.9718 -1.1403  0.4405
16404SOL    HW261191   4.217   5.364   7.837 -0.7318  2.3781  1.4166
16405SOL     OW61192   9.657   3.213   7.505  0.0821 -0.1665 -0.1010
16405SOL    HW161193   9.648   3.303   7.471 -0.2794 -1.0995 -2.7427
16405SOL    HW261194   9.640   3.157   7.429  1.7731 -2.4781  1.0845
16406SOL     OW61195   0.852   3.832   1.799  0.2342  0.2639 -0.1615
16406SOL    HW161196   0.808   3.820   1.883  0.5337 -3.2194 -0.3314
16406SOL    HW261197   0.780   3.834   1.735  0.0405  2.2742  0.0681
16407SOL     OW61198   7.265   0.337   0.530  0.0714  0.2854  0.2472
16407SOL    HW161199   7.283   0.324   0.437  0.5922  1.2753  0.1968
16407SOL    HW261200   7.188   0.393   0.532  0.4315  0.7864  0.3934
16408SOL     OW61201   6.140   4.171   1.070  0.4305 -0.0676  0.3052
16408SOL    HW161202   6.207   4.152   1.136  0.4181  1.3371  0.7611
16408SOL    HW261203   6.081   4.096   1.073  0.9930 -0.4912  1.1784
16409SOL     OW61204   3.157   8.623   0.447  0.4227 -0.5390  0.3638
16409SOL    HW161205   3.231   8.653   0.393  0.2530  0.2157  0.5415
16409SOL    HW261206   3.130   8.541   0.406  1.0156 -0.5514 -0.0273
16410SOL     OW61207   6.840   7.447   9.170  0.0068  0.2027 -0.3349
16410SOL    HW161208   6.826   7.353   9.184  0.2679  0.0257 -1.2321
16410SOL    HW261209   6.927   7.453   9.130  1.4191  1.0754  2.6031
16411SOL     OW61210   4.889   4.356   9.119 -0.2142  0.5218  0.2307
16411SOL    HW161211   4.958   4.339   9.054 -0.0820  1.4441  0.1271
16411SOL    HW261212   4.827   4.414   9.075 -1.0744 -0.2958  0.3262
16412SOL     OW61213   3.477   7.583   1.803 -0.0499  0.4063  0.4527
16412SOL    HW161214   3.481   7.663   1.750 -2.8749  1.0585  1.0818
16412SOL    HW261215   3.568   7.568   1.829  0.6481  3.2417  0.0452
16413SOL     OW61216   6.342   1.704   5.895  0.0717  0.3359 -0.6746
16413SOL    HW161217   6.250   1.678   5.899  0.5347 -1.3997 -0.4746
16413SOL    HW261218   6.368   1.687   5.804  0.4154 -0.0133 -0.5138
16414SOL     OW61219   3.595   7.281   6.592  0.1180 -0.3815 -0.3535
16414SOL    HW161220   3.662   7.329   6.543  1.2883 -2.4660 -0.8948
16414SOL    HW261221   3.576   7.204   6.539  0.1628 -1.8372  1.6274
16415SOL     OW61222   2.591   6.642   3.989 -0.0024  0.4939  0.4155
16415SOL    HW161223   2.541   6.706   4.039  1.6394  1.0939  1.3554
16415SOL    HW261224   2.681   6.654   4.017  0.6302 -0.8884 -0.8620
16416SOL     OW61225   7.883   0.108   3.218  0.0521  0.2913  0.0840
16416SOL    HW161226   7.900   0.166   3.292  0.2607 -1.2647  1.2912
16416SOL    HW261227   7.969   0.095   3.178  0.0791  0.4269  0.0963
16417SOL     OW61228   6.278   4.204   5.447 -0.0738 -0.5087 -0.1550
16417SOL    HW161229   6.318   4.240   5.526  0.3384  0.3034 -0.7288
16417SOL    HW261230   6.247   4.117   5.474 -0.9363  0.1811  1.1997
16418SOL     OW61231   8.109   0.789   7.811  0.1805 -0.2986 -0.3110
16418SOL    HW161232   8.074   0.871   7.845  1.6893  0.3859 -0.3310
16418SOL    HW261233   8.033   0.746   7.771 -0.6003  1.2006 -0.5364
16419SOL     OW61234   5.440   9.766   0.848  0.1096 -0.3924 -0.1931
16419SOL    HW161235   5.498   9.723   0.910  0.4360  1.8289  1.1769
16419SOL    HW261236   5.354   9.766   0.891  0.6804  2.6878  1.2396
16420SOL     OW61237   5.311   7.065   7.297 -0.0269 -0.2279 -0.3532
16420SOL    HW161238   5.225   7.104   7.312  0.0409 -0.4767  0.7247
16420SOL    HW261239   5.373   7.138   7.306  0.0513 -0.4422  1.1036
16421SOL     OW61240   8.074   2.238   7.686 -0.8935 -0.5780  0.0730
16421SOL    HW161241   8.027   2.221   7.604 -0.3993 -0.0131 -0.3387
16421SOL    HW261242   8.028   2.312   7.725  0.8642  1.4159 -1.3847
16422SOL     OW61243   7.239   1.858   0.507 -0.5646 -0.0363  0.1448
16422SOL    HW161244   7.219   1.794   0.439  2.8052  0.5132 -1.6211
16422SOL    HW261245   7.261   1.938   0.458  1.6030  0.5052  1.8469
16423SOL     OW61246   6.323   1.710   5.579  0.1742 -0.5920  0.3177
16423SOL    HW161247   6.288   1.796   5.602 -0.4368 -0.1422 -2.0400
16423SOL    HW261248   6.252   1.649   5.599 -0.9435 -0.0267 -1.6509
16424SOL     OW61249   0.918   5.177   6.579 -0.6565 -0.4001 -0.2135
16424SOL    HW161250   0.852   5.246   6.576 -0.3831 -0.1071  0.4173
16424SOL    HW261251   0.873   5.102   6.617 -0.8208 -0.4217 -0.4479
16425SOL     OW61252   6.348   0.068   5.324 -0.1070  0.6296  0.0088
16425SOL    HW161253   6.394  -0.004   5.368 -1.3942  1.0282  2.1596
16425SOL    HW261254   6.376   0.062   5.233  0.5576 -2.0016  0.3029
16426SOL     OW61255  10.326   1.426   9.971  0.0641 -0.2975  0.3349
16426SOL    HW161256  10.371   1.478   9.905 -0.9292 -0.6720 -0.6740
16426SOL    HW261257  10.263   1.373   9.921 -0.2531 -1.0730  1.5162
16427SOL     OW61258   2.393   9.251   7.700  0.2509  0.8531 -0.3160
16427SOL    HW161259   2.385   9.204   7.617 -1.6530  0.9984 -0.2775
16427SOL    HW261260   2.476   9.223   7.736  0.6075 -0.0588 -1.7653
16428SOL     OW61261   6.070   0.100   3.186 -0.5142  0.5474  0.8583
16428SOL    HW161262   6.122   0.071   3.112 -2.9851  1.6977 -1.5146
16428SOL    HW261263   6.043   0.189   3.164 -4.8542 -0.5010  0.9015
16429SOL     OW61264   8.866   7.615   2.558 -0.2947  0.1158 -0.1728
16429SOL    HW161265   8.873   7.704   2.525 -0.0722  0.2549  0.2423
16429SOL    HW261266   8.899   7.560   2.487 -0.6552  0.3468 -0.5183
16430SOL     OW61267   6.527   1.840   8.110  0.0384  0.2265  0.7943
16430SOL    HW161268   6.560   1.751   8.116  0.9071  0.5211  0.4899
16430SOL    HW261269   6.560   1.873   8.026  0.2938  1.0599  1.2109
16431SOL     OW61270   4.828   6.852   3.889 -0.2303 -0.5670  0.1258
16431SOL    HW161271   4.797   6.764   3.871  2.1902 -1.0762 -2.3791
16431SOL    HW261272   4.772   6.909   3.836  1.1213 -1.1941 -2.1362
16432SOL     OW61273   3.791   3.147   5.864 -0.2056 -0.1573  0.8788
16432SOL    HW161274   3.777   3.097   5.944  1.7282 -2.2399  0.0425
16432SOL    HW261275   3.843   3.222   5.890 -1.5629  0.4753  1.8787
16433SOL     OW61276   6.571   6.511   1.298 -0.0229  0.6923  0.5091
16433SOL    HW161277   6.487   6.535   1.337  0.1363  1.5155  0.3747
16433SOL    HW261278   6.588   6.422   1.328 -0.4793  0.8747  1.3308
16434SOL     OW61279   1.985   8.605   9.279  0.3766 -0.0151 -0.6504
16434SOL    HW161280   1.963   8.536   9.341  2.5175  2.4527  3.3046
16434SOL    HW261281   1.904   8.654   9.267 -0.0973 -0.5985  0.1023
16435SOL     OW61282   7.862   4.653   4.274  0.2685 -0.2403 -0.2721
16435SOL    HW161283   7.922   4.667   4.347  0.6585 -0.0524 -0.6253
16435SOL    HW261284   7.910   4.684   4.197 -1.1510  2.1762 -0.2820
16436SOL     OW61285   8.904   8.034   2.240  0.2436 -0.1181 -0.1926
16436SOL    HW161286   8.873   8.104   2.298 -0.1538  0.3891 -0.9990
16436SOL    HW261287   8.886   8.066   2.152 -1.7169 -2.0093 -0.5664
16437SOL     OW61288   4.379   8.893   0.008 -0.0798 -0.2672  0.4295
16437SOL    HW161289   4.433   8.971  -0.006 -1.2400  0.6954  1.1347
16437SOL    HW261290   4.290   8.922  -0.012 -0.2488 -2.2225 -2.2566
16438SOL     OW61291   9.624   8.944  10.084 -0.1772  0.0509 -0.1617
16438SOL    HW161292   9.624   8.857  10.124  0.5988  0.8733  1.7724
16438SOL    HW261293   9.692   8.941  10.017 -0.1395 -0.8212 -0.0855
16439SOL     OW61294   2.892   3.419   7.426  0.4242  0.5037 -0.5144
16439SOL    HW161295   2.919   3.330   7.402 -1.1985  0.2614 -1.5790
16439SOL    HW261296   2.960   3.449   7.487  0.8452 -1.5737  0.1130
16440SOL     OW61297   6.477   5.623   0.811 -1.0408  0.4209  0.2939
16440SOL    HW161298   6.534   5.695   0.785  2.6024 -2.7814 -1.7301
16440SOL    HW261299   6.415   5.662   0.871  1.7862  4.8324  0.8241
16441SOL     OW61300   5.626   3.823   0.494 -0.2457 -0.1386  0.4259
16441SOL    HW161301   5.653   3.761   0.561  0.9542  1.3414  1.3933
16441SOL    HW261302   5.689   3.812   0.423 -0.9572 -1.0588 -0.0802
16442SOL     OW61303   3.498   0.442   8.921 -0.3075  0.2514 -0.3078
16442SOL    HW161304   3.522   0.366   8.868 -0.7630  0.0845 -0.2862
16442SOL    HW261305   3.404   0.429   8.939 -0.4479  0.9443 -0.5138
16443SOL     OW61306   3.085   1.231   1.684  0.0664  0.1360  0.0651
16443SOL    HW161307   3.032   1.307   1.659  1.7304  0.7667 -1.7496
16443SOL    HW261308   3.079   1.172   1.609  0.1417 -0.8188  0.7849
16444SOL     OW61309   5.080   0.311   1.621 -0.2166 -0.3294  0.3076
16444SOL    HW161310   5.173   0.289   1.618  0.3192  1.6801  0.4846
16444SOL    HW261311   5.048   0.294   1.532  0.9545  1.3283 -0.4741
16445SOL     OW61312   7.705   7.507   7.154  0.8013  0.1456  0.7971
16445SOL    HW161313   7.687   7.601   7.160 -1.5681 -0.2927  1.8226
16445SOL    HW261314   7.632   7.466   7.200  1.1827 -2.2752 -0.5870
16446SOL     OW61315   8.811   9.972   9.424  0.2766  0.1845  0.4626
16446SOL    HW161316   8.772  10.013   9.500 -1.5464  1.9518 -1.3153
16446SOL    HW261317   8.842  10.044   9.370 -1.4718 -0.7231 -1.9640
16447SOL     OW61318   1.229   0.351   8.303 -0.0607  0.3667  0.3481
16447SOL    HW161319   1.181   0.343   8.221  0.7478  0.5166 -0.1510
16447SOL    HW261320   1.161   0.370   8.369 -0.8830 -1.1875 -0.0153
16448SOL     OW61321   0.769   1.867   9.208 -0.0312  0.1353 -0.3398
16448SOL    HW161322   0.774   1.921   9.287 -1.4033 -1.0367  0.6050
16448SOL    HW261323   0.812   1.786   9.231 -0.4478 -0.2238 -0.7905
16449SOL     OW61324   0.302   2.176   6.450  0.0562 -0.1046  0.5741
16449SOL    HW161325   0.386   2.208   6.482 -0.0850 -0.0146  0.8681
16449SOL    HW261326   0.274   2.241   6.385  0.1771 -0.0949  0.5318
16450SOL     OW61327   6.620   9.833   3.683 -0.5491  0.0401  0.0228
16450SOL    HW161328   6.552   9.872   3.628 -1.2521  0.7471  1.3584
16450SOL    HW261329   6.602   9.739   3.680  0.2573 -0.1057 -2.0172
16451SOL     OW61330   0.519   3.194   2.277  0.1851 -0.6558 -0.0663
16451SOL    HW161331   0.471   3.114   2.254 -0.1858 -0.4855  0.1180
16451SOL    HW261332   0.547   3.230   2.193 -0.4282 -0.4965 -0.2046
16452SOL     OW61333   1.686   0.463   2.108 -0.5996 -0.4001 -0.5144
16452SOL    HW161334   1.599   0.486   2.075 -0.6093 -1.3678 -1.1986
16452SOL    HW261335   1.724   0.408   2.039  0.8874  0.6777 -0.6251
16453SOL     OW61336   9.950   8.753   9.980  0.1009  0.1761  0.0812
16453SOL    HW161337   9.905   8.827   9.939 -0.0886  0.0416  0.0448
16453SOL    HW261338  10.000   8.713   9.909 -0.3685 -0.1641 -0.0567
16454SOL     OW61339   2.338   2.519   4.784 -0.3791 -0.1921 -0.3659
16454SOL    HW161340   2.253   2.564   4.784 -0.5121 -0.3484 -2.3552
16454SOL    HW261341   2.337   2.466   4.864 -1.5622  0.8469  0.3508
16455SOL     OW61342   9.116   4.554   2.257  0.4258  0.3881  0.3892
16455SOL    HW161343   9.153   4.482   2.205 -0.5640  1.0255 -1.2590
16455SOL    HW261344   9.114   4.520   2.347  1.9373 -0.8468 -0.0087
16456SOL     OW61345   4.865   0.499   3.023 -0.1134  0.5400 -0.6020
16456SOL    HW161346   4.948   0.543   3.003 -0.9604  2.3791 -0.3116
16456SOL    HW261347   4.851   0.515   3.116 -1.3858  1.3697 -0.9130
16457SOL     OW61348   1.618   6.915   5.877  0.0827  0.1964 -0.5321
16457SOL    HW161349   1.612   6.820   5.891 -1.3679  0.5824  2.2077
16457SOL    HW261350   1.676   6.945   5.948  0.7706  1.3611 -1.5528
16458SOL     OW61351   9.990   8.137   1.169 -0.3724 -0.1051 -0.1303
16458SOL    HW161352   9.899   8.166   1.171 -0.3574 -0.0129 -0.7359
16458SOL    HW261353   9.985   8.041   1.169 -0.4137 -0.1799  2.4201
16459SOL     OW61354   2.423   1.879   0.434 -0.0583  0.6995  0.2983
16459SOL    HW161355   2.456   1.855   0.347 -1.0635  1.2586 -0.2560
16459SOL    HW261356   2.384   1.798   0.468  2.9846 -0.3696  1.5567
16460SOL     OW61357   4.316   5.749   5.887  0.4692  0.2894  0.2045
16460SOL    HW161358   4.341   5.657   5.900 -1.2223 -0.2627 -0.1625
16460SOL    HW261359   4.331   5.790   5.972 -1.6147 -1.0690  1.3034
16461SOL     OW61360   3.500  10.210   4.995 -0.0533 -0.8315 -0.1921
16461SOL    HW161361   3.573  10.184   5.051  0.5456  0.7926 -0.1517
16461SOL    HW261362   3.491  10.304   5.010 -2.4160 -1.0360  0.0809
16462SOL     OW61363  10.003   4.764   0.399 -0.2064  0.4799 -0.1337
16462SOL    HW161364   9.928   4.789   0.344 -1.1693  0.6633  1.2034
16462SOL    HW261365   9.963   4.735   0.481  1.2240  1.3028  0.8928
16463SOL     OW61366   8.160   9.505   3.465  0.0481 -0.0116  0.4423
16463SOL    HW161367   8.066   9.501   3.486  0.0984  0.3774  0.7718
16463SOL    HW261368   8.170   9.585   3.414  0.1142 -0.3504 -0.0786
16464SOL     OW61369   9.711   9.403   1.334  0.3324 -0.4397  0.4873
16464SOL    HW161370   9.631   9.451   1.314 -0.2957 -0.9955  1.5430
16464SOL    HW261371   9.695   9.315   1.299  0.7227 -0.3918  0.1853
16465SOL     OW61372   8.206   5.027   6.521  0.3254 -1.0560  0.4024
16465SOL    HW161373   8.220   4.973   6.443 -1.2345 -2.2722  0.8935
16465SOL    HW261374   8.293   5.039   6.559  1.2204  0.1135 -1.8314
16466SOL     OW61375   5.288   4.592   8.708 -0.2821  0.1496  0.3123
16466SOL    HW161376   5.307   4.644   8.786  1.5768 -1.5310  1.0678
16466SOL    HW261377   5.354   4.620   8.644 -0.3495 -0.0836  0.1393
16467SOL     OW61378   0.556   5.384  10.345 -0.4383 -0.4703 -0.1410
16467SOL    HW161379   0.533   5.380  10.438 -1.4985  1.4602 -0.2738
16467SOL    HW261380   0.581   5.294  10.323  2.3908 -0.5597  2.6079
16468SOL     OW61381   9.178   3.449   9.899 -0.6485 -0.4316 -0.4427
16468SOL    HW161382   9.145   3.371   9.854  0.5665 -0.6719 -0.9643
16468SOL    HW261383   9.123   3.521   9.867 -1.3555 -0.9742 -0.4583
16469SOL     OW61384   0.985   0.805   7.417  0.1971  0.7813  0.0155
16469SOL    HW161385   0.903   0.800   7.466  0.4653 -1.8875  0.3542
16469SOL    HW261386   0.958   0.819   7.327 -0.8745 -1.8258 -0.1786
16470SOL     OW61387   2.365   3.850   6.423  0.1658 -0.5665  0.0809
16470SOL    HW161388   2.458   3.829   6.422  0.2872 -0.0372 -0.6524
16470SOL    HW261389   2.351   3.891   6.508  0.7915  0.1221 -0.1332
16471SOL     OW61390   9.528   1.544   9.740  0.0874 -0.1044 -0.6399
16471SOL    HW161391   9.554   1.620   9.791 -2.6023 -0.2619  1.1951
16471SOL    HW261392   9.469   1.578   9.674 -2.6138 -0.6272  1.3347
16472SOL     OW61393   8.992   5.860   3.625 -0.7798  0.1433 -0.2979
16472SOL    HW161394   9.019   5.951   3.612  1.7117 -0.6573 -1.4588
16472SOL    HW261395   9.013   5.842   3.717  1.3474  0.0106 -0.7687
16473SOL     OW61396   7.829   1.865  10.017  0.4181  0.9802  0.5010
16473SOL    HW161397   7.799   1.921  10.089 -1.2499 -0.4123  0.9582
16473SOL    HW261398   7.762   1.875   9.949 -0.5902 -1.2490  1.0490
16474SOL     OW61399   9.490   1.860   0.020  0.5945  0.6039 -0.4071
16474SOL    HW161400   9.498   1.765   0.022  1.0656  0.6329 -0.8145
16474SOL    HW261401   9.553   1.891   0.084 -0.6605  0.5913  0.8862
16475SOL     OW61402   6.018   9.583   9.537  0.1342 -0.0420 -0.3148
16475SOL    HW161403   5.972   9.509   9.577  0.8242 -0.0002  0.5939
16475SOL    HW261404   6.106   9.549   9.519  1.0842  1.0444  1.8735
16476SOL     OW61405   5.133   1.787   6.677  0.3465  0.0435  0.5397
16476SOL    HW161406   5.101   1.800   6.766  1.1174  0.2378  0.7954
16476SOL    HW261407   5.160   1.695   6.674 -2.9165 -1.0243 -0.5676
16477SOL     OW61408   7.022   7.531   2.009 -0.5177 -0.2320  0.4770
16477SOL    HW161409   7.020   7.614   2.057  1.4236  0.1851 -0.0667
16477SOL    HW261410   6.933   7.521   1.974 -0.9000  1.4211  0.8850
16478SOL     OW61411   2.209   2.827   7.122 -0.1599 -0.0778  0.4206
16478SOL    HW161412   2.221   2.905   7.175 -2.7319  0.3222  0.5206
16478SOL    HW261413   2.176   2.860   7.038 -0.6748 -1.0025  0.2476
16479SOL     OW61414   0.287   5.616   9.740  0.3609 -0.4309 -0.4634
16479SOL    HW161415   0.305   5.527   9.772  0.3941  0.3531  1.9495
16479SOL    HW261416   0.310   5.673   9.814 -1.3184  1.4663 -1.3120
16480SOL     OW61417   1.608   2.012   4.462 -0.2442  0.0478 -0.9343
16480SOL    HW161418   1.628   1.950   4.532 -0.2709  0.4494 -0.5687
16480SOL    HW261419   1.644   2.095   4.492 -0.4698  0.2779 -1.2873
16481SOL     OW61420   1.153   8.354   1.621 -0.4603 -0.2182 -0.0502
16481SOL    HW161421   1.233   8.394   1.657 -0.7610 -0.9868  1.5650
16481SOL    HW261422   1.095   8.429   1.606  0.0323  0.2174  0.1544
16482SOL     OW61423   6.128   9.564  10.295  0.0056 -0.2839  0.6113
16482SOL    HW161424   6.212   9.608  10.314 -0.2506  0.2057  0.6287
16482SOL    HW261425   6.107   9.590  10.206  0.1487 -0.8652  0.4070
16483SOL     OW61426   0.646   4.277   0.069 -0.4596 -0.1343  0.1943
16483SOL    HW161427   0.651   4.216  -0.005 -0.6224 -1.2305  1.0516
16483SOL    HW261428   0.667   4.223   0.146  0.3391  1.1219  0.8869
16484SOL     OW61429   1.008   1.610   9.569 -0.7332  0.7932  0.2201
16484SOL    HW161430   0.969   1.646   9.648 -1.0576  0.4427  0.2193
16484SOL    HW261431   1.102   1.607   9.588 -1.0122 -1.6332  1.5637
16485SOL     OW61432   1.790   1.889   8.890  0.0127 -0.2104 -0.1628
16485SOL    HW161433   1.758   1.841   8.966  1.5790  0.2879  0.8627
16485SOL    HW261434   1.805   1.823   8.824  0.4847 -0.9285  0.6418
16486SOL     OW61435   1.264   5.662   3.522 -0.1436 -0.1335  0.1411
16486SOL    HW161436   1.333   5.687   3.584 -0.2711 -0.5580  0.4585
16486SOL    HW261437   1.295   5.579   3.485 -0.5527 -0.3984  0.3910
16487SOL     OW61438   7.455   9.232   8.729 -0.0318  0.1894  0.0633
16487SOL    HW161439   7.492   9.316   8.756  0.6081  0.3074 -1.1275
16487SOL    HW261440   7.530   9.172   8.727 -0.0385  0.2084 -1.4967
16488SOL     OW61441   3.514   0.251   1.298  0.1123 -0.1567 -0.1903
16488SOL    HW161442   3.523   0.260   1.393  1.4093 -2.0870 -0.0591
16488SOL    HW261443   3.489   0.159   1.286  2.3477 -0.6184 -1.7912
16489SOL     OW61444   5.672   1.556   5.952  0.3843  0.0191 -0.1322
16489SOL    HW161445   5.713   1.481   5.907 -1.4941 -2.2382  1.6772
16489SOL    HW261446   5.746   1.603   5.991  1.8081  0.4145 -3.0281
16490SOL     OW61447   7.052   1.546   8.936 -0.3349 -0.5909 -0.8131
16490SOL    HW161448   7.066   1.470   8.879 -1.9564 -0.6763 -1.1401
16490SOL    HW261449   6.992   1.515   9.004 -0.0245  0.0683 -0.2223
16491SOL     OW61450   0.650   8.703   4.123 -0.3791 -0.0657 -0.5320
16491SOL    HW161451   0.743   8.695   4.101 -0.4656 -0.9248 -0.5996
16491SOL    HW261452   0.646   8.684   4.217 -0.4414  0.3617 -0.4455
16492SOL     OW61453   4.959   8.548   1.895  0.0972 -1.0427 -0.4318
16492SOL    HW161454   5.038   8.495   1.908  0.6501  0.0086  0.7364
16492SOL    HW261455   4.992   8.638   1.887 -1.0605 -0.3308  1.9725
16493SOL     OW61456   0.667   3.150   5.941 -0.4879  0.3710  0.6212
16493SOL    HW161457   0.727   3.101   5.885  0.0599  1.1280  0.5432
16493SOL    HW261458   0.580   3.120   5.914 -0.1689 -0.6448  0.6548
16494SOL     OW61459   5.680   8.706   7.843  0.2506  0.0352 -1.1487
16494SOL    HW161460   5.690   8.732   7.751 -0.5928 -1.3493 -1.6603
16494SOL    HW261461   5.651   8.615   7.839  0.0804 -0.0057  0.5031
16495SOL     OW61462  10.054   6.841   9.997 -0.2977 -0.0325 -0.1282
16495SOL    HW161463  10.030   6.929   9.970 -0.9169 -0.6278 -1.6135
16495SOL    HW261464  10.041   6.787   9.919  0.1864 -1.4233  0.7078
16496SOL     OW61465   4.112   9.163   1.387 -0.2453 -0.0834 -0.5817
16496SOL    HW161466   4.168   9.174   1.464  0.0178  0.0512 -0.7871
16496SOL    HW261467   4.171   9.128   1.320 -0.8596 -1.9230 -0.2139
16497SOL     OW61468   2.397   4.429  10.066 -0.5701 -0.5307  0.0490
16497SOL    HW161469   2.337   4.354  10.065  0.5482 -1.4663 -0.9393
16497SOL    HW261470   2.420   4.440  10.158 -1.5206 -0.7546  0.3261
16498SOL     OW61471  10.005   2.871   6.095 -0.1754 -0.0214  0.5683
16498SOL    HW161472  10.060   2.901   6.023  0.5473 -0.0533  1.0961
16498SOL    HW261473   9.924   2.921   6.086 -0.1099 -0.0536 -0.2866
16499SOL     OW61474   5.951   3.159   8.506 -0.2722 -0.0162 -0.1267
16499SOL    HW161475   5.862   3.186   8.483  0.9806  3.4046 -1.4796
16499SOL    HW261476   5.949   3.148   8.601 -2.4291 -1.6064 -0.2677
16500SOL     OW61477   3.924   5.623   9.102  0.2184 -0.5961 -0.1163
16500SOL    HW161478   4.004   5.584   9.067  1.1121 -0.7967  2.0277
16500SOL    HW261479   3.943   5.639   9.194 -2.0983 -0.2925  0.3660
16501SOL     OW61480   1.240  10.369   8.301 -0.3075 -0.6884  0.2086
16501SOL    HW161481   1.296  10.425   8.247 -0.6737 -1.4821 -1.0357
16501SOL    HW261482   1.153  10.407   8.292 -0.5413 -1.3703 -0.5696
16502SOL     OW61483   4.473   4.247   1.171 -0.0664 -0.4509 -0.6025
16502SOL    HW161484   4.514   4.217   1.252  1.1702  0.1580 -0.9768
16502SOL    HW261485   4.395   4.192   1.162 -0.2284 -0.5393  0.9794
16503SOL     OW61486   8.287   8.936   5.935 -1.3121  0.2186 -0.3444
16503SOL    HW161487   8.328   8.953   6.020  0.4363  1.3279 -1.3453
16503SOL    HW261488   8.283   9.022   5.894  0.5205 -0.6167 -2.4835
16504SOL     OW61489   5.026   1.447   2.389 -0.3287  0.1747 -0.3597
16504SOL    HW161490   4.986   1.492   2.463  1.2596  2.1651 -0.5973
16504SOL    HW261491   5.062   1.366   2.425 -0.2887  0.7281  0.8780
16505SOL     OW61492   7.451   7.945   1.636 -0.0064 -0.1904 -0.5667
16505SOL    HW161493   7.422   7.916   1.723  1.7796 -0.5446 -0.0417
16505SOL    HW261494   7.487   8.033   1.652 -1.2208  0.4699 -1.3010
16506SOL     OW61495   2.952   4.183   6.573 -0.0807 -0.0986  0.1225
16506SOL    HW161496   2.914   4.259   6.528 -0.6289 -0.4343  0.0077
16506SOL    HW261497   2.877   4.125   6.589  0.1076  0.0164  1.4913
16507SOL     OW61498   1.711   4.786   5.444 -0.0852  0.3164  0.0366
16507SOL    HW161499   1.637   4.846   5.452  0.4842  1.0312  0.0800
16507SOL    HW261500   1.740   4.772   5.534  0.2220  0.5402 -0.0274
16508SOL     OW61501   1.934   7.416   2.187 -0.1951  0.1010 -1.0328
16508SOL    HW161502   1.885   7.337   2.208 -0.0253  0.6941  1.9522
16508SOL    HW261503   1.898   7.483   2.245  1.8308  1.4064 -1.1947
16509SOL     OW61504   8.873   6.308   9.236 -0.2340  0.5554 -0.2498
16509SOL    HW161505   8.911   6.245   9.175 -0.8554  2.0586 -2.2757
16509SOL    HW261506   8.786   6.327   9.201 -0.9081  0.9370  1.5278
16510SOL     OW61507   0.150   8.537   5.699 -0.0905  0.5267 -0.1472
16510SOL    HW161508   0.174   8.620   5.741 -1.3045  0.7779  0.0971
16510SOL    HW261509   0.054   8.537   5.699 -0.1333  0.1886 -2.2596
16511SOL     OW61510   4.705   8.054   2.822 -0.1706  0.0305  0.0673
16511SOL    HW161511   4.709   7.970   2.867  0.0763 -0.2311 -0.4288
16511SOL    HW261512   4.770   8.047   2.752 -0.1977  0.6094 -0.0211
16512SOL     OW61513   0.463   4.174   7.749  0.7610  0.3284  0.3525
16512SOL    HW161514   0.468   4.080   7.735  0.1664  0.3001  0.2852
16512SOL    HW261515   0.411   4.207   7.675  0.2471  0.5944  0.8281
16513SOL     OW61516   8.749   6.874   7.145 -1.5044 -0.8680 -0.4337
16513SOL    HW161517   8.763   6.921   7.227 -0.3266 -0.4096 -0.8672
16513SOL    HW261518   8.693   6.933   7.094 -0.2714 -0.0072 -0.8615
16514SOL     OW61519   9.810   2.325   9.242 -0.5507  0.5090  0.4926
16514SOL    HW161520   9.744   2.380   9.286 -0.1158  2.8130 -1.5502
16514SOL    HW261521   9.846   2.380   9.173  0.3102 -2.2098 -1.4283
16515SOL     OW61522   8.146   7.252   0.373  0.2905  0.6128 -0.0666
16515SOL    HW161523   8.176   7.308   0.444  1.7375  0.8396 -0.8197
16515SOL    HW261524   8.050   7.260   0.375  0.2831  0.5493  1.8635
16516SOL     OW61525   9.530   4.303   9.245 -0.2715 -0.3670  0.3136
16516SOL    HW161526   9.444   4.282   9.209  0.2348  0.1752 -1.2987
16516SOL    HW261527   9.592   4.275   9.177  0.7394  0.5944  0.8046
16517SOL     OW61528   8.075   9.641   2.691 -0.5424  0.0853  0.2993
16517SOL    HW161529   8.010   9.625   2.623  0.1866  0.4501 -0.4891
16517SOL    HW261530   8.130   9.563   2.692 -0.1290  0.3678 -0.0151
16518SOL     OW61531   8.790   0.093   4.137  0.2696  0.2467  0.0657
16518SOL    HW161532   8.750   0.180   4.144 -0.8781 -0.1267 -1.1835
16518SOL    HW261533   8.844   0.099   4.058 -1.0141 -0.5635 -0.9222
16519SOL     OW61534   5.911   5.633   4.675 -0.3804  0.0508 -0.2195
16519SOL    HW161535   5.928   5.642   4.582 -0.4081 -1.7664 -0.4360
16519SOL    HW261536   5.978   5.687   4.717  0.1760  0.2093 -1.2768
16520SOL     OW61537   9.939   3.395   2.475  0.9785  0.2056 -0.5081
16520SOL    HW161538  10.035   3.399   2.468  1.1090 -1.9890 -0.5905
16520SOL    HW261539   9.921   3.306   2.506 -1.0926  0.3022 -1.2919
16521SOL     OW61540   6.241   5.093   4.406 -0.3156 -0.6744  0.4259
16521SOL    HW161541   6.312   5.123   4.350 -0.4211 -1.2721 -0.0352
16521SOL    HW261542   6.283   5.070   4.489 -0.1137 -0.1188  0.4828
16522SOL     OW61543  10.040   1.852   9.971 -0.2726  0.3997 -0.0383
16522SOL    HW161544   9.973   1.920   9.976  0.7338  1.3515  1.4136
16522SOL    HW261545  10.109   1.890   9.916 -0.0463  0.2638  0.1464
16523SOL     OW61546   7.896   1.150   2.097  0.2319  0.3720 -0.2459
16523SOL    HW161547   7.953   1.078   2.071 -0.1901 -0.9159  2.1588
16523SOL    HW261548   7.954   1.212   2.140  0.7888  2.1312 -3.2166
16524SOL     OW61549   3.164   3.014   5.649  0.3172 -0.2535  0.3468
16524SOL    HW161550   3.143   3.100   5.614  1.3641 -0.4321 -0.7843
16524SOL    HW261551   3.093   2.958   5.619  1.3935 -0.4881 -1.9306
16525SOL     OW61552   4.207   9.235   6.557 -0.3204  0.3279  0.1406
16525SOL    HW161553   4.270   9.194   6.498 -1.4231  0.5415 -1.2447
16525SOL    HW261554   4.233   9.327   6.560 -0.9112  0.5476 -0.9443
16526SOL     OW61555   3.041   8.451   6.291  0.0228 -0.2509  0.2957
16526SOL    HW161556   3.086   8.499   6.221  2.5498 -1.9519  0.6130
16526SOL    HW261557   2.959   8.422   6.252 -0.5745  2.3550 -0.5703
16527SOL     OW61558   5.277   6.712   6.788 -0.0050  0.5738 -0.4103
16527SOL    HW161559   5.272   6.675   6.700  1.2129 -0.0233 -0.2472
16527SOL    HW261560   5.281   6.636   6.846 -0.6490  0.9626  0.1657
16528SOL     OW61561   8.431  10.319   7.807 -0.3279 -0.1181  0.1410
16528SOL    HW161562   8.358  10.372   7.775  0.3657 -0.3183 -1.9009
16528SOL    HW261563   8.390  10.243   7.848 -1.3421 -0.8065 -1.9843
16529SOL     OW61564   9.580   2.479   4.529  0.3916  0.0276 -0.4690
16529SOL    HW161565   9.559   2.400   4.578  3.8120 -0.5418  0.3501
16529SOL    HW261566   9.623   2.448   4.449 -1.8111  1.0471 -2.1281
16530SOL     OW61567   8.175  10.167   3.717  0.2577 -0.0422 -0.2563
16530SOL    HW161568   8.155  10.093   3.659 -0.0994 -0.2743  0.1613
16530SOL    HW261569   8.090  10.198   3.746  0.4293  0.2324 -0.0471
16531SOL     OW61570   1.129   3.887   2.233  0.5526  0.0464 -0.2307
16531SOL    HW161571   1.137   3.922   2.144  1.0345 -1.7771 -0.9392
16531SOL    HW261572   1.054   3.827   2.229  2.2998 -2.2604 -0.2205
16532SOL     OW61573   1.735   1.310   7.635  0.5607 -0.4281  0.0931
16532SOL    HW161574   1.719   1.357   7.554 -0.7164 -0.8707  0.0695
16532SOL    HW261575   1.710   1.372   7.704 -1.5499 -1.1468  0.0551
16533SOL     OW61576   1.238   0.342   5.435 -0.6319 -0.0134  0.2785
16533SOL    HW161577   1.301   0.270   5.427  0.6911  1.1189  0.1388
16533SOL    HW261578   1.153   0.302   5.416  0.1798 -1.3389 -0.7253
16534SOL     OW61579   1.882   0.915   3.865  0.0651 -0.3710  0.0948
16534SOL    HW161580   1.951   0.895   3.802 -0.2285  0.4508 -0.5032
16534SOL    HW261581   1.806   0.939   3.811 -0.9124 -1.8875  0.7136
16535SOL     OW61582   9.813   2.547   7.756  0.2708 -0.0429 -0.7428
16535SOL    HW161583   9.761   2.623   7.781 -1.5572 -1.4045 -0.1377
16535SOL    HW261584   9.787   2.528   7.666 -2.3834 -2.2110  0.3347
16536SOL     OW61585   4.540   9.859   5.842 -0.1716 -0.0932  0.3308
16536SOL    HW161586   4.470   9.924   5.844  0.7159  0.9012  2.8271
16536SOL    HW261587   4.502   9.782   5.884  0.2713  0.5676  2.0221
16537SOL     OW61588   1.349   7.050   7.004 -0.7086  0.4148 -0.0344
16537SOL    HW161589   1.362   7.121   7.066 -1.0440 -0.4805  1.1060
16537SOL    HW261590   1.420   7.060   6.940  0.4018  0.6648  1.1899
16538SOL     OW61591   7.459   5.244   9.856  0.2058  0.4403 -0.2334
16538SOL    HW161592   7.424   5.260   9.944  2.1616  2.2071  0.2950
16538SOL    HW261593   7.514   5.166   9.867 -0.0209  0.3091 -0.0173
16539SOL     OW61594   2.419   2.487   7.268 -0.0397 -0.1760  0.1241
16539SOL    HW161595   2.419   2.427   7.342  1.1400  2.0241  2.0582
16539SOL    HW261596   2.379   2.567   7.302  0.7477  1.0079 -1.5474
16540SOL     OW61597   9.970   9.043   8.742  0.9530  0.6501  0.2917
16540SOL    HW161598   9.998   8.976   8.679  1.6708  1.6620 -0.4918
16540SOL    HW261599   9.941   9.116   8.689  1.7532  1.6077  1.1120
16541SOL     OW61600   9.382   1.135   2.905 -0.3244 -0.1924  0.2700
16541SOL    HW161601   9.438   1.065   2.939 -2.1974 -1.7249  0.3428
16541SOL    HW261602   9.293   1.100   2.910 -1.0703  1.0777 -2.4623
16542SOL     OW61603   2.120   8.014   8.090  0.0086 -0.6700  0.2991
16542SOL    HW161604   2.151   8.091   8.138 -0.8862 -0.3134  0.3309
16542SOL    HW261605   2.047   8.046   8.038 -0.1540 -1.4287  0.0433
16543SOL     OW61606   3.339   2.072   5.008 -0.3457 -0.0116  0.0091
16543SOL    HW161607   3.339   2.012   5.083  1.3764 -0.3904 -0.2481
16543SOL    HW261608   3.359   2.016   4.933  0.7399  0.7816 -0.3140
16544SOL     OW61609   8.756   7.341   3.890  0.2169 -0.1103  0.1579
16544SOL    HW161610   8.673   7.333   3.938  1.1797 -1.9110  1.6425
16544SOL    HW261611   8.729   7.359   3.799 -1.7590  0.2100  0.7512
16545SOL     OW61612   8.983   3.659   7.954 -0.2602  0.5235 -0.3435
16545SOL    HW161613   8.995   3.731   7.893 -2.0411  1.0934 -0.0737
16545SOL    HW261614   8.961   3.584   7.899 -1.6273  0.9807 -0.4662
16546SOL     OW61615   0.076   5.523   9.308  0.4264  0.7910 -0.1423
16546SOL    HW161616  -0.004   5.511   9.359 -0.3684 -1.1698 -1.6850
16546SOL    HW261617   0.134   5.452   9.337  0.7355  0.8549 -0.5826
16547SOL     OW61618   1.806   4.899   6.837 -0.3100  0.3714 -0.1144
16547SOL    HW161619   1.782   4.951   6.914 -0.9090 -0.4412  0.2586
16547SOL    HW261620   1.798   4.808   6.865  1.2631  0.0585 -0.6056
16548SOL     OW61621   7.455   1.364   3.397 -0.2142 -0.2720  0.0225
16548SOL    HW161622   7.538   1.322   3.418 -0.8431 -0.8740  1.4947
16548SOL    HW261623   7.389   1.304   3.432 -1.2230  0.6423 -0.2813
16549SOL     OW61624   7.832   8.165   2.331  0.4214  0.2083 -0.1339
16549SOL    HW161625   7.755   8.107   2.330  0.6813 -0.1647  0.7420
16549SOL    HW261626   7.904   8.109   2.361  0.9084  0.7132 -0.3362
16550SOL     OW61627   0.270   0.865   1.592  0.9631  0.1702  0.5634
16550SOL    HW161628   0.235   0.915   1.666  1.5071  0.6569  0.4975
16550SOL    HW261629   0.222   0.782   1.595  2.1532 -0.5366  2.5255
16551SOL     OW61630   1.347   8.868   1.790  0.4381 -0.7149 -0.2783
16551SOL    HW161631   1.285   8.864   1.717  0.0404 -0.9837  0.0683
16551SOL    HW261632   1.416   8.807   1.765 -0.0977 -1.4254 -0.0762
16552SOL     OW61633   9.384   6.784   4.241  0.1332 -0.0439 -0.1847
16552SOL    HW161634   9.408   6.874   4.263 -0.5807  0.0185  0.3424
16552SOL    HW261635   9.300   6.770   4.284  0.1017 -0.8692 -0.5038
16553SOL     OW61636   8.943   1.936   9.073  0.0910  0.6521  0.0655
16553SOL    HW161637   8.891   1.880   9.130 -0.6231  2.4634  1.2967
16553SOL    HW261638   8.888   1.952   8.997  0.7944 -1.2631 -0.9074
16554SOL     OW61639   2.693   1.604   8.804 -0.0374 -0.0922 -0.5176
16554SOL    HW161640   2.749   1.661   8.751  1.5476 -0.0513  1.1448
16554SOL    HW261641   2.682   1.525   8.751 -3.2863  2.0128 -3.4434
16555SOL     OW61642   5.983   7.888   1.817 -0.2924 -0.3654 -0.2260
16555SOL    HW161643   6.062   7.854   1.773 -0.0360 -2.5048  1.6747
16555SOL    HW261644   5.915   7.825   1.795 -0.5491 -0.5619  1.0576
16556SOL     OW61645   4.909   2.962   8.945 -0.3999 -0.4728  0.1394
16556SOL    HW161646   4.820   2.969   8.980 -1.9331 -0.8095 -3.3072
16556SOL    HW261647   4.911   2.877   8.901  1.6627 -0.4614  0.1403
16557SOL     OW61648   1.759   3.356   5.974 -0.3071 -0.3790 -0.0562
16557SOL    HW161649   1.741   3.274   5.927 -1.6706 -0.2890  0.2749
16557SOL    HW261650   1.826   3.399   5.920 -0.8633 -0.8899 -1.1956
16558SOL     OW61651   4.643   4.736   0.671  0.3410  0.2160  0.0885
16558SOL    HW161652   4.736   4.728   0.647  0.1129 -0.1181 -0.7114
16558SOL    HW261653   4.644   4.772   0.760  1.2379  0.1527  0.1101
16559SOL     OW61654   8.584   0.131   9.368 -0.6029 -0.2441  0.2580
16559SOL    HW161655   8.618   0.046   9.337 -2.9950 -1.5230  0.8786
16559SOL    HW261656   8.592   0.189   9.292 -1.0595 -1.7086 -0.9617
16560SOL     OW61657  10.365  10.091   5.543  0.3360 -0.1109 -0.0134
16560SOL    HW161658  10.400  10.179   5.553  0.8191 -0.3050  0.0512
16560SOL    HW261659  10.355  10.058   5.632 -1.4618  0.4879  0.0351
16561SOL     OW61660   5.495   1.081   8.380  0.0262 -0.9350 -0.6569
16561SOL    HW161661   5.579   1.048   8.411 -0.4444 -1.7344 -0.2103
16561SOL    HW261662   5.505   1.177   8.381  0.2892 -0.9487  1.2425
16562SOL     OW61663   3.447   1.678   0.160  0.1049 -0.2118 -0.1207
16562SOL    HW161664   3.493   1.738   0.102 -0.1797 -0.4971 -0.6452
16562SOL    HW261665   3.354   1.698   0.147  0.0757  0.9835  1.5951
16563SOL     OW61666   3.291   6.965   5.300  0.0011  0.2951 -0.3343
16563SOL    HW161667   3.228   7.017   5.349 -1.2112 -0.3869 -1.0940
16563SOL    HW261668   3.376   6.988   5.337 -0.6814  1.3004  0.6783
16564SOL     OW61669   7.439   5.456   7.782 -0.2673 -0.6840  0.2002
16564SOL    HW161670   7.382   5.513   7.834 -1.6022  0.0719 -1.9675
16564SOL    HW261671   7.382   5.422   7.713  1.4646 -1.4972 -0.8907
16565SOL     OW61672   7.069   1.988   1.248  0.4350 -0.0423  0.6426
16565SOL    HW161673   7.094   2.070   1.205 -0.7615 -0.7920 -1.6286
16565SOL    HW261674   7.117   1.920   1.201 -0.9200 -0.8910  0.4353
16566SOL     OW61675   6.669   8.849   6.317  0.5647 -0.1442 -0.7135
16566SOL    HW161676   6.733   8.799   6.266 -0.1504  0.6720 -2.4973
16566SOL    HW261677   6.586   8.834   6.273 -0.0242  0.9057  0.0039
16567SOL     OW61678   9.666   9.600   2.030 -0.1967  0.1766 -0.1515
16567SOL    HW161679   9.649   9.507   2.019 -0.2090 -0.0379  1.4135
16567SOL    HW261680   9.651   9.638   1.943 -1.5045 -1.0721 -0.5134
16568SOL     OW61681   1.246   9.885   5.006 -0.4463  0.3247 -0.0392
16568SOL    HW161682   1.234   9.974   4.973  0.5190  0.0324 -1.2671
16568SOL    HW261683   1.250   9.894   5.101 -2.0002  1.3772 -0.0427
16569SOL     OW61684   1.517   9.143  10.043 -0.0611  0.3529  0.1386
16569SOL    HW161685   1.441   9.087  10.059  0.8364 -1.0720 -0.3411
16569SOL    HW261686   1.560   9.149  10.128 -0.0797  0.1652  0.1629
16570SOL     OW61687   6.483   9.414   9.803 -0.6993  0.1803  0.0948
16570SOL    HW161688   6.455   9.459   9.883 -1.5137  1.1933 -0.7348
16570SOL    HW261689   6.433   9.333   9.801 -0.4139 -0.0203  0.7807
16571SOL     OW61690   9.980   9.016   4.513  0.0385 -0.2184 -0.6066
16571SOL    HW161691  10.003   9.017   4.420  1.2067 -1.5650 -0.3574
16571SOL    HW261692  10.062   8.997   4.559 -0.8381 -1.4207  0.5664
16572SOL     OW61693   1.045   5.127   2.383  0.9006  0.2676 -0.4829
16572SOL    HW161694   1.039   5.055   2.320  1.1626 -0.1676 -0.0102
16572SOL    HW261695   0.955   5.158   2.392  0.8776  0.4445 -1.1903
16573SOL     OW61696   3.582   8.987   1.455 -0.1286 -0.3902 -0.0633
16573SOL    HW161697   3.495   8.983   1.415 -0.4099 -0.0888  0.4996
16573SOL    HW261698   3.603   9.081   1.457 -1.3601 -0.0477  3.0289
16574SOL     OW61699   8.539   3.425   5.931  0.6732  0.0267 -0.3455
16574SOL    HW161700   8.588   3.458   5.856  0.2616  0.3577 -0.4662
16574SOL    HW261701   8.459   3.388   5.894 -0.0801  1.2277  0.0241
16575SOL     OW61702   2.824   4.305   2.192 -0.1661  0.2902 -0.0011
16575SOL    HW161703   2.812   4.214   2.165  0.5668 -0.1522  1.0753
16575SOL    HW261704   2.735   4.340   2.197 -0.7154 -1.1726  2.1077
16576SOL     OW61705   0.356   2.740   3.919  0.1872  0.5933 -0.1289
16576SOL    HW161706   0.384   2.772   3.834  0.7166  0.3079 -0.0683
16576SOL    HW261707   0.319   2.653   3.901  1.1907  0.1157  0.0512
16577SOL     OW61708   4.978   0.940   8.633 -0.4648 -0.7068  0.5011
16577SOL    HW161709   4.991   1.005   8.702  0.0889 -0.9388  0.6209
16577SOL    HW261710   4.897   0.967   8.590  0.7550  1.2081 -0.7129
16578SOL     OW61711   8.265   8.280   2.408 -0.3425 -0.0795 -0.2035
16578SOL    HW161712   8.185   8.279   2.357  0.2843 -1.0783 -1.2141
16578SOL    HW261713   8.318   8.349   2.368 -0.1195 -0.4093 -0.4831
16579SOL     OW61714   7.925   7.216   3.478  0.6194 -0.4923 -0.3577
16579SOL    HW161715   8.002   7.231   3.532 -0.4677 -0.6382  1.3014
16579SOL    HW261716   7.931   7.282   3.409  3.5447 -2.1290 -1.8786
16580SOL     OW61717   3.290   8.598   3.581 -0.2387  0.2496 -0.2808
16580SOL    HW161718   3.279   8.618   3.674 -0.9007 -0.7125 -0.1429
16580SOL    HW261719   3.360   8.533   3.578 -0.5506 -0.0812 -0.4097
16581SOL     OW61720   3.728   5.004   8.651 -0.8356 -0.2444  0.0442
16581SOL    HW161721   3.702   5.004   8.559 -2.0262 -2.0635  0.3365
16581SOL    HW261722   3.654   5.043   8.697 -0.4522  0.1924  0.3111
16582SOL     OW61723   6.996   1.719   7.316 -0.1488 -0.0937 -0.1346
16582SOL    HW161724   7.043   1.769   7.250  0.6062  0.0344  0.4910
16582SOL    HW261725   6.903   1.734   7.296  0.0734  0.5209 -0.7184
16583SOL     OW61726   9.444   8.059   9.795  0.0984  0.4548  0.1781
16583SOL    HW161727   9.534   8.028   9.808 -0.4946 -1.0235  0.8832
16583SOL    HW261728   9.401   8.045   9.879 -0.7847  1.2319 -0.1309
16584SOL     OW61729   8.564   1.025   3.140  0.1066  0.0428 -0.7687
16584SOL    HW161730   8.484   1.003   3.188  1.5587 -1.9533  0.9518
16584SOL    HW261731   8.583   1.116   3.165 -2.0270  0.8744 -1.9326
16585SOL     OW61732   1.695   9.594   9.888  0.2676  0.3452  0.3022
16585SOL    HW161733   1.680   9.517   9.943 -1.7871 -0.8237 -1.7378
16585SOL    HW261734   1.607   9.622   9.863  1.0912  1.8116 -1.0700
16586SOL     OW61735   9.413   3.942   0.278  0.5245  0.4026 -0.5388
16586SOL    HW161736   9.488   3.886   0.299  2.8150  2.7509 -1.9922
16586SOL    HW261737   9.402   3.934   0.184 -1.4892 -0.2864 -0.3038
16587SOL     OW61738   1.783  10.111   3.948 -0.5553 -0.0043  0.0316
16587SOL    HW161739   1.859  10.112   4.007 -0.5891 -4.1185  0.4428
16587SOL    HW261740   1.820  10.119   3.861  0.2209 -0.3349  0.3215
16588SOL     OW61741   9.045   0.732   9.193 -0.2606  0.0163 -0.3204
16588SOL    HW161742   9.086   0.809   9.154  1.2681 -0.6623 -0.1143
16588SOL    HW261743   9.070   0.660   9.136 -1.0241 -0.4508 -0.0794
16589SOL     OW61744   2.215   2.387   8.055  0.2144 -0.4045 -0.5002
16589SOL    HW161745   2.263   2.318   8.101 -0.8489 -0.1183  1.1439
16589SOL    HW261746   2.242   2.379   7.964  2.7341 -0.7768  0.1889
16590SOL     OW61747   4.180   5.480   4.598 -0.5705  0.3443  0.2292
16590SOL    HW161748   4.255   5.518   4.642  0.2096 -0.6997 -0.1536
16590SOL    HW261749   4.110   5.483   4.663 -0.3704  1.8337  0.4031
16591SOL     OW61750   6.306   4.533   3.952 -0.5906 -0.1631  0.6605
16591SOL    HW161751   6.289   4.531   4.047 -2.1054 -2.1235  0.4031
16591SOL    HW261752   6.222   4.559   3.914 -0.5417 -1.2394 -0.2220
16592SOL     OW61753   0.137   5.760   9.061  0.1722 -0.0607 -0.8422
16592SOL    HW161754   0.127   5.673   9.022 -1.9639 -0.7498  1.0117
16592SOL    HW261755   0.142   5.820   8.987 -2.5174 -1.3996 -2.2105
16593SOL     OW61756   1.424   3.820   2.871  0.0930  0.5502 -0.0773
16593SOL    HW161757   1.355   3.777   2.821 -0.1351  0.4824  0.2895
16593SOL    HW261758   1.504   3.806   2.820 -0.1530  0.5688 -0.4677
16594SOL     OW61759   4.033   9.516   7.454  0.4334  0.6026 -0.2480
16594SOL    HW161760   4.013   9.456   7.526  0.5626  0.3288 -0.4421
16594SOL    HW261761   4.046   9.601   7.497  1.3885  0.2654  0.1496
16595SOL     OW61762   0.560   7.243   5.863 -0.3232 -0.2391  0.1417
16595SOL    HW161763   0.600   7.168   5.907  1.4339 -0.1677 -1.1975
16595SOL    HW261764   0.603   7.319   5.903 -0.4722 -0.0670 -0.0280
16596SOL     OW61765   2.608   6.954   6.002 -0.4903  0.4395 -0.2296
16596SOL    HW161766   2.623   7.028   5.944  2.6433 -0.6573 -1.0572
16596SOL    HW261767   2.632   6.985   6.089 -0.7444  0.8275 -0.2995
16597SOL     OW61768   6.026   7.824   5.031  0.3519  0.2016  0.0200
16597SOL    HW161769   6.062   7.750   4.982  0.5199  0.3378 -0.0652
16597SOL    HW261770   5.979   7.784   5.104 -1.2846 -0.0810 -1.1471
16598SOL     OW61771   7.610  10.332   1.819  0.2558 -0.1102  0.4790
16598SOL    HW161772   7.628  10.331   1.725 -0.2387  1.3812  0.3445
16598SOL    HW261773   7.532  10.277   1.829  0.4143 -0.4189  0.0362
16599SOL     OW61774   4.024   5.895   0.932 -0.2010  0.3640 -0.1183
16599SOL    HW161775   4.024   5.856   0.844  0.8751 -0.6866  0.3259
16599SOL    HW261776   4.059   5.983   0.919 -0.6005  0.4344 -0.8143
16600SOL     OW61777   1.462   4.129  10.059  0.1838 -0.3952 -0.6831
16600SOL    HW161778   1.499   4.057  10.007  0.2932 -0.5363 -0.4151
16600SOL    HW261779   1.444   4.198   9.995  4.1914  1.1216 -0.4917
16601SOL     OW61780   1.596   7.845   9.741 -0.3372 -0.3034 -0.3009
16601SOL    HW161781   1.689   7.855   9.718 -0.4271 -2.4925 -1.8988
16601SOL    HW261782   1.593   7.862   9.836  1.6762 -0.1540 -0.2151
16602SOL     OW61783   2.052   1.464   0.300 -0.5627 -0.5783  0.1139
16602SOL    HW161784   2.029   1.537   0.243  0.9684  0.1490  0.3929
16602SOL    HW261785   2.105   1.406   0.244  0.5875 -0.0679  0.6474
16603SOL     OW61786   5.069   8.279   6.546  0.2559  0.2446 -0.1064
16603SOL    HW161787   5.164   8.292   6.543  0.7586 -2.7266 -1.5316
16603SOL    HW261788   5.032   8.367   6.547  3.0128  1.5383  2.4152
16604SOL     OW61789   0.022   3.795   4.798 -0.0757  0.0436 -0.4123
16604SOL    HW161790   0.092   3.739   4.766  0.9795  0.5569  0.9229
16604SOL    HW261791   0.000   3.760   4.884 -0.1692  1.0014 -0.0359
16605SOL     OW61792   9.678   0.845   5.067 -0.1419  0.2244  0.2034
16605SOL    HW161793   9.707   0.805   4.985 -2.9237  2.8779 -2.3417
16605SOL    HW261794   9.609   0.786   5.098  2.0193 -1.6746  1.7227
16606SOL     OW61795   6.072   9.381   2.610 -0.8987  0.1209  0.9203
16606SOL    HW161796   6.041   9.366   2.699 -1.2071  0.8771  0.9500
16606SOL    HW261797   5.994   9.371   2.555 -0.9086  0.6042  0.8426
16607SOL     OW61798   7.191   4.680   8.017  0.2683 -0.2522 -0.6338
16607SOL    HW161799   7.256   4.746   7.993 -1.5540  2.0775  0.3274
16607SOL    HW261800   7.133   4.675   7.942 -0.2172  0.0970 -0.2911
16608SOL     OW61801   0.238   5.829   7.039 -0.4736  0.2419  0.1260
16608SOL    HW161802   0.269   5.917   7.018  1.0474 -0.2233  0.2690
16608SOL    HW261803   0.318   5.776   7.043 -1.4458 -1.5030 -1.5963
16609SOL     OW61804   3.806   7.474   3.695 -0.2343  0.4975  0.1288
16609SOL    HW161805   3.872   7.420   3.740  0.3724 -0.9535 -2.3399
16609SOL    HW261806   3.776   7.535   3.762  0.8360 -1.3088  2.4020
16610SOL     OW61807   3.288   0.166   6.805  0.6363 -0.0324  0.9386
16610SOL    HW161808   3.215   0.197   6.858 -1.3763 -1.4170 -0.8839
16610SOL    HW261809   3.287   0.221   6.727 -1.8582 -3.0951 -1.4910
16611SOL     OW61810   8.583   9.054   0.030  0.4362 -0.3607 -0.1072
16611SOL    HW161811   8.526   8.985   0.065 -0.5086  0.2938 -0.3265
16611SOL    HW261812   8.528   9.132   0.028  1.6025  0.5065  0.5001
16612SOL     OW61813   8.944   0.532   9.330  0.2352 -0.0484 -0.1511
16612SOL    HW161814   8.877   0.540   9.398  1.3068  1.4946  0.7932
16612SOL    HW261815   8.977   0.621   9.318  0.5927 -0.3993 -2.2029
16613SOL     OW61816   9.755   9.361   7.802 -0.2011  0.0285 -0.4159
16613SOL    HW161817   9.758   9.443   7.753 -0.8731 -0.3005 -1.0172
16613SOL    HW261818   9.672   9.320   7.777 -0.3817 -0.3301  0.7038
16614SOL     OW61819   2.238   0.667   4.479  0.1280 -0.2139 -0.3409
16614SOL    HW161820   2.217   0.755   4.511  0.5960  0.1278 -0.9695
16614SOL    HW261821   2.292   0.681   4.402  1.2558 -1.0627  0.2602
16615SOL     OW61822   7.071   5.371  10.073  0.4390  0.2256  0.0258
16615SOL    HW161823   7.130   5.297  10.063 -0.3888 -0.2548 -1.6064
16615SOL    HW261824   7.128   5.448  10.072  1.2549 -0.3376  1.2107
16616SOL     OW61825   5.087   6.738   7.820 -0.1130 -0.2309  0.0504
16616SOL    HW161826   5.028   6.690   7.761 -1.6752  0.5614  0.9174
16616SOL    HW261827   5.055   6.828   7.818  3.4142  1.2047 -2.3840
16617SOL     OW61828   2.674   8.777   3.296  0.3627  0.1131 -0.3970
16617SOL    HW161829   2.677   8.872   3.311 -1.6425  0.0397  0.8508
16617SOL    HW261830   2.607   8.765   3.230  0.7226 -0.4477 -0.6705
16618SOL     OW61831   0.451   7.064   1.089 -1.2887  0.2952  0.3007
16618SOL    HW161832   0.409   7.102   1.166 -2.0427  0.9177 -0.3927
16618SOL    HW261833   0.428   7.124   1.017 -1.7848 -1.0073 -0.6685
16619SOL     OW61834   1.632   4.308   1.714  0.0040  0.0271  0.0654
16619SOL    HW161835   1.541   4.316   1.685 -0.5913  0.1153  1.8710
16619SOL    HW261836   1.638   4.219   1.748  0.4160  0.2283  0.5207
16620SOL     OW61837   8.490   9.963   8.678 -0.0371  0.2237 -0.2130
16620SOL    HW161838   8.424   9.912   8.725 -0.6753  0.4506 -0.8524
16620SOL    HW261839   8.560   9.901   8.660 -0.1390 -0.0568  0.3449
16621SOL     OW61840   4.544   5.769   6.203 -0.1031 -0.1649  0.2926
16621SOL    HW161841   4.599   5.836   6.161 -1.4209 -0.1117 -1.4334
16621SOL    HW261842   4.597   5.690   6.199  0.0121 -0.0535 -1.0934
16622SOL     OW61843   7.108   0.293   1.575 -0.4541 -0.5968  0.0512
16622SOL    HW161844   7.082   0.333   1.492 -0.6106  3.6518  1.8639
16622SOL    HW261845   7.203   0.286   1.570 -0.4899 -0.6860 -0.5808
16623SOL     OW61846   3.934   7.172   6.357  0.3026 -0.2017 -0.4427
16623SOL    HW161847   3.868   7.121   6.309 -1.5954  1.1985  0.5548
16623SOL    HW261848   3.922   7.261   6.324  0.9490  0.2588  0.5605
16624SOL     OW61849   5.472   9.767   6.821  0.3323  0.2854  0.0138
16624SOL    HW161850   5.405   9.739   6.759  0.7512 -0.0296 -0.3139
16624SOL    HW261851   5.555   9.746   6.776  0.6683  1.8413 -0.1388
16625SOL     OW61852   0.054   0.633   5.583 -0.0098  0.2798  0.5059
16625SOL    HW161853   0.085   0.551   5.619 -0.4819  0.6087  1.7169
16625SOL    HW261854  -0.041   0.626   5.586 -0.1156 -0.1768 -1.8934
16626SOL     OW61855   5.604  10.056   7.579  0.3329 -0.1769 -0.5903
16626SOL    HW161856   5.627  10.128   7.521  0.9241  0.3935  0.3092
16626SOL    HW261857   5.550   9.998   7.527 -0.6044  1.1894 -1.1784
16627SOL     OW61858   6.800   0.636   4.828 -0.2502  0.0080 -0.6254
16627SOL    HW161859   6.717   0.589   4.834  0.2988 -1.1628 -1.7397
16627SOL    HW261860   6.775   0.729   4.831 -1.4219 -0.3174  0.8218
16628SOL     OW61861   1.700   3.380   2.955  0.3815 -0.0417  0.1871
16628SOL    HW161862   1.715   3.356   2.864 -0.2681  0.0641  0.0465
16628SOL    HW261863   1.613   3.420   2.955  1.0348  1.4462  0.5776
16629SOL     OW61864   6.496   6.516   7.812  0.4392 -0.1969 -0.4916
16629SOL    HW161865   6.419   6.563   7.843  1.2647  0.2734  0.9001
16629SOL    HW261866   6.487   6.428   7.849  0.3324 -0.2987 -0.7512
16630SOL     OW61867   2.267   0.535   7.218 -0.0223 -0.2919 -0.1935
16630SOL    HW161868   2.339   0.472   7.212 -1.4414 -2.2320  1.9484
16630SOL    HW261869   2.310   0.618   7.237  1.7378 -1.1178 -0.3612
16631SOL     OW61870   7.704   9.133   8.773 -0.3619 -0.0782  0.1787
16631SOL    HW161871   7.780   9.129   8.832  0.0269 -1.5038 -0.3847
16631SOL    HW261872   7.739   9.112   8.687 -1.3701 -0.5958 -0.1193
16632SOL     OW61873   5.093   1.039   4.440  0.1467  0.0051  0.4839
16632SOL    HW161874   5.107   0.948   4.467 -0.3817  0.1916  1.4144
16632SOL    HW261875   5.121   1.091   4.515 -1.5794  0.5238  0.8095
16633SOL     OW61876   7.532   1.150   0.722  0.1651  0.6683  0.0543
16633SOL    HW161877   7.615   1.196   0.711  0.7650 -0.3533  0.1077
16633SOL    HW261878   7.557   1.065   0.758 -0.7070 -0.4108 -1.7439
16634SOL     OW61879   0.616  10.244   8.291  0.1172  0.2530 -0.5031
16634SOL    HW161880   0.703  10.213   8.268 -0.5848 -0.3059 -2.5660
16634SOL    HW261881   0.614  10.335   8.261  0.0511  0.3458 -0.2296
16635SOL     OW61882   2.394   0.689   5.968 -0.4565 -0.7625 -0.1429
16635SOL    HW161883   2.392   0.732   6.054  0.6035  0.0207 -0.4825
16635SOL    HW261884   2.407   0.761   5.906  0.1041 -1.4500 -0.8360
16636SOL     OW61885   6.266   9.437   5.347 -0.3528 -0.7740  0.2291
16636SOL    HW161886   6.217   9.503   5.397 -2.1512 -1.9200  0.0789
16636SOL    HW261887   6.224   9.437   5.260  1.5237 -0.1161 -0.7388
16637SOL     OW61888   3.732   8.468   0.337  0.6111  0.1748 -0.3693
16637SOL    HW161889   3.790   8.528   0.290 -0.9139  1.1904 -1.0171
16637SOL    HW261890   3.784   8.388   0.346  1.6076  0.5540 -2.2014
16638SOL     OW61891   8.438   7.200   5.197 -0.0970 -0.5072 -0.2689
16638SOL    HW161892   8.353   7.166   5.224 -0.0903  0.2040  0.7106
16638SOL    HW261893   8.462   7.262   5.266 -0.1248  1.5103 -1.9721
16639SOL     OW61894   1.934   0.251  10.185 -0.3288 -0.0419 -0.0009
16639SOL    HW161895   2.001   0.212  10.130  0.7965 -1.5536  2.2834
16639SOL    HW261896   1.877   0.178  10.210 -0.1221  0.3393  1.7151
16640SOL     OW61897   3.607   4.517   1.842 -0.0967 -0.8299 -0.5009
16640SOL    HW161898   3.613   4.602   1.799  1.0016 -0.3630  0.5133
16640SOL    HW261899   3.576   4.537   1.930  1.5712 -1.2853  0.2272
16641SOL     OW61900   9.778   3.875   1.736 -0.1894  0.4287  0.1362
16641SOL    HW161901   9.794   3.888   1.642  0.0441  0.6458  0.2060
16641SOL    HW261902   9.838   3.805   1.761 -1.0278 -0.3923 -0.1111
16642SOL     OW61903   1.643   0.407   2.830  0.2559  0.2096 -0.6275
16642SOL    HW161904   1.658   0.322   2.870  0.7769 -0.3300 -1.8960
16642SOL    HW261905   1.550   0.426   2.847  0.1259 -0.6355 -0.3688
16643SOL     OW61906   3.923   3.514   9.471  0.4015  0.7678  1.0656
16643SOL    HW161907   3.865   3.576   9.427 -2.1817 -2.0337  0.1511
16643SOL    HW261908   3.950   3.453   9.403  0.1319 -0.9886  2.4501
16644SOL     OW61909   6.018   0.908   6.755 -0.0861  0.0040  0.1043
16644SOL    HW161910   6.037   0.845   6.686  0.3098  0.7609 -0.4924
16644SOL    HW261911   6.076   0.883   6.827 -1.2084 -1.4046  0.5798
16645SOL     OW61912   7.778   1.320   6.720  0.1496  0.4345 -1.1148
16645SOL    HW161913   7.866   1.283   6.727 -1.0734 -2.3963  0.8212
16645SOL    HW261914   7.773   1.384   6.790 -0.0584 -1.2122  0.4420
16646SOL     OW61915   1.930   9.900   0.381 -0.3477 -0.1300 -0.1360
16646SOL    HW161916   2.022   9.892   0.356 -1.0513 -1.2340 -2.6913
16646SOL    HW261917   1.907   9.814   0.416 -0.7324 -0.2993 -0.7875
16647SOL     OW61918   5.726   7.754   1.798  0.0051 -0.1648 -0.4054
16647SOL    HW161919   5.689   7.756   1.887 -1.1329  2.0354 -0.8363
16647SOL    HW261920   5.782   7.677   1.797  0.5974  0.0923  2.4437
16648SOL     OW61921   1.429   5.875   9.067 -0.5580  0.3663 -0.4457
16648SOL    HW161922   1.441   5.809   8.998 -1.6158  1.1974 -1.4793
16648SOL    HW261923   1.443   5.958   9.023  1.9542  0.8637  1.1168
16649SOL     OW61924   7.472   9.108   1.977 -0.4936  0.1945  0.0175
16649SOL    HW161925   7.379   9.132   1.975 -0.3179  0.8687 -0.6451
16649SOL    HW261926   7.511   9.166   2.042 -0.3318  0.7212 -0.5409
16650SOL     OW61927   4.248   6.626   7.323  0.5049  0.0623 -0.3838
16650SOL    HW161928   4.201   6.583   7.252 -0.7485 -0.6063  0.8100
16650SOL    HW261929   4.260   6.716   7.292  1.2629 -0.5550 -2.0069
16651SOL     OW61930   7.066   2.226   7.131  0.0189 -0.4751  0.0773
16651SOL    HW161931   6.973   2.202   7.128 -0.7505  2.0379  1.3662
16651SOL    HW261932   7.079   2.281   7.054  0.1493  0.0956  0.5068
16652SOL     OW61933   5.715   9.195   2.071  0.2138 -0.0854 -0.2373
16652SOL    HW161934   5.661   9.117   2.055  1.6647 -0.8944 -1.4158
16652SOL    HW261935   5.737   9.191   2.163 -0.4332 -0.5978 -0.0939
16653SOL     OW61936   5.511   9.707   7.092 -0.3098 -0.7188  0.3354
16653SOL    HW161937   5.487   9.798   7.109 -2.2117 -1.0883 -0.1311
16653SOL    HW261938   5.505   9.698   6.997  0.9208 -1.0826  0.2721
16654SOL     OW61939   3.380   8.629   3.060  0.6115  0.0717 -0.0290
16654SOL    HW161940   3.426   8.603   3.139  1.0399  2.7549  0.7028
16654SOL    HW261941   3.287   8.629   3.084  0.7546  1.0768  0.5927
16655SOL     OW61942   8.144   5.999   1.884 -0.0463  0.0175  0.8324
16655SOL    HW161943   8.159   6.082   1.839  2.7166 -1.5331 -1.4379
16655SOL    HW261944   8.187   6.009   1.969 -0.4045  1.1148  0.9018
16656SOL     OW61945   0.351   0.425   7.378  0.4863  0.1939 -0.0728
16656SOL    HW161946   0.283   0.492   7.383  0.7425  0.3761  1.3382
16656SOL    HW261947   0.330   0.363   7.448  1.2104 -0.2816 -0.2661
16657SOL     OW61948   8.690   5.144   9.059  0.4773 -0.2924  0.0440
16657SOL    HW161949   8.623   5.076   9.059 -0.6302  0.7605 -0.8099
16657SOL    HW261950   8.738   5.131   8.977 -0.2414  0.4151 -0.5010
16658SOL     OW61951   8.016   6.916   3.396  0.6287 -0.3714  0.3307
16658SOL    HW161952   8.007   6.952   3.485 -0.1514  1.4546 -0.4300
16658SOL    HW261953   8.110   6.913   3.381  0.7452  1.5358  0.4144
16659SOL     OW61954   9.828   2.505   0.316  0.1430  0.2922 -0.6243
16659SOL    HW161955   9.788   2.551   0.390  0.3615  0.5277 -0.6517
16659SOL    HW261956   9.797   2.414   0.325 -0.7470  0.5591 -0.8983
16660SOL     OW61957   0.023   5.100   6.294 -0.3212 -0.2863  0.3826
16660SOL    HW161958   0.104   5.129   6.335 -0.0389  0.5118 -0.7164
16660SOL    HW261959   0.051   5.059   6.212 -1.0639  0.4716 -0.2567
16661SOL     OW61960   9.252   6.081   4.542  0.4439 -0.0950  0.3232
16661SOL    HW161961   9.185   6.103   4.477 -0.0473 -0.3230  0.7404
16661SOL    HW261962   9.256   6.158   4.598 -0.4426 -0.5939  1.0950
16662SOL     OW61963   6.110   9.764   6.031  0.4051  0.1370  0.1740
16662SOL    HW161964   6.056   9.707   5.977 -0.7020  0.4850  0.8738
16662SOL    HW261965   6.177   9.799   5.972 -0.1006 -0.3552 -0.6941
16663SOL     OW61966   8.437   1.476   5.277  0.6947  0.1788 -0.8204
16663SOL    HW161967   8.432   1.382   5.263  0.8721  0.1988 -1.0252
16663SOL    HW261968   8.507   1.505   5.219 -0.0323  0.5796 -1.5275
16664SOL     OW61969   1.196   1.875   2.048  0.3416 -0.4324  0.2069
16664SOL    HW161970   1.249   1.795   2.040 -0.0206 -0.7952  1.2615
16664SOL    HW261971   1.109   1.849   2.017 -0.0004 -0.7050  1.3479
16665SOL     OW61972   1.348   4.657   8.916  0.1362 -0.4177  0.1157
16665SOL    HW161973   1.283   4.723   8.937 -0.1055  0.0211 -1.8420
16665SOL    HW261974   1.413   4.703   8.862  0.1094 -1.6914 -1.0567
16666SOL     OW61975   1.106   8.823   1.634 -0.1033  0.3956  0.0432
16666SOL    HW161976   1.136   8.762   1.567 -0.3070  0.9374 -0.5515
16666SOL    HW261977   1.042   8.878   1.590  0.9198  1.7990  0.2400
16667SOL     OW61978   5.115  10.096   4.105  0.4648  0.0912  0.0892
16667SOL    HW161979   5.204  10.092   4.141  0.1042  0.7741  1.1293
16667SOL    HW261980   5.118  10.168   4.041  0.4809  0.6675  0.7195
16668SOL     OW61981   2.542   0.298   8.572  0.6502 -0.1884 -0.1754
16668SOL    HW161982   2.583   0.282   8.657 -4.4289  1.0399  2.9957
16668SOL    HW261983   2.537   0.394   8.566 -1.4686 -0.2581 -0.3325
16669SOL     OW61984   4.416   6.561   0.384  0.5703 -1.2047 -0.0737
16669SOL    HW161985   4.349   6.629   0.382 -0.9494 -2.5970  0.9046
16669SOL    HW261986   4.412   6.520   0.298  1.8803  0.2486 -0.8665
16670SOL     OW61987   1.075   1.353   4.109 -0.2151  0.4995 -0.0845
16670SOL    HW161988   1.097   1.372   4.018  2.3622  0.9581  0.5635
16670SOL    HW261989   1.029   1.432   4.139  0.7278  1.2025 -0.4474
16671SOL     OW61990   2.412  10.253   0.827  0.1492 -0.3986  0.8939
16671SOL    HW161991   2.487  10.195   0.811  1.3725  1.7409 -1.9255
16671SOL    HW261992   2.365  10.255   0.744  0.0324  2.3718  0.9449
16672SOL     OW61993   7.717   1.859   5.981  0.5261 -0.2967 -0.4372
16672SOL    HW161994   7.693   1.771   6.009 -0.6985  0.3240  0.5632
16672SOL    HW261995   7.699   1.860   5.887  0.3082 -1.0280 -0.4122
16673SOL     OW61996   2.470   6.465   2.916 -0.0882 -0.1622 -0.3630
16673SOL    HW161997   2.531   6.451   2.989  1.0957  2.9556 -0.5935
16673SOL    HW261998   2.387   6.484   2.959 -0.5560 -2.7019 -0.0037
16674SOL     OW61999   0.119   5.866   6.299  0.1390 -0.0330 -0.0501
16674SOL    HW162000   0.147   5.775   6.310 -0.4286 -0.0317  1.6876
16674SOL    HW262001   0.041   5.860   6.244  0.1208 -0.5928  0.0248
16675SOL     OW62002   4.095   4.559   9.136 -0.1440  0.8126  0.4118
16675SOL    HW162003   4.028   4.591   9.076  1.2468 -0.2701 -1.8609
16675SOL    HW262004   4.061   4.477   9.170 -0.5705  1.0024  0.4477
16676SOL     OW62005   7.569   9.829   6.246 -0.0098 -0.2779 -0.1504
16676SOL    HW162006   7.581   9.922   6.265 -1.3745 -0.0639 -0.2962
16676SOL    HW262007   7.524   9.794   6.323  0.5007 -0.8292 -0.0918
16677SOL     OW62008   6.649   3.606   2.189  0.6929 -0.3786  0.5944
16677SOL    HW162009   6.600   3.669   2.136  1.1760  0.8988  1.5916
16677SOL    HW262010   6.586   3.538   2.210  0.4321 -0.8283 -1.4021
16678SOL     OW62011   7.771  10.230   2.772  0.0311  0.2580  0.5089
16678SOL    HW162012   7.677  10.214   2.769 -0.0047  0.5916 -0.6994
16678SOL    HW262013   7.801  10.182   2.849 -0.3781 -3.9541 -1.6689
16679SOL     OW62014   3.059   0.235   5.108 -0.5633  0.3325 -0.0207
16679SOL    HW162015   2.977   0.185   5.114 -0.1093 -0.4073  0.1726
16679SOL    HW262016   3.074   0.267   5.197  0.1782 -0.8868  0.3107
16680SOL     OW62017   9.314   1.875   5.943  0.8250 -0.0420 -0.1613
16680SOL    HW162018   9.393   1.842   5.899 -0.8029 -0.4024 -3.0676
16680SOL    HW262019   9.260   1.910   5.873 -1.5726  0.3355  1.7267
16681SOL     OW62020   9.452   0.784   7.480 -0.2481  0.1067  0.1052
16681SOL    HW162021   9.508   0.708   7.463 -0.1847 -0.3684  2.0911
16681SOL    HW262022   9.363   0.751   7.472 -0.2447  0.3776 -1.1463
16682SOL     OW62023   5.826   2.647   9.510 -0.0937 -0.4405  0.1506
16682SOL    HW162024   5.834   2.661   9.415  1.7512  0.2477  0.3659
16682SOL    HW262025   5.845   2.554   9.522  0.1743 -0.4201 -0.1026
16683SOL     OW62026   7.921   9.841   2.772  0.2739  0.7144 -0.2913
16683SOL    HW162027   7.979   9.769   2.746  0.0927  0.7817 -0.8878
16683SOL    HW262028   7.913   9.895   2.694  0.9994  1.8012  0.3456
16684SOL     OW62029   8.400   4.442   6.444  0.4777  0.8204  0.0432
16684SOL    HW162030   8.472   4.379   6.439  0.1798  0.5220 -0.9066
16684SOL    HW262031   8.347   4.422   6.366 -0.5303  1.1421  0.6369
16685SOL     OW62032   7.382   3.536   2.227 -0.0582  0.8652  0.3378
16685SOL    HW162033   7.387   3.450   2.268 -0.4413  1.5476  1.8859
16685SOL    HW262034   7.432   3.527   2.146  0.1793 -0.7157  0.6331
16686SOL     OW62035   5.908   7.126   6.271  0.4843 -0.3213  0.2653
16686SOL    HW162036   5.979   7.188   6.291 -0.6008  0.8753  0.5685
16686SOL    HW262037   5.828   7.174   6.292 -0.4194 -1.7426  0.2190
16687SOL     OW62038   3.471   0.934   1.199 -0.0686 -0.9203  0.5368
16687SOL    HW162039   3.485   0.853   1.150  0.5764 -0.4202 -0.1389
16687SOL    HW262040   3.461   1.001   1.132 -0.5894 -0.4327  1.0895
16688SOL     OW62041   9.996   9.679   1.335  0.3798  0.5555  0.2787
16688SOL    HW162042  10.058   9.711   1.400  0.5278  0.9857 -0.0663
16688SOL    HW262043   9.951   9.607   1.378  2.6032 -1.2272 -0.1527
16689SOL     OW62044   5.268   7.322   8.312  0.2586  0.3091  0.1535
16689SOL    HW162045   5.259   7.297   8.220  0.3123  0.0662  0.2117
16689SOL    HW262046   5.261   7.417   8.313  0.1396  0.3021 -0.0885
16690SOL     OW62047   9.064   5.195   6.597 -0.4586  0.0525  0.4099
16690SOL    HW162048   8.998   5.136   6.633  1.0857 -1.3691  0.9792
16690SOL    HW262049   9.138   5.139   6.575  1.2760  1.8180  1.4761
16691SOL     OW62050   7.482   5.750   7.649 -0.3521  0.2371  0.1627
16691SOL    HW162051   7.447   5.748   7.738  0.5609  1.2784  0.5712
16691SOL    HW262052   7.550   5.683   7.648 -0.2622  0.3274  0.2890
16692SOL     OW62053   6.047   0.446   3.588 -0.1605  0.2464 -0.5720
16692SOL    HW162054   6.098   0.492   3.656 -1.4060 -0.0203  0.5834
16692SOL    HW262055   6.110   0.386   3.548  0.5374  0.1725  0.5864
16693SOL     OW62056   3.227   0.560   2.676 -0.1100 -0.0125  0.6025
16693SOL    HW162057   3.132   0.570   2.663 -0.0903 -1.2901 -0.8737
16693SOL    HW262058   3.238   0.555   2.770 -1.7356 -1.5427  0.7605
16694SOL     OW62059   6.686   9.497   9.469  0.0515 -0.2096 -0.0648
16694SOL    HW162060   6.779   9.473   9.462  0.4060  0.8279  0.7186
16694SOL    HW262061   6.641   9.413   9.481  0.9763 -0.6789  0.3055
16695SOL     OW62062   7.858   7.826   9.018  0.7117  0.3254  0.4092
16695SOL    HW162063   7.807   7.795   9.093  0.3734 -0.4053 -0.1205
16695SOL    HW262064   7.796   7.879   8.968  0.8856  0.6533  0.5362
16696SOL     OW62065   3.814   5.887   1.099 -0.3030 -0.0818 -0.0615
16696SOL    HW162066   3.877   5.869   1.029  0.2878 -1.2253  0.7347
16696SOL    HW262067   3.744   5.824   1.085 -0.9133  0.6621 -0.4698
16697SOL     OW62068   0.729   9.603   4.045  0.2988 -0.0912  1.0281
16697SOL    HW162069   0.657   9.632   4.101  1.2730  1.1135  1.7310
16697SOL    HW262070   0.716   9.650   3.963 -0.3484 -0.7615  0.7461
16698SOL     OW62071   8.969   1.330   9.486  0.2417 -0.5386  0.1284
16698SOL    HW162072   9.038   1.302   9.426 -1.3485 -2.3180 -0.9827
16698SOL    HW262073   9.007   1.403   9.534  3.4392 -2.3493  0.6436
16699SOL     OW62074   3.934  10.382   8.739 -0.3242  0.0868  0.2093
16699SOL    HW162075   3.964  10.324   8.809 -2.1238 -1.0267  0.1010
16699SOL    HW262076   3.913  10.464   8.784  1.3442  0.4004  0.4963
16700SOL     OW62077   7.556   1.758  10.303 -0.4471 -0.0997 -0.2177
16700SOL    HW162078   7.574   1.695  10.233 -1.4894 -0.2346 -0.3891
16700SOL    HW262079   7.551   1.705  10.383  0.1481 -0.0277 -0.1309
16701SOL     OW62080   0.020   4.253   1.304 -0.2064 -0.2837 -0.1782
16701SOL    HW162081   0.002   4.165   1.271  0.0163 -0.1385 -0.7100
16701SOL    HW262082   0.115   4.260   1.304 -0.1831 -0.4347  0.9509
16702SOL     OW62083   6.900   7.775   7.786 -0.5285 -0.8612  0.1615
16702SOL    HW162084   6.812   7.743   7.805 -0.7085 -0.1584  0.5247
16702SOL    HW262085   6.917   7.841   7.853 -0.6756  0.7604 -1.3415
16703SOL     OW62086   0.982   4.884   6.373  0.0248 -0.3302  0.0376
16703SOL    HW162087   1.050   4.914   6.433 -0.6610 -0.5244  0.9410
16703SOL    HW262088   1.010   4.914   6.287  0.3553  1.1398  0.6404
16704SOL     OW62089   0.003   7.604   8.865 -0.3911 -0.5113  0.1108
16704SOL    HW162090  -0.078   7.581   8.819 -0.6110 -0.5982  0.5370
16704SOL    HW262091   0.018   7.530   8.925  0.4141 -0.8580 -0.5011
16705SOL     OW62092  10.349   1.605   0.263  0.2523 -0.3169 -0.2564
16705SOL    HW162093  10.355   1.655   0.345  0.7738 -0.5263 -0.1653
16705SOL    HW262094  10.337   1.514   0.291  0.6414 -0.4157 -0.4104
16706SOL     OW62095   2.947   8.960   6.838  0.2758 -0.0925 -0.5117
16706SOL    HW162096   2.951   8.984   6.746  0.6428  0.9253 -0.2461
16706SOL    HW262097   3.037   8.932   6.859  0.2029 -0.2831 -0.4494
16707SOL     OW62098   3.263   8.414   4.557 -0.0554  0.4951 -0.3455
16707SOL    HW162099   3.292   8.324   4.568  0.0720  0.1893 -2.6522
16707SOL    HW262100   3.340   8.460   4.524 -0.4928  1.1260 -0.4991
16708SOL     OW62101   4.516   5.209   8.664 -0.0383 -0.0868  0.0890
16708SOL    HW162102   4.455   5.137   8.685  1.0672 -0.8063  0.9420
16708SOL    HW262103   4.484   5.243   8.580 -0.7509 -1.4184 -0.2193
16709SOL     OW62104   9.510   7.464   9.847  0.7111  0.4954 -0.8656
16709SOL    HW162105   9.597   7.503   9.840  0.8619  0.4395  0.4490
16709SOL    HW262106   9.452   7.539   9.860  0.8006  0.4192  0.0452
16710SOL     OW62107   6.140   0.923   8.953  0.3601  0.1941 -0.4566
16710SOL    HW162108   6.125   0.852   8.890 -0.9116 -0.5413  0.6249
16710SOL    HW262109   6.234   0.922   8.968  0.4886 -0.6233 -1.1997
16711SOL     OW62110   4.030   6.137   5.628 -0.1087 -0.4877  0.7373
16711SOL    HW162111   4.118   6.147   5.664  0.1604  1.5967 -0.3104
16711SOL    HW262112   3.972   6.142   5.704  0.6030  0.1766  1.2511
16712SOL     OW62113   9.163   9.069   1.051  0.2675  0.2196  0.5828
16712SOL    HW162114   9.221   9.143   1.036 -1.4167  1.6642  0.8901
16712SOL    HW262115   9.166   9.054   1.145 -0.5859  0.9607  0.7432
16713SOL     OW62116   9.029   8.417   8.420  0.4848  0.1720 -0.0989
16713SOL    HW162117   8.940   8.439   8.448  0.1910 -0.7654 -0.2829
16713SOL    HW262118   9.034   8.447   8.329 -1.2408 -3.8826 -1.7346
16714SOL     OW62119   4.205   6.984   9.808  0.2255 -0.0791  0.3665
16714SOL    HW162120   4.293   7.001   9.774  0.8980 -2.1213  0.9337
16714SOL    HW262121   4.168   6.920   9.748 -0.0741 -0.7825  1.2793
16715SOL     OW62122   4.658   7.193   6.971  0.0677  0.1790 -0.2271
16715SOL    HW162123   4.728   7.154   7.024 -0.8106 -1.1091  0.0456
16715SOL    HW262124   4.678   7.287   6.969  0.6766  0.1243  1.5672
16716SOL     OW62125   2.686   1.257   6.022  0.1787 -0.3223  0.3854
16716SOL    HW162126   2.777   1.266   6.049  0.3895  0.3853 -0.5421
16716SOL    HW262127   2.677   1.164   6.001  1.0712 -0.1519 -0.8348
16717SOL     OW62128   4.587   7.860   9.471 -0.6672  0.0314 -0.1802
16717SOL    HW162129   4.536   7.940   9.455  1.8644  1.5494 -1.4247
16717SOL    HW262130   4.556   7.798   9.405 -0.9377  0.9214 -0.9209
16718SOL     OW62131   5.077   6.819   9.190 -0.1186  0.6546 -0.1214
16718SOL    HW162132   5.026   6.805   9.111 -0.3551  1.1541 -0.0614
16718SOL    HW262133   5.016   6.861   9.251  0.5536  1.9422 -0.2974
16719SOL     OW62134   3.351   4.909   0.663  0.0805  0.1697 -0.1160
16719SOL    HW162135   3.267   4.915   0.708 -0.3529  1.0249 -0.9932
16719SOL    HW262136   3.414   4.887   0.732 -0.9688 -1.2946  0.4086
16720SOL     OW62137   0.084   3.640   2.333 -0.2283  0.3153  0.1635
16720SOL    HW162138  -0.007   3.653   2.306 -0.4737  1.5380  1.3977
16720SOL    HW262139   0.133   3.633   2.252 -1.5180 -1.2720 -0.5329
16721SOL     OW62140   3.243   8.220   8.147  0.1350 -0.1904 -0.2826
16721SOL    HW162141   3.270   8.307   8.119  2.9998 -0.9720 -0.2926
16721SOL    HW262142   3.251   8.222   8.243  0.4355 -0.4920 -0.2995
16722SOL     OW62143   3.166   0.465   2.273 -0.1054 -0.0112  0.1242
16722SOL    HW162144   3.227   0.408   2.227 -0.7674 -0.9440  0.3768
16722SOL    HW262145   3.220   0.534   2.311  1.0534 -1.8659  1.9951
16723SOL     OW62146   2.361   1.337   1.008 -0.0039  0.1644 -0.1300
16723SOL    HW162147   2.350   1.362   0.917  0.1894 -2.6907 -1.0263
16723SOL    HW262148   2.286   1.282   1.028 -0.2915  1.1006  1.6207
16724SOL     OW62149   7.302   8.969   8.771  0.3580 -0.7010  0.5340
16724SOL    HW162150   7.325   9.062   8.766  0.8720 -0.8130  0.7188
16724SOL    HW262151   7.206   8.968   8.776  0.1987 -0.2891 -1.7076
16725SOL     OW62152   6.351   1.300   6.842 -0.4784  0.8100  0.1484
16725SOL    HW162153   6.310   1.355   6.909 -1.0788 -0.6931  1.0809
16725SOL    HW262154   6.397   1.232   6.892  1.6493  1.3668 -0.9198
16726SOL     OW62155   0.158   2.945   7.450  0.2493  0.1002 -0.0043
16726SOL    HW162156   0.102   3.022   7.440 -1.0444 -0.6536  1.0177
16726SOL    HW262157   0.213   2.966   7.525 -1.7090 -0.7862  1.8094
16727SOL     OW62158   9.381   8.239   9.604  0.3956  0.3256  0.3947
16727SOL    HW162159   9.394   8.158   9.654  2.7858  0.2889 -0.1870
16727SOL    HW262160   9.419   8.307   9.659 -1.7238  1.1472  0.9422
16728SOL     OW62161   3.333   5.019   7.160  0.2536  0.6185  0.0275
16728SOL    HW162162   3.282   5.069   7.096  2.7690  2.0603 -1.0125
16728SOL    HW262163   3.412   5.071   7.173  0.5460 -0.4082  3.2199
16729SOL     OW62164   2.642   1.267   1.088 -0.0427 -0.0444 -0.3664
16729SOL    HW162165   2.608   1.331   1.150 -0.0490 -0.1334 -0.2781
16729SOL    HW262166   2.682   1.320   1.018 -3.5550  0.2328 -2.3796
16730SOL     OW62167   6.348   8.811   9.442 -0.3893 -0.0127 -0.6879
16730SOL    HW162168   6.416   8.846   9.385  1.1392  1.2330  1.7705
16730SOL    HW262169   6.277   8.876   9.438 -1.4381 -1.1817 -3.0372
16731SOL     OW62170   6.573   2.423   6.258 -0.3358 -0.6137  0.1845
16731SOL    HW162171   6.625   2.349   6.291  0.5190 -0.3961 -0.6390
16731SOL    HW262172   6.485   2.387   6.247  0.0960 -1.5534 -0.3227
16732SOL     OW62173   0.996   6.495   3.274  0.3203  0.0751  0.0469
16732SOL    HW162174   0.902   6.489   3.258  0.3121  0.9205 -0.2934
16732SOL    HW262175   1.004   6.507   3.368 -0.0495  1.9304 -0.1121
16733SOL     OW62176   6.994   3.825   7.250  0.3830  0.0396  0.2274
16733SOL    HW162177   7.049   3.765   7.300  0.5646  1.8172  2.3067
16733SOL    HW262178   7.056   3.886   7.209  0.1358 -0.3582 -0.7709
16734SOL     OW62179   4.516   4.262  10.302 -0.3902  0.2152  0.1425
16734SOL    HW162180   4.589   4.305  10.257  0.7471 -0.3509  1.3709
16734SOL    HW262181   4.556   4.188  10.346 -1.9681 -0.9006 -0.2374
16735SOL     OW62182   4.543   6.629   8.211 -0.1297 -0.0605  0.3335
16735SOL    HW162183   4.597   6.703   8.186 -1.4210  1.3162  1.4388
16735SOL    HW262184   4.534   6.636   8.306 -1.7451 -0.5646  0.2533
16736SOL     OW62185   6.462   6.330   5.186 -0.2958  0.0253 -0.1009
16736SOL    HW162186   6.367   6.318   5.181 -0.3609  0.2158  0.5942
16736SOL    HW262187   6.480   6.402   5.124 -0.5829 -0.1015 -0.3349
16737SOL     OW62188   2.039   0.192   9.404 -0.1740  0.1620 -0.1004
16737SOL    HW162189   2.093   0.231   9.335 -0.7302  1.4684  0.1706
16737SOL    HW262190   2.095   0.126   9.444  0.6472  0.3613 -0.8887
16738SOL     OW62191   3.929   5.616   9.711 -0.1924 -0.1002 -0.5642
16738SOL    HW162192   3.963   5.706   9.711 -0.3327 -0.0012  1.5396
16738SOL    HW262193   3.834   5.626   9.712 -0.2123 -0.2929 -0.5393
16739SOL     OW62194   9.042   9.355   5.623  0.1154 -0.2140 -0.3227
16739SOL    HW162195   9.011   9.274   5.582  0.5639 -1.6102  1.9336
16739SOL    HW262196   9.126   9.373   5.580 -0.0243 -0.8881 -0.8957
16740SOL     OW62197   6.829   2.173   6.685 -0.1807  0.1554  0.2245
16740SOL    HW162198   6.779   2.101   6.648 -1.6604  0.4373  1.5803
16740SOL    HW262199   6.881   2.133   6.755 -2.9204  0.6700  2.7401
16741SOL     OW62200   8.495   6.874   6.300  0.3474 -0.0990 -1.3471
16741SOL    HW162201   8.450   6.941   6.248 -0.4674 -1.0930 -1.9616
16741SOL    HW262202   8.481   6.901   6.391  1.7339  1.6207 -1.6039
16742SOL     OW62203   9.580   3.961   9.441  0.2562  0.0488 -0.2442
16742SOL    HW162204   9.536   3.885   9.478  1.0804 -0.0990  0.4819
16742SOL    HW262205   9.668   3.930   9.419  0.7275  0.8569  0.4058
16743SOL     OW62206   7.438   5.548   2.013 -0.1524 -0.1471  0.3194
16743SOL    HW162207   7.524   5.505   2.014 -0.6324 -1.1584 -0.2691
16743SOL    HW262208   7.384   5.495   2.071 -0.5577  0.0855  0.1592
16744SOL     OW62209   7.290   4.585   6.940 -0.0765  0.0404 -0.4058
16744SOL    HW162210   7.221   4.583   6.874 -1.2286 -2.8396  0.7293
16744SOL    HW262211   7.262   4.653   7.001 -0.9978  0.1161 -0.8925
16745SOL     OW62212   5.264   8.716   8.875  0.2494 -0.2751  0.0897
16745SOL    HW162213   5.200   8.656   8.836 -0.3306 -1.0102  2.0702
16745SOL    HW262214   5.225   8.743   8.958  1.5319  1.0589  0.3088
16746SOL     OW62215   6.554   5.356   8.504  0.2431 -0.0638 -0.7483
16746SOL    HW162216   6.496   5.300   8.556  0.6791 -0.9170 -1.1580
16746SOL    HW262217   6.496   5.394   8.438 -0.2969  0.9653  0.2886
16747SOL     OW62218   1.954   2.869   9.604  0.1692  0.1074 -0.6774
16747SOL    HW162219   1.943   2.900   9.694 -1.2733  0.2301 -0.8706
16747SOL    HW262220   1.925   2.943   9.550 -3.0007 -1.3327 -1.1623
16748SOL     OW62221   8.228   0.420   7.645 -0.1706  0.1057 -0.0050
16748SOL    HW162222   8.226   0.415   7.549 -0.0361  1.1131 -0.0711
16748SOL    HW262223   8.146   0.464   7.668  0.2907  0.8433  0.2616
16749SOL     OW62224   6.393   7.043   2.159  0.5379  0.1338 -0.2067
16749SOL    HW162225   6.459   7.061   2.226  0.5088  2.2282 -0.6611
16749SOL    HW262226   6.428   6.969   2.110  0.7605 -1.1711  1.8181
16750SOL     OW62227   9.391   1.531   7.861  0.1421 -0.3706  0.0542
16750SOL    HW162228   9.383   1.530   7.766 -0.5558  1.9953  0.0059
16750SOL    HW262229   9.484   1.550   7.877  0.0226  0.4682 -0.2063
16751SOL     OW62230   4.704   0.184   0.581  0.7450 -0.3863 -0.7818
16751SOL    HW162231   4.669   0.271   0.563  0.5639 -0.3178 -0.1362
16751SOL    HW262232   4.671   0.162   0.668 -0.7660 -1.9061 -1.6830
16752SOL     OW62233   9.673  10.106   9.676  0.1516 -0.1866  0.3252
16752SOL    HW162234   9.691  10.145   9.591 -1.6509  0.9656  0.4089
16752SOL    HW262235   9.591  10.060   9.665 -0.8488  1.1325  1.7266
16753SOL     OW62236  10.010   3.633   0.477 -0.9537 -0.0014 -0.9007
16753SOL    HW162237   9.941   3.700   0.473  0.0522  0.9778 -2.5606
16753SOL    HW262238  10.020   3.603   0.387  0.2240 -0.7339 -0.5470
16754SOL     OW62239   1.769   8.191   5.383 -0.2464  0.5385  0.0994
16754SOL    HW162240   1.750   8.108   5.341 -0.3880 -0.4311  1.9892
16754SOL    HW262241   1.837   8.231   5.329 -1.7459  0.2609 -2.0852
16755SOL     OW62242   1.176   2.164   1.500 -0.0133  0.3673 -0.2517
16755SOL    HW162243   1.190   2.217   1.422  0.2047 -0.2854 -0.6626
16755SOL    HW262244   1.128   2.087   1.469  1.0968 -0.4637  0.0342
16756SOL     OW62245   9.611   1.790   1.370 -0.5137  0.1530 -0.1922
16756SOL    HW162246   9.611   1.814   1.462  0.5849  1.2708 -0.4579
16756SOL    HW262247   9.678   1.722   1.362  0.6812  1.3163 -0.4353
16757SOL     OW62248   2.681   5.380   2.422 -0.3390  0.7263 -0.5638
16757SOL    HW162249   2.702   5.417   2.508 -1.5937 -2.9572  1.5357
16757SOL    HW262250   2.744   5.421   2.363  0.9324  3.0589  2.1382
16758SOL     OW62251   8.201   1.055   1.734  0.5927 -0.0008  0.2636
16758SOL    HW162252   8.130   1.035   1.796  0.1515 -1.3530 -0.6411
16758SOL    HW262253   8.281   1.034   1.782  0.3263  0.2650  0.8348
16759SOL     OW62254   2.578   5.934   8.742 -0.2029  0.1730  0.2663
16759SOL    HW162255   2.566   5.845   8.776 -0.1335  0.1324  0.1838
16759SOL    HW262256   2.490   5.972   8.744 -0.5862 -0.5452 -1.5251
16760SOL     OW62257   8.008   6.227   5.224 -0.0615  0.5659 -0.4611
16760SOL    HW162258   8.048   6.142   5.206 -1.6765  0.1230 -2.4078
16760SOL    HW262259   8.045   6.285   5.157  0.7101  1.3380  0.5923
16761SOL     OW62260   4.192   5.761   2.696  0.1919  0.5274  0.1634
16761SOL    HW162261   4.163   5.695   2.634  2.7055  0.6765 -1.3083
16761SOL    HW262262   4.286   5.749   2.702  0.1038  0.4976  4.0685
16762SOL     OW62263   2.281   2.394   3.844 -0.0383 -0.1452 -0.2710
16762SOL    HW162264   2.205   2.449   3.861 -2.0485 -2.9793  0.6758
16762SOL    HW262265   2.265   2.355   3.758  1.2108  0.4628 -0.8121
16763SOL     OW62266  10.282   0.460   7.863  0.3724 -0.1467 -0.1086
16763SOL    HW162267  10.277   0.527   7.794 -0.0152 -3.3180 -3.4309
16763SOL    HW262268  10.370   0.471   7.900  0.4279  1.9612 -0.7125
16764SOL     OW62269   9.758   1.905   9.670 -0.0864 -0.0934 -0.0111
16764SOL    HW162270   9.748   1.855   9.751  1.8162 -0.2591  0.1563
16764SOL    HW262271   9.724   1.992   9.692 -1.2938 -0.6443  0.3821
16765SOL     OW62272   6.461  10.264   8.498 -0.5677  0.2373 -0.2772
16765SOL    HW162273   6.549  10.302   8.504 -0.1257  0.2187 -4.0480
16765SOL    HW262274   6.406  10.335   8.465 -1.7483 -0.0895  0.8858
16766SOL     OW62275   9.155   4.656   7.201  0.3480  0.6469  0.1653
16766SOL    HW162276   9.244   4.680   7.228  2.2037 -1.4431 -3.3298
16766SOL    HW262277   9.143   4.697   7.116 -1.4090 -0.4247 -0.1552
16767SOL     OW62278   8.062   4.901   6.134  0.2900 -0.2066  0.2018
16767SOL    HW162279   8.056   4.994   6.114  0.9578  0.0409  1.0940
16767SOL    HW262280   8.147   4.891   6.178  0.2009 -1.2259  0.1724
16768SOL     OW62281   1.287   8.685   4.593  0.0212  0.1227 -0.3846
16768SOL    HW162282   1.313   8.664   4.683 -0.2659  1.4990  0.0515
16768SOL    HW262283   1.236   8.609   4.564 -0.2900 -0.1449  0.7879
16769SOL     OW62284  10.391   2.289   5.892 -0.0327 -0.2684 -0.3497
16769SOL    HW162285  10.328   2.256   5.956  0.4344 -1.0248 -0.2771
16769SOL    HW262286  10.338   2.344   5.834 -0.5362  0.1106  0.4317
16770SOL     OW62287  10.284   1.817   4.094 -0.0247 -0.4519  0.5280
16770SOL    HW162288  10.200   1.850   4.126  0.3624  0.2421  0.8280
16770SOL    HW262289  10.274   1.721   4.098 -0.8750 -0.3827  0.3611
16771SOL     OW62290   6.044   9.687   3.217  0.4398  1.1402 -0.3688
16771SOL    HW162291   5.968   9.674   3.161 -0.6636 -0.9100  1.4685
16771SOL    HW262292   6.119   9.673   3.159 -0.6524 -0.4919 -1.4614
16772SOL     OW62293   0.772   7.231   3.887  1.1233  0.4597 -0.2630
16772SOL    HW162294   0.819   7.281   3.954 -0.9467  1.0716  0.8168
16772SOL    HW262295   0.760   7.145   3.926  1.0072  0.4341 -0.3539
16773SOL     OW62296   4.657   6.201  10.099  0.1355 -0.2769 -0.4063
16773SOL    HW162297   4.646   6.289  10.135  3.7399  0.0351  0.3476
16773SOL    HW262298   4.634   6.142  10.172  3.6393  0.2979  1.3869
16774SOL     OW62299   4.007   0.268   0.582  0.3786 -0.2027 -0.3496
16774SOL    HW162300   4.042   0.275   0.493  1.6146 -0.9324  0.0598
16774SOL    HW262301   3.934   0.331   0.584  0.8735  0.4439 -1.6057
16775SOL     OW62302   6.148   1.338   7.589  0.4791  0.5342 -0.0558
16775SOL    HW162303   6.208   1.400   7.631 -1.2124  1.6171  0.8887
16775SOL    HW262304   6.068   1.388   7.574  0.0662 -0.6242 -2.0636
16776SOL     OW62305   0.144   0.963   2.552  0.4159  0.4210 -0.2013
16776SOL    HW162306   0.182   1.043   2.590 -0.8197  0.7198  0.4564
16776SOL    HW262307   0.199   0.892   2.588 -0.1796  0.7688  1.5021
16777SOL     OW62308   4.295   8.510   4.462  0.3883 -0.2837 -0.4106
16777SOL    HW162309   4.228   8.446   4.438 -0.8299  0.4913  0.8041
16777SOL    HW262310   4.266   8.546   4.545  3.1660 -1.0702  1.0433
16778SOL     OW62311   0.541   3.572   1.881  0.2523  0.2971  0.4102
16778SOL    HW162312   0.622   3.621   1.895 -0.3854  1.1883  1.1262
16778SOL    HW262313   0.475   3.639   1.861 -0.4042 -0.3731  0.2564
16779SOL     OW62314   5.011   4.108   2.460 -0.5716  0.1080 -0.1406
16779SOL    HW162315   5.095   4.153   2.450 -0.1826 -0.4441  0.5603
16779SOL    HW262316   4.954   4.172   2.501  0.3089 -0.3520  1.9258
16780SOL     OW62317   2.801  10.242   6.831  0.3117 -0.7587 -0.4562
16780SOL    HW162318   2.794  10.278   6.919 -1.6960 -0.5155 -0.6673
16780SOL    HW262319   2.857  10.165   6.840  0.3528 -0.5779  0.9554
16781SOL     OW62320   0.179   6.870   2.004  0.2157  0.8129 -0.1706
16781SOL    HW162321   0.107   6.929   1.982  0.2093  0.5849 -0.7717
16781SOL    HW262322   0.140   6.807   2.066  0.6388  2.4055  1.8286
16782SOL     OW62323  10.307   7.241   0.504 -0.1891  0.6758 -0.0912
16782SOL    HW162324  10.368   7.315   0.507  0.0940  0.6066 -2.4318
16782SOL    HW262325  10.220   7.282   0.514  0.0870  0.9157  1.8476
16783SOL     OW62326   4.206   3.198   9.576 -0.2304 -0.3653 -0.0405
16783SOL    HW162327   4.231   3.112   9.608 -0.0502 -0.4322 -0.3623
16783SOL    HW262328   4.214   3.192   9.481 -1.6243 -0.4559 -0.1845
16784SOL     OW62329   4.257   1.131   2.859  0.5703  0.0574  0.3616
16784SOL    HW162330   4.171   1.110   2.822  1.2883  0.3652 -1.6092
16784SOL    HW262331   4.240   1.143   2.952 -1.9193  2.0781 -0.2142
16785SOL     OW62332   2.283   4.295   1.054  0.0305 -0.3803  0.1761
16785SOL    HW162333   2.342   4.232   1.013  1.9899  1.7672 -0.5291
16785SOL    HW262334   2.205   4.296   0.998  0.2084 -1.6885 -0.1271
16786SOL     OW62335   7.046   9.090   3.253  0.5300  0.4615 -0.1576
16786SOL    HW162336   6.966   9.040   3.240  0.4601  0.5279  0.0028
16786SOL    HW262337   7.113   9.024   3.269  0.5831  0.3892 -0.6674
16787SOL     OW62338   0.886   0.448  10.283  0.4838  0.7080 -0.3775
16787SOL    HW162339   0.917   0.456  10.373 -0.2184  1.6820 -0.2065
16787SOL    HW262340   0.806   0.500  10.280 -0.0256 -0.0787 -1.3306
16788SOL     OW62341   7.975   0.104   2.525  0.1203 -0.1525 -0.1079
16788SOL    HW162342   7.991   0.194   2.554  1.2366 -0.7370  1.2235
16788SOL    HW262343   8.037   0.091   2.454  0.4295 -0.0728  0.1425
16789SOL     OW62344   3.208   3.006   9.194 -0.0194  0.4942 -0.1552
16789SOL    HW162345   3.205   3.093   9.155 -0.9708  0.4986 -0.0765
16789SOL    HW262346   3.242   2.950   9.124 -2.6590  0.3202 -1.4088
16790SOL     OW62347   9.050   2.660   8.203 -0.0425 -0.1412 -0.0411
16790SOL    HW162348   9.050   2.729   8.136 -1.8372  0.2407  0.3007
16790SOL    HW262349   9.100   2.698   8.276  2.7059 -0.9040 -1.4263
16791SOL     OW62350   3.859   3.023   8.099  0.1738 -0.0899  0.1039
16791SOL    HW162351   3.905   3.105   8.112 -0.0822 -0.2020  2.0316
16791SOL    HW262352   3.776   3.034   8.145 -0.0888 -1.2287 -0.0581
16792SOL     OW62353   4.296   3.398   5.029  0.1777  0.0658 -0.8619
16792SOL    HW162354   4.290   3.402   5.124 -1.3592  0.3106 -0.9396
16792SOL    HW262355   4.389   3.405   5.010  0.8057 -2.3999  0.7363
16793SOL     OW62356   3.005   8.201   0.986 -0.4089  0.3697  0.2350
16793SOL    HW162357   2.923   8.214   0.939  0.1445  0.0257 -0.8521
16793SOL    HW262358   3.072   8.237   0.928  0.0331  2.8310  2.1074
16794SOL     OW62359   5.350   7.830   7.517 -0.1449 -0.0876 -0.4135
16794SOL    HW162360   5.295   7.752   7.514  2.3972 -2.2030  2.0600
16794SOL    HW262361   5.433   7.803   7.477  0.7830  1.2998  0.4491
16795SOL     OW62362   4.795   7.225   0.402 -0.2413  0.3754 -0.2964
16795SOL    HW162363   4.823   7.209   0.492  0.9030  1.8511 -0.3662
16795SOL    HW262364   4.862   7.282   0.365 -1.2276  0.6373 -1.7724
16796SOL     OW62365   5.904   5.688   8.666  0.3928 -0.3031 -0.0747
16796SOL    HW162366   5.978   5.742   8.693  0.3671  0.5144 -1.5415
16796SOL    HW262367   5.864   5.660   8.749  3.5420 -2.5913  0.8808
16797SOL     OW62368   0.554   8.848   7.107 -0.1643  0.1349  0.7779
16797SOL    HW162369   0.466   8.882   7.124  0.8860  2.4772  2.1010
16797SOL    HW262370   0.569   8.869   7.015  0.0756  2.6134  1.3051
16798SOL     OW62371   8.940   4.694   7.917 -0.2736  0.7047  0.8370
16798SOL    HW162372   8.892   4.694   7.999 -3.1066  1.0683 -0.7068
16798SOL    HW262373   8.906   4.618   7.869  1.3227  0.4938 -0.0396
16799SOL     OW62374   4.609   4.637   7.646  0.0558  0.1163 -0.2946
16799SOL    HW162375   4.608   4.693   7.724  0.4509 -0.3723  0.0647
16799SOL    HW262376   4.542   4.675   7.589  0.3857  1.0203 -0.1043
16800SOL     OW62377   1.545   4.780   9.638 -0.8887 -0.0010  0.0956
16800SOL    HW162378   1.586   4.701   9.674 -1.3280  0.3071  1.3275
16800SOL    HW262379   1.467   4.749   9.593  0.8844 -0.6602 -2.7484
16801SOL     OW62380   0.311   9.563   5.549 -0.3226  0.2687  0.4452
16801SOL    HW162381   0.342   9.473   5.560  1.4364  0.8318  0.3584
16801SOL    HW262382   0.380   9.606   5.499  0.6270  2.5760  3.4411
16802SOL     OW62383   8.931   8.120   9.489 -0.1021 -0.3453  0.2548
16802SOL    HW162384   8.984   8.054   9.534 -2.0655 -1.0173  1.7061
16802SOL    HW262385   8.944   8.200   9.539  1.2844  0.1307 -0.7702
16803SOL     OW62386   3.421   6.936   4.560 -0.3609  0.1224  0.4759
16803SOL    HW162387   3.474   6.988   4.620 -1.4703  1.0716  0.6575
16803SOL    HW262388   3.448   6.966   4.473  0.7447 -0.7641  0.4800
16804SOL     OW62389   8.621   1.569   6.420 -0.3529  0.1172 -0.0735
16804SOL    HW162390   8.567   1.573   6.341 -1.5833 -0.7988  0.6965
16804SOL    HW262391   8.573   1.512   6.480  0.9601  0.1255  1.0425
16805SOL     OW62392   0.092   8.581   3.599 -0.5551 -0.0906  0.2149
16805SOL    HW162393   0.008   8.583   3.645 -1.3095 -2.1846 -0.9323
16805SOL    HW262394   0.141   8.511   3.643  0.2613  0.5488  0.3270
16806SOL     OW62395   7.637   1.961   9.858  0.5514 -0.0622 -0.0088
16806SOL    HW162396   7.593   2.028   9.910 -0.1514 -0.0074 -0.6626
16806SOL    HW262397   7.577   1.943   9.786  1.7807  0.3095 -1.1582
16807SOL     OW62398   6.907   2.316   7.859  0.2402  0.4147 -0.5360
16807SOL    HW162399   6.887   2.385   7.795 -0.6296 -0.2150 -0.9484
16807SOL    HW262400   6.968   2.258   7.813 -0.7747 -0.3148 -0.9924
16808SOL     OW62401   6.161   2.681   5.111  0.1733  0.0771 -0.3275
16808SOL    HW162402   6.116   2.723   5.184 -0.7642 -0.2639 -0.6859
16808SOL    HW262403   6.244   2.728   5.103 -0.6011  1.5082 -0.3769
16809SOL     OW62404   9.430   9.322   3.760 -0.4427 -0.4140 -0.0076
16809SOL    HW162405   9.502   9.316   3.697 -0.4884  0.1729 -0.1173
16809SOL    HW262406   9.457   9.265   3.832 -0.8158 -1.8513 -0.9627
16810SOL     OW62407   5.385   2.678   5.103  0.6111 -0.0092 -0.2506
16810SOL    HW162408   5.340   2.604   5.142 -0.8309  1.1983  0.5116
16810SOL    HW262409   5.478   2.659   5.113  0.2680 -1.0233  1.2816
16811SOL     OW62410   8.026   6.068   7.983  0.3136 -0.1247 -0.0971
16811SOL    HW162411   7.972   6.042   8.057 -1.7232 -0.3503 -1.5763
16811SOL    HW262412   8.047   5.986   7.939  3.0774 -0.2000  1.1349
16812SOL     OW62413   6.179   7.868   4.027 -0.3045 -0.0370  0.2890
16812SOL    HW162414   6.221   7.954   4.026  0.0820 -0.2245  0.4392
16812SOL    HW262415   6.249   7.807   4.006 -0.3151 -0.4334  1.3634
16813SOL     OW62416   9.054   3.499   9.656 -0.4881  0.0907  0.4220
16813SOL    HW162417   9.059   3.411   9.695 -0.9869 -0.0088  0.2742
16813SOL    HW262418   9.118   3.497   9.585  1.0216  0.5370  1.7130
16814SOL     OW62419   9.348   7.935   7.252 -0.3209  0.3824  0.0021
16814SOL    HW162420   9.325   7.877   7.325  0.7907 -0.1542 -0.0525
16814SOL    HW262421   9.298   8.015   7.268 -0.7498 -0.0489  0.8785
16815SOL     OW62422   9.097   7.701   3.746 -0.1214  0.1454 -0.3486
16815SOL    HW162423   9.191   7.699   3.767 -0.6568 -1.8276  2.3504
16815SOL    HW262424   9.063   7.773   3.799 -0.5510 -1.0607  1.0699
16816SOL     OW62425   4.256   8.201   1.509  0.2714 -0.2003  0.2824
16816SOL    HW162426   4.236   8.197   1.415  1.6411  1.5705 -0.1346
16816SOL    HW262427   4.228   8.288   1.536  2.7005  0.5038  0.7614
16817SOL     OW62428   9.911   3.164   2.240  0.4664  0.2320 -0.5692
16817SOL    HW162429   9.972   3.096   2.212  1.8884  1.1352  0.2252
16817SOL    HW262430   9.958   3.212   2.309 -1.3209  0.6791  0.4049
16818SOL     OW62431   5.762   5.265   7.111 -0.7435  0.0683 -0.2634
16818SOL    HW162432   5.784   5.329   7.178  1.3541 -0.0665 -0.7549
16818SOL    HW262433   5.743   5.185   7.159 -0.8319  0.3868  0.2316
16819SOL     OW62434   1.582   1.101   0.710  0.4420 -0.3254  0.3385
16819SOL    HW162435   1.634   1.021   0.703 -1.4184 -1.5856 -0.0519
16819SOL    HW262436   1.605   1.139   0.795  1.6152 -1.0858  0.3684
16820SOL     OW62437   4.921   9.628   6.053 -0.0370  0.4772  0.1221
16820SOL    HW162438   5.014   9.646   6.068  0.5908 -1.4192 -1.1155
16820SOL    HW262439   4.881   9.633   6.140  1.4425  0.1780  0.8444
16821SOL     OW62440   5.482   0.871   4.177  0.3757 -0.4495  0.1345
16821SOL    HW162441   5.443   0.845   4.261 -0.2720  1.3603  0.4392
16821SOL    HW262442   5.522   0.791   4.143 -2.9344 -2.2538  0.1449
16822SOL     OW62443   4.548   7.383   1.312  0.0662 -0.3622  0.2102
16822SOL    HW162444   4.595   7.459   1.346  0.5486  0.5645 -2.2869
16822SOL    HW262445   4.614   7.315   1.305  0.4719  0.1094 -0.7845
16823SOL     OW62446   8.584   6.956   9.313  0.2236 -0.2937  0.0156
16823SOL    HW162447   8.656   6.898   9.287  0.5903  0.2299 -0.1508
16823SOL    HW262448   8.615   6.998   9.393  0.8801  1.2992 -1.0266
16824SOL     OW62449   9.809   4.416   3.627  0.4144  0.0175 -0.1469
16824SOL    HW162450   9.817   4.340   3.570 -1.4190  1.5219 -2.6069
16824SOL    HW262451   9.724   4.406   3.669 -0.1597  0.9927 -1.0283
16825SOL     OW62452   2.527   8.319   7.665 -0.2484  0.3516 -0.1989
16825SOL    HW162453   2.532   8.292   7.757 -0.0076  1.2280  0.0608
16825SOL    HW262454   2.437   8.350   7.654  0.1903  1.8501  0.2289
16826SOL     OW62455   2.011   1.135  10.103 -0.1687  0.6291  0.4851
16826SOL    HW162456   2.086   1.111  10.048  0.9802  0.1163  2.1717
16826SOL    HW262457   1.935   1.124  10.047  0.9368 -0.0206 -0.9401
16827SOL     OW62458  10.105   1.876   6.205 -0.5450  0.1106 -0.0746
16827SOL    HW162459  10.065   1.846   6.123  0.4550  0.3785 -0.6694
16827SOL    HW262460  10.064   1.821   6.272 -0.3248 -1.1054 -0.9094
16828SOL     OW62461   9.073   9.054   2.201  0.8425  0.3756  0.0064
16828SOL    HW162462   9.167   9.035   2.211  0.3023 -2.7416  0.1652
16828SOL    HW262463   9.037   9.045   2.289  0.1795  0.1236 -0.2826
16829SOL     OW62464   8.693   8.908  10.156  0.3018 -0.1172 -0.4375
16829SOL    HW162465   8.775   8.953  10.138  1.1010 -1.2499  0.2062
16829SOL    HW262466   8.675   8.928  10.248  0.0663 -0.1738 -0.4708
16830SOL     OW62467   0.771   5.653   5.957  0.3703 -0.0761 -0.3954
16830SOL    HW162468   0.707   5.586   5.933  0.7450 -0.1496 -1.2243
16830SOL    HW262469   0.828   5.660   5.880  0.2446  1.3009 -0.3906
16831SOL     OW62470   4.716   7.274   7.635 -0.1139 -0.6418 -0.1722
16831SOL    HW162471   4.741   7.308   7.549 -1.5718 -0.8387 -0.6974
16831SOL    HW262472   4.780   7.313   7.696 -0.9136  2.0101 -0.9141
16832SOL     OW62473   4.358   8.919   9.881 -0.2870 -0.1041 -0.2588
16832SOL    HW162474   4.334   8.882   9.796  1.3988  1.5786 -1.5399
16832SOL    HW262475   4.275   8.940   9.923 -1.1430 -0.7573 -1.5854
16833SOL     OW62476   2.791   6.030   5.888 -0.1126 -0.0924 -0.9566
16833SOL    HW162477   2.754   6.116   5.908 -0.7756 -0.3782 -0.9465
16833SOL    HW262478   2.724   5.967   5.914  0.7817 -0.6753  0.0564
16834SOL     OW62479   2.187   1.809   2.794  0.1751 -0.6308 -0.0159
16834SOL    HW162480   2.250   1.879   2.810 -1.8762  2.1207 -2.7677
16834SOL    HW262481   2.226   1.757   2.724  0.2813 -0.2029 -0.2771
16835SOL     OW62482   8.858   8.379   2.018 -0.9969  0.3576  0.8873
16835SOL    HW162483   8.816   8.398   2.102 -2.3048  1.2237  0.0702
16835SOL    HW262484   8.925   8.448   2.009  0.2365 -0.6484  1.8927
16836SOL     OW62485   6.005  10.139   0.068 -0.1325 -0.6733  0.5193
16836SOL    HW162486   6.060  10.063   0.051 -0.4725 -0.8435  0.1380
16836SOL    HW262487   5.965  10.121   0.153  0.4708 -0.5017  0.8414
16837SOL     OW62488   5.071   2.840   7.760  0.7094  0.3161  0.2466
16837SOL    HW162489   5.089   2.783   7.835  1.6655  1.3651  0.8555
16837SOL    HW262490   5.153   2.889   7.748 -0.0998  1.6078 -0.1972
16838SOL     OW62491  10.388   6.388   9.717  0.1780  0.1994  0.1045
16838SOL    HW162492  10.463   6.346   9.757 -0.8513 -1.5901  0.2754
16838SOL    HW262493  10.423   6.432   9.640  1.3716 -0.8254  0.0279
16839SOL     OW62494   0.869   3.257   0.892 -0.0953 -0.2254 -0.3018
16839SOL    HW162495   0.888   3.233   0.983  0.7133 -0.9911 -0.6515
16839SOL    HW262496   0.898   3.348   0.884  1.1559 -0.5920 -0.1481
16840SOL     OW62497   0.845   2.638   7.096 -0.0614  0.1839  0.0773
16840SOL    HW162498   0.837   2.548   7.066  0.4569  0.2483 -0.2805
16840SOL    HW262499   0.761   2.658   7.138  0.7782 -1.3819  2.7282
16841SOL     OW62500   4.249   7.915   4.750 -0.0709  0.0487 -0.1191
16841SOL    HW162501   4.188   7.867   4.694 -0.6722 -1.2379  1.5604
16841SOL    HW262502   4.205   7.997   4.771 -0.5057 -0.1512 -0.2566
16842SOL     OW62503   6.569   6.250   7.680  0.2230  1.0578  0.0176
16842SOL    HW162504   6.533   6.236   7.767 -0.7314  2.2544 -0.1583
16842SOL    HW262505   6.660   6.278   7.696  0.6949 -0.6546  0.5176
16843SOL     OW62506   6.255   2.027   7.486 -0.2584 -0.1332 -0.2821
16843SOL    HW162507   6.172   2.070   7.509 -0.1298  0.5856 -1.1240
16843SOL    HW262508   6.279   2.065   7.402  0.8780 -0.4165 -0.0977
16844SOL     OW62509   8.894   5.515   3.552  0.5723  0.1751  0.6129
16844SOL    HW162510   8.948   5.446   3.513  0.5013  0.8617 -0.7706
16844SOL    HW262511   8.924   5.521   3.642  0.7200 -1.5170  0.7134
16845SOL     OW62512   9.895   9.986   3.017 -0.9884 -0.3613 -0.0131
16845SOL    HW162513   9.919   9.961   2.928  0.3946  0.2605  0.1657
16845SOL    HW262514   9.821  10.046   3.006 -0.6008 -0.0144 -0.7659
16846SOL     OW62515   9.071   7.950   0.888 -0.1227  0.0211 -0.3362
16846SOL    HW162516   9.121   7.996   0.956 -0.8266 -1.4947  1.2702
16846SOL    HW262517   9.053   7.864   0.926 -0.2567 -1.0118 -2.5990
16847SOL     OW62518   1.163   0.975   4.177 -0.3117 -0.2461 -0.1600
16847SOL    HW162519   1.107   1.012   4.109 -0.8327 -1.4368 -0.4083
16847SOL    HW262520   1.225   0.919   4.130 -0.8856 -1.3405  0.3576
16848SOL     OW62521   7.229   5.627  10.055  0.3883  0.2067  0.1465
16848SOL    HW162522   7.223   5.694   9.987  0.5162 -0.1518 -0.2226
16848SOL    HW262523   7.322   5.604  10.057  0.5022  0.7264  0.9442
16849SOL     OW62524   5.695   1.717   2.198 -0.8078  0.5161  0.2326
16849SOL    HW162525   5.703   1.799   2.248  1.1947  0.8883 -0.6081
16849SOL    HW262526   5.758   1.726   2.127 -2.5678 -0.6133 -1.5464
16850SOL     OW62527   1.911   1.232   0.797  0.3919  0.0088 -0.3730
16850SOL    HW162528   1.943   1.175   0.727 -0.1976 -0.4200 -0.3091
16850SOL    HW262529   1.850   1.176   0.847  0.5978  0.3903  0.3151
16851SOL     OW62530   7.516   9.492   8.791  0.3266 -0.0262 -0.1950
16851SOL    HW162531   7.520   9.449   8.877  1.4793  0.0124 -0.2244
16851SOL    HW262532   7.494   9.583   8.811  0.2207 -0.0991  0.0277
16852SOL     OW62533   6.479  10.199   4.672 -0.7446  0.4471  0.6434
16852SOL    HW162534   6.479  10.106   4.651 -0.2161  0.6416 -0.2777
16852SOL    HW262535   6.571  10.225   4.667 -0.9802  1.1949  0.0570
16853SOL     OW62536   7.467   7.062   7.925  0.2589 -0.4512  0.1201
16853SOL    HW162537   7.425   7.137   7.883 -1.7887 -2.4147 -1.6223
16853SOL    HW262538   7.424   7.054   8.010  0.5452  0.3686  0.3470
16854SOL     OW62539   7.080   5.657   8.875  0.2749 -0.4703 -0.5974
16854SOL    HW162540   7.103   5.620   8.789 -1.1374 -0.3547 -1.0633
16854SOL    HW262541   6.991   5.692   8.862 -0.3612 -1.3193  1.1739
16855SOL     OW62542   9.962   2.209   7.540  0.2718  0.4586 -0.1579
16855SOL    HW162543  10.024   2.206   7.467 -0.1082 -1.1776 -0.4386
16855SOL    HW262544   9.879   2.182   7.502  0.4995 -2.6323  1.2486
16856SOL     OW62545   6.188   2.499   9.464 -0.3997 -0.2123 -0.2826
16856SOL    HW162546   6.234   2.515   9.382 -2.6695 -1.3057 -1.8782
16856SOL    HW262547   6.188   2.584   9.508  1.8580  0.1425 -0.8073
16857SOL     OW62548   7.027   3.236   3.815 -0.1181 -0.1180  0.1185
16857SOL    HW162549   7.070   3.319   3.833 -1.3377  0.5720 -0.0349
16857SOL    HW262550   6.934   3.255   3.824 -0.6829 -0.5202 -3.4414
16858SOL     OW62551   1.874   4.801   7.208 -0.0098  0.9050 -0.1357
16858SOL    HW162552   1.889   4.894   7.194  0.4190  0.8144 -0.3166
16858SOL    HW262553   1.959   4.760   7.191 -0.3341  0.4169 -0.6441
16859SOL     OW62554   1.992   3.273   4.223  0.0296  0.3950 -0.6229
16859SOL    HW162555   1.957   3.255   4.135  1.6044  2.4511 -1.7704
16859SOL    HW262556   1.931   3.338   4.259 -0.2530  0.0404 -0.4592
16860SOL     OW62557   9.858  10.070   0.170  0.1098  0.0345 -0.1484
16860SOL    HW162558   9.809   9.992   0.145 -2.4332  1.4973  0.0027
16860SOL    HW262559   9.857  10.069   0.266  0.5173  0.0046 -0.1427
16861SOL     OW62560   0.417   5.317   5.104 -0.2781  0.3778 -0.8696
16861SOL    HW162561   0.467   5.249   5.058 -1.0032 -1.0495  0.3614
16861SOL    HW262562   0.333   5.319   5.059 -0.7036 -0.4618 -0.1522
16862SOL     OW62563   4.738   1.233   6.131 -0.0804 -0.8147 -0.0217
16862SOL    HW162564   4.722   1.322   6.099  2.0379 -0.5426 -0.4314
16862SOL    HW262565   4.652   1.191   6.129 -0.9509  0.9212 -0.7418
16863SOL     OW62566   0.682   7.443   2.394  0.2056 -0.0893 -0.2060
16863SOL    HW162567   0.657   7.496   2.470 -0.5539 -2.0762  1.0062
16863SOL    HW262568   0.775   7.426   2.406  0.5049  1.0475 -0.7074
16864SOL     OW62569   5.317   4.118   4.996 -0.1967  0.3770  0.2505
16864SOL    HW162570   5.311   4.052   5.065 -1.1787 -1.9034 -1.8441
16864SOL    HW262571   5.229   4.156   4.991 -0.9577 -1.4277 -1.4291
16865SOL     OW62572   9.505   2.167  10.294  0.2980  0.0306  0.3141
16865SOL    HW162573   9.539   2.208  10.374  2.0943 -0.4519 -0.1468
16865SOL    HW262574   9.460   2.088  10.326 -0.6442  0.8033  0.9675
16866SOL     OW62575   9.363   6.084   9.562 -0.1069 -0.0132  0.1664
16866SOL    HW162576   9.270   6.083   9.540  0.4909 -0.6523 -2.7874
16866SOL    HW262577   9.407   6.082   9.477  2.6116 -1.4419  1.5036
16867SOL     OW62578   9.709   0.833   5.622  0.2353  0.5190 -0.0393
16867SOL    HW162579   9.737   0.838   5.531 -0.4912  0.2140 -0.2876
16867SOL    HW262580   9.765   0.895   5.668  0.0511  1.2872 -0.8356
16868SOL     OW62581   9.591  10.045   0.012  0.0532  0.1301  0.0243
16868SOL    HW162582   9.625   9.957   0.026  0.6427  0.1807 -0.9910
16868SOL    HW262583   9.497  10.034  -0.002 -0.3513 -0.0609  2.4049
16869SOL     OW62584   3.751   3.900   8.131 -0.3457 -0.0129 -0.2402
16869SOL    HW162585   3.817   3.970   8.133  0.2005 -0.5213  1.4047
16869SOL    HW262586   3.784   3.838   8.066  0.1155  0.3830 -0.3917
16870SOL     OW62587   5.540   4.470   5.108  0.5594 -0.3446 -0.2824
16870SOL    HW162588   5.573   4.430   5.189  0.5508 -0.3219 -0.2674
16870SOL    HW262589   5.450   4.495   5.129  0.5752 -0.2890 -0.2818
16871SOL     OW62590  10.312   0.994   2.752  0.0156 -0.4245  0.3631
16871SOL    HW162591  10.383   0.984   2.689  1.4841  1.3734  1.6333
16871SOL    HW262592  10.234   1.010   2.698  1.2721  1.3814 -1.0402
16872SOL     OW62593   3.148   8.025   1.135  0.2403 -0.1148  0.3645
16872SOL    HW162594   3.121   8.052   1.223 -1.1162 -0.6732  0.1431
16872SOL    HW262595   3.111   8.092   1.077 -1.8668 -1.5328 -0.0551
16873SOL     OW62596   0.314   9.882   7.793  0.8045  0.3329 -0.7982
16873SOL    HW162597   0.317   9.840   7.706 -0.2543  0.1579 -0.7550
16873SOL    HW262598   0.398   9.859   7.832  0.4734 -1.3382 -0.9878
16874SOL     OW62599   0.921   5.050   0.176  0.1336 -0.1049 -0.6682
16874SOL    HW162600   0.837   5.050   0.221 -0.1092 -0.9418 -1.0994
16874SOL    HW262601   0.932   5.140   0.145  0.0973  0.3759  0.6414
16875SOL     OW62602   5.989   0.544   7.356  0.0698 -0.0219 -0.2997
16875SOL    HW162603   5.969   0.485   7.284 -0.9491 -1.1205  0.8451
16875SOL    HW262604   5.952   0.628   7.329 -0.2162 -0.3943 -1.0970
16876SOL     OW62605   8.546   7.022   6.003  0.8344  0.6147  0.1661
16876SOL    HW162606   8.543   7.096   5.942 -0.6510 -0.7942 -1.6266
16876SOL    HW262607   8.492   7.049   6.077 -1.6745  0.5531 -1.5221
16877SOL     OW62608   1.055   8.632   0.091  0.3631  0.1290 -0.0726
16877SOL    HW162609   1.117   8.700   0.117  0.6141 -0.6503  1.4989
16877SOL    HW262610   1.068   8.562   0.155 -2.5403  0.1987  0.7402
16878SOL     OW62611   2.360   1.256   9.035  0.1526 -0.0525  0.0368
16878SOL    HW162612   2.426   1.187   9.045 -0.1452 -0.8094 -2.4999
16878SOL    HW262613   2.390   1.308   8.960  0.3140  2.6019  1.8064
16879SOL     OW62614  10.229   5.723   0.610  0.2085 -0.1709  0.0508
16879SOL    HW162615  10.253   5.659   0.543  1.2400 -0.0080  0.2550
16879SOL    HW262616  10.210   5.803   0.562  0.1016 -0.2951 -0.1136
16880SOL     OW62617  10.229   6.804   3.573  0.1677  0.1827  0.5815
16880SOL    HW162618  10.251   6.711   3.574  1.4458  0.4738  0.9570
16880SOL    HW262619  10.203   6.823   3.663 -2.5264 -0.3240 -0.0013
16881SOL     OW62620   3.508   6.514   0.751  0.3146 -0.2960 -0.2382
16881SOL    HW162621   3.513   6.514   0.846 -1.4188  0.8778 -0.1152
16881SOL    HW262622   3.581   6.570   0.724  0.9888 -0.8612  0.3550
16882SOL     OW62623   8.249   7.363   1.469  0.1602 -0.6811  0.3412
16882SOL    HW162624   8.257   7.307   1.546 -3.3402 -0.3943  1.1182
16882SOL    HW262625   8.228   7.302   1.397  2.3517 -0.8451 -0.2122
16883SOL     OW62626   4.324   7.457   9.235 -0.1827 -0.3928 -0.6878
16883SOL    HW162627   4.265   7.388   9.205  0.2085 -1.4176  0.7340
16883SOL    HW262628   4.309   7.530   9.176 -4.1401  0.0550  0.6096
16884SOL     OW62629   2.632   4.155   4.884  0.0211 -0.0633 -0.0346
16884SOL    HW162630   2.564   4.209   4.844 -0.9007 -0.5727  0.8105
16884SOL    HW262631   2.612   4.066   4.855  0.3011 -0.2196  0.2478
16885SOL     OW62632   2.182   2.464   6.237 -0.6933  0.3875  0.0347
16885SOL    HW162633   2.215   2.546   6.200 -0.6563  0.0911 -0.5980
16885SOL    HW262634   2.179   2.480   6.332 -2.8557  1.9176 -0.2364
16886SOL     OW62635   3.748   7.008   5.257 -0.1591  0.0826 -0.1503
16886SOL    HW162636   3.716   7.090   5.294  1.2668  1.4809 -1.8623
16886SOL    HW262637   3.838   7.001   5.287 -0.7009 -1.6970  1.2339
16887SOL     OW62638   3.359   7.895   1.030 -0.3653  0.7977 -0.4363
16887SOL    HW162639   3.297   7.952   1.074  1.4104  1.5421  1.2714
16887SOL    HW262640   3.444   7.916   1.070  0.8284 -0.9420 -1.8612
16888SOL     OW62641   5.573   9.166   0.886  0.0592 -0.3244  0.2475
16888SOL    HW162642   5.666   9.161   0.905 -0.1296  0.8252  1.5816
16888SOL    HW262643   5.539   9.080   0.913  0.2212  0.3711  2.9649
16889SOL     OW62644   5.480   1.374   8.453  0.2466  0.0395  0.0813
16889SOL    HW162645   5.431   1.449   8.487  2.4183  2.1629 -1.1625
16889SOL    HW262646   5.565   1.378   8.495  0.6929 -1.2883 -0.6037
16890SOL     OW62647   0.704   6.620   4.125 -0.4176 -0.1472 -0.4590
16890SOL    HW162648   0.653   6.683   4.175 -1.2505  0.5762 -2.1627
16890SOL    HW262649   0.646   6.544   4.117 -0.3181 -0.2292 -0.4003
16891SOL     OW62650   1.084   2.330  10.353  0.8634  0.3607  0.2844
16891SOL    HW162651   1.100   2.382  10.432  2.6267  0.4540 -0.0829
16891SOL    HW262652   1.096   2.239  10.381  1.1723  0.3739  0.1983
16892SOL     OW62653   6.482   2.091   6.462 -0.4511 -0.2085 -0.5348
16892SOL    HW162654   6.563   2.121   6.420 -1.0388  0.7617 -1.0238
16892SOL    HW262655   6.443   2.032   6.397 -0.7906  0.3865 -0.8832
16893SOL     OW62656   7.093   0.340   6.242 -0.3378 -0.0658 -0.2119
16893SOL    HW162657   7.064   0.264   6.192  1.2258 -1.2479  0.5739
16893SOL    HW262658   7.103   0.409   6.177 -1.2418 -0.6959 -1.0450
16894SOL     OW62659   3.809   6.514   0.333  0.1682  0.1838 -0.1144
16894SOL    HW162660   3.759   6.479   0.408  1.2692 -0.3650  0.3987
16894SOL    HW262661   3.899   6.521   0.366  0.4250  1.2319 -0.9843
16895SOL     OW62662   7.832   0.124   5.005 -0.6156  0.5692 -0.3455
16895SOL    HW162663   7.924   0.147   5.017 -0.2321 -1.0490  0.1169
16895SOL    HW262664   7.789   0.151   5.086 -0.1307 -0.5059  0.2906
16896SOL     OW62665   8.035   5.560   8.860  0.1438 -0.1497 -0.3231
16896SOL    HW162666   8.124   5.526   8.871  0.2037 -0.0774 -0.5763
16896SOL    HW262667   7.997   5.504   8.792  0.7143  1.1639 -1.7994
16897SOL     OW62668   3.446   2.990   7.618  0.3053  0.2162  0.0651
16897SOL    HW162669   3.501   2.974   7.542 -0.3125  0.0062 -0.3459
16897SOL    HW262670   3.411   2.904   7.642 -0.3232  0.4329 -0.0540
16898SOL     OW62671   3.480   1.666   4.777  0.3300 -0.1125 -0.3891
16898SOL    HW162672   3.447   1.580   4.802 -2.3780  1.1911  1.1492
16898SOL    HW262673   3.545   1.687   4.844  0.8997 -0.8671 -0.6912
16899SOL     OW62674   3.757   8.162   1.339  0.2950 -0.5548  0.0946
16899SOL    HW162675   3.731   8.099   1.407  1.7951 -0.0593  1.1943
16899SOL    HW262676   3.835   8.124   1.300  1.5321  0.8076  1.1331
16900SOL     OW62677   9.124   7.597   7.226 -0.8769  0.5511 -0.0978
16900SOL    HW162678   9.160   7.668   7.172  1.8228  1.0681  2.1958
16900SOL    HW262679   9.191   7.529   7.225 -0.3146  0.8951  3.0942
16901SOL     OW62680   3.288   4.124   0.013  0.3362  0.9868  0.6428
16901SOL    HW162681   3.225   4.094  -0.052  0.0670  0.2568  1.2261
16901SOL    HW262682   3.245   4.110   0.097  1.9976 -1.4863  1.1964
16902SOL     OW62683   3.805   8.335   7.634 -0.1611 -0.1922 -0.2821
16902SOL    HW162684   3.885   8.389   7.630  0.2986 -0.9500 -2.1401
16902SOL    HW262685   3.736   8.398   7.654  0.8654  0.4721  1.5058
16903SOL     OW62686   7.866   4.304   4.347 -0.0775  0.1294  0.3397
16903SOL    HW162687   7.951   4.270   4.319  0.7303  1.5528  0.9804
16903SOL    HW262688   7.834   4.353   4.271  0.7333  1.4562  0.8061
16904SOL     OW62689   0.057   3.777   6.177 -0.1256  0.1430 -0.0693
16904SOL    HW162690  -0.002   3.708   6.146 -0.1851 -0.0798  0.5292
16904SOL    HW262691   0.060   3.840   6.104 -0.1087 -0.4596 -0.5986
16905SOL     OW62692   2.503   2.706   6.608  0.1150 -0.1790 -0.0550
16905SOL    HW162693   2.438   2.648   6.569  0.6147  0.1102 -1.3702
16905SOL    HW262694   2.576   2.648   6.630  0.7096 -0.0697 -1.5799
16906SOL     OW62695   6.417   1.647  10.087  0.3166 -0.1751  0.0559
16906SOL    HW162696   6.347   1.596  10.128 -0.7488  0.9456 -0.3052
16906SOL    HW262697   6.476   1.581  10.050 -1.2535 -1.1689 -0.7866
16907SOL     OW62698  10.057   8.221   0.526  0.1257 -0.3451 -0.0722
16907SOL    HW162699  10.055   8.272   0.445  0.9484  1.0649  0.7695
16907SOL    HW262700  10.081   8.132   0.497  0.1138  0.0659 -1.4048
16908SOL     OW62701   7.109   2.482   7.961  0.6471 -0.6210 -0.4213
16908SOL    HW162702   7.040   2.420   7.937  1.9098 -2.2357  0.0049
16908SOL    HW262703   7.139   2.517   7.877 -1.4050  0.9676 -0.5627
16909SOL     OW62704   7.899   0.784   3.174 -0.4879  0.3923  0.2399
16909SOL    HW162705   7.871   0.714   3.233 -0.8959  0.3914  0.0483
16909SOL    HW262706   7.985   0.756   3.143  0.2110  0.9020  1.6540
16910SOL     OW62707   8.088   5.710   7.801  0.4991 -0.1695  0.4130
16910SOL    HW162708   8.166   5.757   7.831 -0.0391  0.8726  0.2050
16910SOL    HW262709   8.062   5.656   7.876  0.6050  0.5355  0.9606
16911SOL     OW62710   8.198  10.307   9.000 -0.0796  0.0114  0.5348
16911SOL    HW162711   8.227  10.249   8.930  0.3604  0.7198  0.1185
16911SOL    HW262712   8.155  10.380   8.955  2.6936  1.9188  0.7659
16912SOL     OW62713   1.862   8.750   4.554 -0.6820 -0.4685 -0.4558
16912SOL    HW162714   1.900   8.663   4.554 -0.5953 -0.4348 -0.7743
16912SOL    HW262715   1.827   8.762   4.642 -0.5634 -0.7661 -0.3676
16913SOL     OW62716   5.976   7.861   9.029 -0.0871 -0.3421  0.0407
16913SOL    HW162717   5.937   7.820   9.107 -1.6699 -0.9741 -1.0311
16913SOL    HW262718   5.904   7.865   8.966  1.7162 -2.1308 -2.2874
16914SOL     OW62719   2.980   7.125   6.528 -0.4542  0.1058 -0.2934
16914SOL    HW162720   2.913   7.185   6.563 -0.3038  1.0723 -1.5835
16914SOL    HW262721   3.043   7.182   6.484  1.1225 -0.8154  0.6973
16915SOL     OW62722   5.952   7.036   9.222  0.5798 -0.3155 -0.8621
16915SOL    HW162723   5.962   6.952   9.176  1.5417 -0.7958  0.1566
16915SOL    HW262724   5.978   7.016   9.312 -1.2669  0.5933 -0.0926
16916SOL     OW62725  10.308   8.666   9.884 -0.7038  0.0760  0.2103
16916SOL    HW162726  10.275   8.702   9.967 -0.7218 -1.2491  0.7972
16916SOL    HW262727  10.393   8.629   9.907  0.0677  1.1653 -0.7420
16917SOL     OW62728   3.053   5.405   2.450 -0.1684 -0.1808 -0.4324
16917SOL    HW162729   2.996   5.330   2.468 -0.0754 -0.1805 -0.1380
16917SOL    HW262730   3.014   5.447   2.373 -0.2517 -0.4992 -0.5672
16918SOL     OW62731   0.833   2.238   0.297  0.3301 -0.1280  0.5119
16918SOL    HW162732   0.921   2.202   0.304  0.1557 -0.4917  0.8398
16918SOL    HW262733   0.782   2.168   0.257  0.2100  0.1208  0.2259
16919SOL     OW62734   2.441   3.562   5.860 -0.3809  0.1027 -0.0325
16919SOL    HW162735   2.536   3.567   5.859 -0.3892  0.2246 -0.1811
16919SOL    HW262736   2.414   3.583   5.771 -0.5314 -0.2628 -0.0756
16920SOL     OW62737   6.457   5.485   6.201 -0.0534 -0.0315  0.2484
16920SOL    HW162738   6.406   5.513   6.124  1.4239 -0.0816 -0.7899
16920SOL    HW262739   6.428   5.543   6.271 -1.6308 -0.1532 -0.2612
16921SOL     OW62740   0.910   5.750   5.745  0.0978  0.5546 -0.5634
16921SOL    HW162741   0.949   5.837   5.740 -0.4733  1.0665  2.1914
16921SOL    HW262742   0.850   5.746   5.671  1.4087  1.7867 -1.7510
16922SOL     OW62743   0.048   1.923   0.065  0.0192  0.7783  0.0271
16922SOL    HW162744   0.059   1.867   0.141 -0.2522 -1.9412 -1.7899
16922SOL    HW262745  -0.047   1.931   0.054  0.0345  0.1046 -0.6968
16923SOL     OW62746   2.181   6.674   5.199 -0.3698  0.3860 -0.2391
16923SOL    HW162747   2.103   6.730   5.197  0.1522  1.1323 -0.0161
16923SOL    HW262748   2.191   6.644   5.109 -0.1794  1.3452 -0.5589
16924SOL     OW62749   3.810   7.031   3.865 -0.6259  0.0555 -1.1499
16924SOL    HW162750   3.796   7.034   3.960  0.2162 -1.7427 -0.9285
16924SOL    HW262751   3.874   7.100   3.848  1.4923 -1.5064  0.0687
16925SOL     OW62752   1.585   5.625   7.390 -0.6291  0.2474 -0.7176
16925SOL    HW162753   1.563   5.717   7.374  0.5636  0.6901  0.0363
16925SOL    HW262754   1.674   5.616   7.356 -0.8741 -0.7344 -1.1118
16926SOL     OW62755   5.151   9.344   4.958  0.0294  0.1040  0.1337
16926SOL    HW162756   5.072   9.293   4.945  0.0306 -0.1965  1.1836
16926SOL    HW262757   5.220   9.295   4.913  0.0169 -0.8086  1.0776
16927SOL     OW62758   8.955  10.175   5.673 -0.0669  0.8842  0.7662
16927SOL    HW162759   9.021  10.239   5.645 -0.4400  0.4722 -1.2170
16927SOL    HW262760   8.973  10.098   5.620 -0.9747  0.0978  1.5730
16928SOL     OW62761   8.602   5.272   7.757  0.2475 -0.3209  0.5904
16928SOL    HW162762   8.690   5.300   7.732  0.5548 -0.1976  1.7630
16928SOL    HW262763   8.593   5.299   7.849 -1.8384  1.7014 -0.0986
16929SOL     OW62764   3.086   8.678   1.959  0.1482  0.3444  0.7162
16929SOL    HW162765   3.014   8.616   1.972  1.3919 -1.1143  0.9296
16929SOL    HW262766   3.058   8.732   1.885  0.5594 -2.9663 -2.1311
16930SOL     OW62767   8.478   7.160   8.012  0.1326 -0.3307  0.2994
16930SOL    HW162768   8.489   7.068   8.036 -0.1899 -0.9385 -1.6646
16930SOL    HW262769   8.567   7.193   8.003  0.2553 -0.2007  1.7788
16931SOL     OW62770   2.774   3.554   6.072 -0.0724 -0.2633  0.1992
16931SOL    HW162771   2.755   3.612   5.999  0.7091  0.9328  0.9179
16931SOL    HW262772   2.816   3.478   6.032 -2.1655 -0.9435 -0.8894
16932SOL     OW62773   1.138   1.489   3.867 -0.0629  0.1551  0.0319
16932SOL    HW162774   1.145   1.564   3.926 -0.1520 -0.0211  0.2679
16932SOL    HW262775   1.130   1.528   3.780 -0.5985  0.4367  0.1977
16933SOL     OW62776   9.577   3.081   3.899 -0.3030  0.1595 -0.1810
16933SOL    HW162777   9.618   3.049   3.980  1.8642  0.8314 -0.9447
16933SOL    HW262778   9.592   3.175   3.900 -1.9876  0.4680 -0.4841
16934SOL     OW62779   2.385   4.527   8.017 -0.4502  0.4120 -0.1831
16934SOL    HW162780   2.421   4.579   8.088 -1.2167  0.2015  0.3775
16934SOL    HW262781   2.347   4.450   8.060  0.7844 -0.7107 -1.0000
16935SOL     OW62782   3.755   3.787   3.119 -0.1940  0.2352 -0.4179
16935SOL    HW162783   3.705   3.711   3.089 -2.0003  0.5599  1.6139
16935SOL    HW262784   3.697   3.833   3.178  1.6042  2.1186 -0.0013
16936SOL     OW62785   9.417   3.124   5.996  0.5124 -0.5621 -0.0032
16936SOL    HW162786   9.485   3.159   6.054 -0.7608  1.9303  0.1336
16936SOL    HW262787   9.335   3.133   6.045 -0.5921  1.4993 -2.0201
16937SOL     OW62788   9.953   4.160   1.660  0.4546 -0.1048 -0.3235
16937SOL    HW162789   9.918   4.244   1.688 -1.6792 -1.1380  0.3203
16937SOL    HW262790   9.946   4.103   1.737  0.2177 -1.3244 -1.2021
16938SOL     OW62791   5.786   6.777   1.637 -0.0895  0.2336  0.0325
16938SOL    HW162792   5.737   6.784   1.556  0.5424 -4.6113 -1.0933
16938SOL    HW262793   5.878   6.786   1.611  0.1195 -1.4006  0.0792
16939SOL     OW62794   4.385   2.010   0.293  0.1744 -0.6268 -0.1772
16939SOL    HW162795   4.294   2.033   0.311 -0.1178 -1.6598 -0.2908
16939SOL    HW262796   4.425   2.092   0.265 -1.0875 -0.4616 -1.5921
16940SOL     OW62797   3.192   6.152   8.743 -0.2170  0.2628  0.0925
16940SOL    HW162798   3.281   6.124   8.763 -0.6692 -0.7751  0.7733
16940SOL    HW262799   3.202   6.236   8.698  1.0278  0.7672  1.2519
16941SOL     OW62800   9.868   3.976   4.209 -0.0916 -0.4064  0.2637
16941SOL    HW162801   9.931   4.043   4.237 -0.9714  1.1534 -1.3204
16941SOL    HW262802   9.858   3.990   4.115 -2.7659 -0.5995  0.4516
16942SOL     OW62803   9.503  10.343   9.271 -0.3636 -0.1340  0.4268
16942SOL    HW162804   9.497  10.305   9.184 -1.1928  1.8565 -0.4252
16942SOL    HW262805   9.594  10.373   9.278  0.2566 -2.0175  1.0520
16943SOL     OW62806   2.126   6.101   6.973 -0.6419 -0.2437  0.3850
16943SOL    HW162807   2.159   6.027   7.023 -1.0309 -1.6150 -1.2936
16943SOL    HW262808   2.083   6.061   6.897 -2.7085  1.6123  0.4827
16944SOL     OW62809   1.453   7.837   1.399 -0.5438 -0.3646 -0.6382
16944SOL    HW162810   1.384   7.876   1.345 -1.1831  2.0626  1.7130
16944SOL    HW262811   1.531   7.887   1.379 -0.2691 -0.8618 -0.8301
16945SOL     OW62812   9.634   0.208   9.530 -0.5068  0.2912 -0.0898
16945SOL    HW162813   9.581   0.207   9.450 -1.3874 -0.8495  0.4738
16945SOL    HW262814   9.580   0.253   9.594 -0.4249 -0.0976  0.2556
16946SOL     OW62815   0.232   2.840   3.017 -0.5282 -0.1044  0.6918
16946SOL    HW162816   0.311   2.801   3.053 -0.6326 -0.2464  0.7664
16946SOL    HW262817   0.213   2.914   3.075  1.0003  1.5486 -0.7666
16947SOL     OW62818   4.637   0.499   1.804 -0.2533  0.2282 -0.0328
16947SOL    HW162819   4.657   0.588   1.774  2.6401 -0.1308  0.5297
16947SOL    HW262820   4.672   0.442   1.735 -2.0837 -0.5275 -0.3884
16948SOL     OW62821   9.530   2.285   8.225  0.1928 -0.7351  0.4718
16948SOL    HW162822   9.549   2.224   8.154 -0.3813 -1.6296  1.0714
16948SOL    HW262823   9.438   2.308   8.213  0.4888  0.3080  0.0475
16949SOL     OW62824   1.734   4.950   9.533  0.2244  0.0013 -0.3963
16949SOL    HW162825   1.671   4.893   9.578  1.0037 -1.6351 -1.2579
16949SOL    HW262826   1.709   5.038   9.558 -0.1936 -0.7550  2.1389
16950SOL     OW62827   2.712  10.309   3.558  0.1416  0.3924  0.0529
16950SOL    HW162828   2.803  10.283   3.542  0.2547  0.9489 -0.2306
16950SOL    HW262829   2.712  10.340   3.649 -0.2153 -1.5135  0.7457
16951SOL     OW62830   2.788  10.012   4.179 -0.0331  0.0023  0.1432
16951SOL    HW162831   2.842   9.957   4.121  0.8796  1.7906 -0.7731
16951SOL    HW262832   2.840  10.020   4.259  0.2306  0.2070 -0.0441
16952SOL     OW62833   8.422   6.397   0.072 -0.0303  0.4073  0.2450
16952SOL    HW162834   8.329   6.418   0.061 -0.2892 -1.0294 -0.6813
16952SOL    HW262835   8.466   6.447   0.004 -0.3369 -0.0888 -0.3349
16953SOL     OW62836   4.966   9.563   4.010  0.2563  0.2628 -0.4407
16953SOL    HW162837   4.954   9.658   4.016  0.3164  0.2513 -0.0865
16953SOL    HW262838   4.891   9.532   3.960  1.5488  0.7862 -2.8717
16954SOL     OW62839   6.724   7.927   2.668 -0.2145  0.4215 -0.8507
16954SOL    HW162840   6.648   7.952   2.720 -0.7758  0.8375 -1.8262
16954SOL    HW262841   6.787   7.893   2.731  0.8925  4.8050  0.7220
16955SOL     OW62842   1.027   2.050   4.792  0.3390  0.4634  0.6210
16955SOL    HW162843   0.947   2.010   4.758  0.7033  0.9404 -0.8485
16955SOL    HW262844   1.090   1.978   4.798  0.5697  0.5303 -0.7000
16956SOL     OW62845   5.748   7.373   1.931 -0.1865  0.4428 -0.5284
16956SOL    HW162846   5.688   7.431   1.977  0.5577 -0.5155  1.8354
16956SOL    HW262847   5.816   7.431   1.896 -0.3518  1.1671  0.3107
16957SOL     OW62848   1.373   8.748   7.491 -0.6029 -0.0696  0.4152
16957SOL    HW162849   1.370   8.671   7.548 -1.8660 -0.7958 -0.5881
16957SOL    HW262850   1.314   8.811   7.532 -1.0651 -0.3714  0.2120
16958SOL     OW62851   3.534   9.123   7.560 -0.2055 -0.8226 -0.2747
16958SOL    HW162852   3.525   9.056   7.492  0.2184  0.3192 -1.5056
16958SOL    HW262853   3.450   9.169   7.559 -0.6488 -1.5662  0.8578
16959SOL     OW62854   5.582   1.639   9.061  0.7374  0.8829 -0.2272
16959SOL    HW162855   5.531   1.560   9.082 -0.8997  1.9677  0.0438
16959SOL    HW262856   5.608   1.626   8.970 -1.0956  0.8046 -0.7907
16960SOL     OW62857   9.190   1.691   5.367 -0.1125 -0.2557  0.6645
16960SOL    HW162858   9.271   1.682   5.417  0.0606  1.7367  0.8553
16960SOL    HW262859   9.149   1.771   5.402 -1.7709 -0.7695  0.0328
16961SOL     OW62860   9.941   5.372   5.638 -0.2825 -0.2172 -0.0630
16961SOL    HW162861   9.956   5.301   5.701 -0.5609 -1.3821 -1.2529
16961SOL    HW262862   9.941   5.328   5.553 -2.6735  0.8740 -0.7066
16962SOL     OW62863   0.977   1.956   0.520 -0.0366 -0.1758  0.5161
16962SOL    HW162864   1.050   1.996   0.473 -0.1839  0.3694  0.7438
16962SOL    HW262865   0.928   1.909   0.453  1.3542 -1.8357  0.5904
16963SOL     OW62866   1.552   3.324   7.196  0.0802  0.0529  0.0158
16963SOL    HW162867   1.482   3.283   7.246 -2.4236 -0.2520 -3.4325
16963SOL    HW262868   1.538   3.418   7.205 -0.2939 -0.0013 -0.0167
16964SOL     OW62869   1.079   4.180   8.949 -0.8535 -0.3865  0.3047
16964SOL    HW162870   1.129   4.153   9.026 -0.2517 -1.1791 -0.3456
16964SOL    HW262871   1.111   4.268   8.929 -0.9606 -0.2062  0.9119
16965SOL     OW62872   8.668   7.807   4.976  0.1964 -0.1109  0.0752
16965SOL    HW162873   8.608   7.736   4.953 -0.0235 -0.4237  1.5089
16965SOL    HW262874   8.720   7.822   4.897  1.1377 -2.7661  0.0940
16966SOL     OW62875   8.411   9.572   7.008  1.0219 -0.2076  0.3727
16966SOL    HW162876   8.449   9.504   6.952  2.1729 -0.3609  1.2977
16966SOL    HW262877   8.393   9.527   7.090 -1.8439 -0.2985 -0.2134
16967SOL     OW62878   8.613   3.856   8.394 -0.1648  0.2032 -0.6918
16967SOL    HW162879   8.606   3.948   8.421 -1.4931 -0.0905  0.0693
16967SOL    HW262880   8.662   3.859   8.312 -0.4154  1.6172 -0.8226
16968SOL     OW62881   9.583   7.769   0.132  0.0318 -0.5700 -0.2000
16968SOL    HW162882   9.508   7.710   0.123  0.3208 -1.0771  0.6567
16968SOL    HW262883   9.594   7.781   0.227  1.1716 -0.6780 -0.3028
16969SOL     OW62884   8.927   6.846   4.149  0.8653 -0.5920  0.4852
16969SOL    HW162885   8.910   6.826   4.057  0.6347  0.3415  0.3141
16969SOL    HW262886   8.861   6.912   4.172  1.5569 -0.0678  1.0271
16970SOL     OW62887   1.225   4.029   5.647  0.6380 -0.5892 -0.0023
16970SOL    HW162888   1.191   4.092   5.710 -1.5646 -0.5979 -1.0689
16970SOL    HW262889   1.309   4.001   5.683  1.2816  2.2526  0.9392
16971SOL     OW62890   4.502   2.240   7.749 -0.1323 -0.4514 -0.7267
16971SOL    HW162891   4.566   2.306   7.776  0.8305 -1.7411  0.2753
16971SOL    HW262892   4.526   2.219   7.659 -0.4540  0.5610 -1.0563
16972SOL     OW62893   0.001   4.431   4.664 -0.6346 -0.4993 -0.1980
16972SOL    HW162894   0.040   4.416   4.578 -0.8023 -3.5388  0.1432
16972SOL    HW262895  -0.065   4.499   4.649 -0.4262 -0.6980 -2.3960
16973SOL     OW62896   4.202   7.551   8.701  0.1183 -0.2636  0.0765
16973SOL    HW162897   4.204   7.549   8.796  0.1197 -2.4879  0.0807
16973SOL    HW262898   4.112   7.526   8.678  0.1193  0.2442 -0.5068
16974SOL     OW62899   7.664   9.183   8.499  0.3237 -0.7752 -0.1124
16974SOL    HW162900   7.718   9.211   8.425  2.9177 -1.0634  1.5610
16974SOL    HW262901   7.688   9.091   8.513  1.3164 -0.2429  2.1544
16975SOL     OW62902   3.829   1.132   5.518  0.3035  0.1567  0.8946
16975SOL    HW162903   3.851   1.204   5.459 -0.9049  1.6375  2.1526
16975SOL    HW262904   3.876   1.057   5.482 -0.0306  1.0683 -1.6649
16976SOL     OW62905   1.460   6.233   6.356 -0.0915  0.2588 -0.7208
16976SOL    HW162906   1.507   6.257   6.436 -1.7857 -1.5743  0.9399
16976SOL    HW262907   1.368   6.245   6.379 -0.6897 -1.6361 -1.9126
16977SOL     OW62908   8.457   7.276   7.759  0.3868 -0.0341  0.1577
16977SOL    HW162909   8.431   7.210   7.824  1.5752  0.5811  1.3122
16977SOL    HW262910   8.511   7.338   7.808  2.6973 -0.3944 -1.7345
16978SOL     OW62911   1.084   4.552   2.490 -0.5066  1.0040  0.1458
16978SOL    HW162912   1.012   4.615   2.491 -0.7043  0.7800  1.1757
16978SOL    HW262913   1.062   4.490   2.559 -0.6626 -0.5997 -1.2885
16979SOL     OW62914   0.722   4.536   2.815 -0.1501 -0.3037 -0.6667
16979SOL    HW162915   0.676   4.508   2.894  0.7557  0.2192  0.0769
16979SOL    HW262916   0.662   4.594   2.771  0.4262  1.9043  1.2635
16980SOL     OW62917   2.039   2.210   9.106  0.0079 -0.1427  0.3818
16980SOL    HW162918   2.114   2.163   9.142 -0.8515 -0.1663  2.2176
16980SOL    HW262919   2.036   2.293   9.154 -1.3071 -0.2706  0.5633
16981SOL     OW62920   4.133   7.881   3.609  0.1462 -0.3387 -0.5314
16981SOL    HW162921   4.227   7.901   3.605  0.2662 -0.6332  0.4728
16981SOL    HW262922   4.129   7.794   3.648 -0.5434 -0.4277 -0.7907
16982SOL     OW62923   4.304   3.131   9.329  0.1843  0.1705 -0.2014
16982SOL    HW162924   4.285   3.051   9.282  0.0296 -0.2902  0.6244
16982SOL    HW262925   4.362   3.180   9.271 -0.2683 -0.2293 -0.9978
16983SOL     OW62926   2.430   3.713   1.616  0.0538  0.5149  0.2019
16983SOL    HW162927   2.497   3.658   1.658 -1.0162  0.5634  2.0602
16983SOL    HW262928   2.461   3.724   1.526  2.1113 -0.1581  0.7795
16984SOL     OW62929   1.269   6.477   0.405 -0.1861 -0.0697  0.1226
16984SOL    HW162930   1.232   6.439   0.326  0.5739  0.3939 -0.4720
16984SOL    HW262931   1.363   6.470   0.393 -0.0573 -0.5117  1.2527
16985SOL     OW62932   0.862  10.148   9.024 -0.3570 -0.0590 -0.4313
16985SOL    HW162933   0.834  10.084   8.958 -0.5427 -1.0488  0.5832
16985SOL    HW262934   0.807  10.130   9.100 -1.0514  1.9231 -0.4094
16986SOL     OW62935   2.539   5.005   8.658 -0.6676 -0.0044 -0.5142
16986SOL    HW162936   2.632   4.994   8.678 -0.8617  0.5145  0.7727
16986SOL    HW262937   2.537   5.053   8.575  0.2427  0.9053 -0.0338
16987SOL     OW62938   5.172   9.034   9.069 -0.3454 -0.0600  0.0853
16987SOL    HW162939   5.085   8.996   9.059 -0.0853 -0.3585 -1.1444
16987SOL    HW262940   5.230   8.959   9.082 -0.2494  0.1360  0.8759
16988SOL     OW62941   3.702   6.569   4.947 -0.0083  0.0944  0.2470
16988SOL    HW162942   3.636   6.507   4.977  0.2718  0.0023  0.6797
16988SOL    HW262943   3.708   6.634   5.018 -0.6707  0.9079 -0.4174
16989SOL     OW62944   2.947  10.135   5.429 -0.3999 -0.4585  0.0635
16989SOL    HW162945   2.971  10.105   5.341  2.6138 -0.0082  0.6076
16989SOL    HW262946   2.973  10.063   5.486 -0.2039  0.1509  0.7532
16990SOL     OW62947   9.601   3.175   9.665 -0.4903  0.4078 -0.4681
16990SOL    HW162948   9.535   3.170   9.596  0.6979 -2.7161 -1.5508
16990SOL    HW262949   9.678   3.214   9.623 -0.9257  2.1459  0.2440
16991SOL     OW62950   8.099   6.347   7.680  0.1249  0.1663 -0.6958
16991SOL    HW162951   8.169   6.283   7.695 -1.1031 -1.2269 -0.7033
16991SOL    HW262952   8.116   6.416   7.744  1.0005 -0.5679 -0.1079
16992SOL     OW62953   3.391   8.312   7.207 -0.2691 -0.4083 -0.0454
16992SOL    HW162954   3.344   8.366   7.271 -0.5228 -0.5999 -0.0685
16992SOL    HW262955   3.444   8.374   7.157 -0.6038 -0.1753 -0.1102
16993SOL     OW62956   0.211   3.824   6.429 -0.0509  0.0599  0.3613
16993SOL    HW162957   0.267   3.760   6.384 -0.2229 -1.3244  2.0234
16993SOL    HW262958   0.129   3.823   6.378  0.3796 -0.1050 -0.3519
16994SOL     OW62959   9.706   6.084   8.348  0.4854 -0.4246  0.4166
16994SOL    HW162960   9.784   6.121   8.307  1.2005  0.7075  2.5957
16994SOL    HW262961   9.704   5.993   8.318  3.1737 -0.7489  0.8934
16995SOL     OW62962   0.942   5.747   0.903  0.1265  0.1533 -0.4549
16995SOL    HW162963   0.956   5.659   0.869 -0.0458  0.8083 -2.3111
16995SOL    HW262964   0.854   5.744   0.940  1.8739 -1.8343  4.3316
16996SOL     OW62965   7.700   4.903   1.609 -0.3617 -0.7476 -0.0705
16996SOL    HW162966   7.660   4.816   1.616 -1.3123 -0.7432 -3.5206
16996SOL    HW262967   7.631   4.958   1.570  0.7678  1.1312  0.4718
16997SOL     OW62968   6.357   1.888   1.981 -0.2987  0.0038  0.0161
16997SOL    HW162969   6.353   1.805   2.027 -0.5490  0.5733  1.0442
16997SOL    HW262970   6.401   1.867   1.898 -1.5767 -1.4066 -0.3603
16998SOL     OW62971   2.823   8.704   3.782 -0.3892  0.0172 -0.8479
16998SOL    HW162972   2.778   8.782   3.814 -0.0189 -0.0299 -0.1997
16998SOL    HW262973   2.875   8.736   3.707 -0.6921  0.2765 -0.9488
16999SOL     OW62974   5.744   2.010   7.248  0.0044 -0.3188 -0.0356
16999SOL    HW162975   5.828   1.983   7.286 -0.3742 -0.3885  0.7681
16999SOL    HW262976   5.761   2.097   7.212  0.0588  0.3011  1.4268
17000SOL     OW62977   6.356   5.425   6.566 -0.3674  0.1625 -0.2515
17000SOL    HW162978   6.362   5.496   6.502  0.4415  1.3421  1.0630
17000SOL    HW262979   6.443   5.385   6.565 -0.1222  0.6553  0.5963
17001SOL     OW62980   4.882   9.237   8.327 -0.2218  0.0424  0.6531
17001SOL    HW162981   4.950   9.302   8.311 -0.8835  1.1823  2.1540
17001SOL    HW262982   4.868   9.195   8.242  1.1378  0.9605 -0.0644
17002SOL     OW62983   1.973   3.117   6.422  0.1275  0.5142  0.0404
17002SOL    HW162984   1.938   3.188   6.369  1.3494  1.5926  0.5950
17002SOL    HW262985   2.009   3.055   6.359 -0.1411  0.8390 -0.4365
17003SOL     OW62986   3.113   9.571  10.250  0.3352  0.3317  0.2065
17003SOL    HW162987   3.097   9.664  10.267 -0.7855 -0.0396  1.2795
17003SOL    HW262988   3.182   9.547  10.311  0.3338  0.3568  0.2183
17004SOL     OW62989   3.811   9.806   9.464  0.0191 -0.0180  0.0825
17004SOL    HW162990   3.796   9.832   9.373  1.8742 -0.3436 -0.3573
17004SOL    HW262991   3.813   9.889   9.512  0.2689  0.2633 -0.3962
17005SOL     OW62992   9.238   8.360   1.141 -0.3438  0.3817  0.0095
17005SOL    HW162993   9.158   8.373   1.193  0.1144 -0.0846  0.8487
17005SOL    HW262994   9.304   8.335   1.205  0.9287  2.4111 -0.4146
17006SOL     OW62995   7.419   9.087   5.688  0.5531 -0.0170 -0.2319
17006SOL    HW162996   7.417   8.993   5.705  1.4833 -0.0330 -0.1453
17006SOL    HW262997   7.511   9.106   5.668  0.3814  0.8775 -0.2226
17007SOL     OW62998   5.755   2.969   4.609 -0.8189 -0.3994  0.1826
17007SOL    HW162999   5.780   2.962   4.517 -1.5816 -0.2971 -0.0405
17007SOL    HW263000   5.810   3.040   4.644 -0.9578 -0.0280 -0.3480
17008SOL     OW63001   2.282   5.589   7.844  0.1948 -0.6476  0.2821
17008SOL    HW163002   2.220   5.646   7.800 -0.0500 -1.7415 -0.8492
17008SOL    HW263003   2.357   5.584   7.785  0.4477 -1.0234  0.6264
17009SOL     OW63004   0.240   1.883   6.212 -0.0115  0.0599 -0.3406
17009SOL    HW163005   0.211   1.803   6.256  1.9463  0.1233  1.1849
17009SOL    HW263006   0.180   1.950   6.244 -1.7285 -0.7285 -1.6969
17010SOL     OW63007   0.131   4.061   6.520 -0.5076 -0.1019  0.0159
17010SOL    HW163008   0.148   3.968   6.503  0.0526  0.3184 -1.9348
17010SOL    HW263009   0.212   4.094   6.558 -0.9125 -0.5192  1.2793
17011SOL     OW63010   7.415  10.363   6.426  0.2666  0.6689  0.0038
17011SOL    HW163011   7.486  10.426   6.415  0.5230  0.2975 -0.5033
17011SOL    HW263012   7.341  10.416   6.456  0.7479  1.0600  0.5239
17012SOL     OW63013   6.110   6.011   4.938  0.0043 -0.6980  0.2585
17012SOL    HW163014   6.050   6.059   4.994 -0.3309 -0.2722 -0.4515
17012SOL    HW263015   6.180   5.981   4.997 -0.6457 -0.7839  0.9993
17013SOL     OW63016  10.200   6.139   4.433 -0.4840 -0.4833 -0.6895
17013SOL    HW163017  10.292   6.163   4.439 -0.1832 -1.4324 -1.3451
17013SOL    HW263018  10.196   6.075   4.362 -1.5563 -0.8919 -0.2804
17014SOL     OW63019   1.754   1.059   1.489  0.3702 -0.0153 -0.3000
17014SOL    HW163020   1.848   1.043   1.499  0.6669 -0.0530 -2.6337
17014SOL    HW263021   1.731   1.017   1.406 -1.2301  1.9532 -0.9386
17015SOL     OW63022   2.412   2.291   0.192  0.4082  0.0120  0.1169
17015SOL    HW163023   2.371   2.222   0.244  1.6152 -0.9963 -0.2118
17015SOL    HW263024   2.437   2.247   0.110 -0.2621  1.2484 -0.7759
17016SOL     OW63025   1.991   3.226   2.935  0.2291 -0.1483 -0.6087
17016SOL    HW163026   1.913   3.173   2.946  0.0222 -0.4932 -3.2018
17016SOL    HW263027   2.063   3.162   2.928  0.3811  0.0438 -0.8246
17017SOL     OW63028   2.885   8.856   8.944  0.3846 -0.5151 -0.2661
17017SOL    HW163029   2.976   8.885   8.944  0.5171 -0.7511 -2.3854
17017SOL    HW263030   2.889   8.763   8.966  0.5455 -0.3113  0.5884
17018SOL     OW63031   9.404   9.423   9.962 -0.3513 -0.0091 -0.8453
17018SOL    HW163032   9.351   9.381   9.894  0.0068 -0.8031 -0.6476
17018SOL    HW263033   9.455   9.489   9.916  0.5762 -1.1639 -1.5269
17019SOL     OW63034   8.079   7.485   8.662 -0.2373  0.2518 -0.0962
17019SOL    HW163035   8.051   7.549   8.727 -0.7525  1.3537 -1.3463
17019SOL    HW263036   8.070   7.531   8.578 -0.7337 -1.5012 -1.0505
17020SOL     OW63037   9.324   3.862   8.635  0.3277  0.0104  0.3670
17020SOL    HW163038   9.417   3.843   8.636  0.2830 -0.4329 -1.0405
17020SOL    HW263039   9.283   3.781   8.604 -0.5653  0.0632  1.3593
17021SOL     OW63040   6.284   3.315   5.478  0.4033  0.4316 -0.0632
17021SOL    HW163041   6.333   3.269   5.546 -0.8295  1.0070  1.2485
17021SOL    HW263042   6.192   3.304   5.502  0.0017  2.0611 -0.7051
17022SOL     OW63043   9.558   1.315   8.535 -0.3173 -0.5538  0.4201
17022SOL    HW163044   9.588   1.248   8.474  1.7776  1.3241 -0.7312
17022SOL    HW263045   9.490   1.363   8.487  1.1003  0.7117 -0.4292
17023SOL     OW63046   0.248   7.996   9.697 -0.1649 -0.3323 -0.3451
17023SOL    HW163047   0.328   7.996   9.644  1.8264  0.8408  2.3808
17023SOL    HW263048   0.187   8.052   9.649  1.4290  0.4609 -1.5502
17024SOL     OW63049   5.499   1.157   4.847  0.6636  0.4783 -0.8103
17024SOL    HW163050   5.531   1.162   4.938  0.3628  0.6416 -0.7129
17024SOL    HW263051   5.522   1.068   4.819  1.7094  0.7653 -0.9291
17025SOL     OW63052   4.705   3.646   8.007  0.1152  0.4543 -0.1394
17025SOL    HW163053   4.798   3.624   8.007 -0.3126 -1.5581 -0.0074
17025SOL    HW263054   4.682   3.655   8.099  0.2125  1.1494 -0.1804
17026SOL     OW63055   7.765   9.962   6.029  0.7085 -0.1508  0.3600
17026SOL    HW163056   7.799   9.880   5.994  1.5138  0.7247 -0.9742
17026SOL    HW263057   7.843  10.016   6.044  0.0922  1.0564 -0.5844
17027SOL     OW63058   0.760   2.425   0.096 -0.6434 -0.2153  0.1184
17027SOL    HW163059   0.830   2.382   0.144 -0.0898 -2.7147 -2.6943
17027SOL    HW263060   0.682   2.373   0.115 -0.4787 -1.0457 -1.3579
17028SOL     OW63061   0.016   8.865   4.194  0.3625 -0.3501 -0.5824
17028SOL    HW163062   0.091   8.920   4.216  1.1006 -1.1934 -0.9290
17028SOL    HW263063  -0.043   8.872   4.269  1.6486 -1.1479  0.5352
17029SOL     OW63064   1.314   9.113   6.525  0.5202 -0.2819  0.4016
17029SOL    HW163065   1.353   9.176   6.464  0.7184 -0.6919  0.0989
17029SOL    HW263066   1.388   9.064   6.560  0.2462 -1.5894 -0.7570
17030SOL     OW63067   3.609   2.806   5.158 -0.2555 -0.0737 -0.2929
17030SOL    HW163068   3.568   2.884   5.120  0.7208  1.4570  1.6793
17030SOL    HW263069   3.535   2.748   5.177 -1.3737  1.7420  1.2018
17031SOL     OW63070   6.517   7.767   4.915 -0.0232 -0.8207 -0.3210
17031SOL    HW163071   6.584   7.714   4.959  1.0583  0.5199 -0.3090
17031SOL    HW263072   6.446   7.705   4.898  1.5515 -2.5291 -1.1227
17032SOL     OW63073   5.559   0.204  10.004  0.0978 -0.3814 -0.2087
17032SOL    HW163074   5.642   0.216  10.049 -0.1354  1.6475 -0.2103
17032SOL    HW263075   5.578   0.226   9.912 -0.5583  0.8716 -0.0729
17033SOL     OW63076   9.756   9.605   4.882  0.5684 -0.1352 -0.3005
17033SOL    HW163077   9.731   9.686   4.926 -0.3591 -0.9813  0.7564
17033SOL    HW263078   9.752   9.627   4.788  0.0929  0.9608 -0.0423
17034SOL     OW63079   0.481   6.582   3.725  0.6283  0.0093 -0.0155
17034SOL    HW163080   0.393   6.583   3.688 -0.0391 -1.4599  1.3895
17034SOL    HW263081   0.476   6.639   3.802  1.4097  1.3011 -0.8792
17035SOL     OW63082   8.317   8.896   1.239 -0.4480 -0.3282  0.1143
17035SOL    HW163083   8.324   8.872   1.146 -1.4612 -0.3174  0.0211
17035SOL    HW263084   8.408   8.902   1.269 -0.1107 -1.6398 -0.5420
17036SOL     OW63085   0.107   4.814   3.168  0.5157  0.4293  0.2989
17036SOL    HW163086   0.108   4.723   3.136  0.8282  0.5787 -0.1342
17036SOL    HW263087   0.023   4.849   3.139 -0.1255 -0.0669  1.4927
17037SOL     OW63088   5.482   8.540   7.156  0.5070 -0.0921  0.0142
17037SOL    HW163089   5.518   8.535   7.244 -1.1385  1.1077  0.8242
17037SOL    HW263090   5.413   8.474   7.154 -1.2102  1.5823  0.5850
17038SOL     OW63091   1.539   4.491   5.825  0.1543 -0.5624  0.2513
17038SOL    HW163092   1.502   4.480   5.912 -0.8111 -0.5486 -0.1479
17038SOL    HW263093   1.598   4.416   5.813  0.4343 -0.4638  0.9763
17039SOL     OW63094   8.683   8.175   7.472  0.1405  0.2222  0.0353
17039SOL    HW163095   8.650   8.159   7.561  2.6321 -2.1973  0.6875
17039SOL    HW263096   8.736   8.254   7.479 -1.4107  1.2740  0.1477
17040SOL     OW63097   6.751   8.080   0.098 -0.1911  0.1462 -0.0824
17040SOL    HW163098   6.727   8.138   0.026  0.1515 -0.1088 -0.4026
17040SOL    HW263099   6.827   8.121   0.138  0.6369 -0.5539 -0.8942
17041SOL     OW63100   9.420   9.706   7.529  0.3366  0.1312 -0.5659
17041SOL    HW163101   9.387   9.635   7.474 -2.5231 -0.8037  2.0710
17041SOL    HW263102   9.363   9.780   7.509 -0.1085  0.0634  0.3756
17042SOL     OW63103   6.644   5.707   2.661 -0.0937  0.0557 -0.3352
17042SOL    HW163104   6.586   5.772   2.701  0.3000  0.3413 -0.2173
17042SOL    HW263105   6.696   5.674   2.734 -0.0987 -0.1885 -0.4417
17043SOL     OW63106   6.433   9.050   5.283  0.2238  0.1866 -0.1779
17043SOL    HW163107   6.392   9.080   5.364 -0.5898 -0.9693 -0.1271
17043SOL    HW263108   6.377   9.086   5.214  0.1783  0.1175 -0.1773
17044SOL     OW63109  10.057   0.228   3.818 -0.7330  0.4379 -0.3708
17044SOL    HW163110  10.111   0.156   3.785 -1.0492 -0.2072  0.4900
17044SOL    HW263111  10.118   0.279   3.872 -0.9613 -0.2970  0.6108
17045SOL     OW63112   5.325  10.011   0.278  0.5000  0.3574  0.4872
17045SOL    HW163113   5.322  10.099   0.241  0.8105  1.3398  2.6649
17045SOL    HW263114   5.233   9.988   0.293  0.2744 -0.5252 -1.7596
17046SOL     OW63115   6.431   8.269   5.083  0.2820  0.9947 -0.2541
17046SOL    HW163116   6.346   8.308   5.103  1.5840  3.0513  1.8423
17046SOL    HW263117   6.416   8.174   5.085 -1.6349  1.2767  1.7616
17047SOL     OW63118   3.036   5.715   8.627 -0.2937 -0.3029  0.2273
17047SOL    HW163119   2.977   5.781   8.590  1.6691  1.5844  0.2545
17047SOL    HW263120   2.980   5.664   8.686 -2.3371 -0.0278 -1.3395
17048SOL     OW63121   8.355   8.174   7.861 -0.4878 -0.1816  0.4577
17048SOL    HW163122   8.342   8.082   7.837  0.3288 -0.1415 -0.1603
17048SOL    HW263123   8.268   8.214   7.848 -0.4513 -0.5082 -0.9340
17049SOL     OW63124   3.429   9.362   6.419  0.0634 -0.6047  0.2621
17049SOL    HW163125   3.500   9.352   6.482  0.9467 -2.4870 -0.9592
17049SOL    HW263126   3.461   9.427   6.356  0.5867 -1.2175 -0.1114
17050SOL     OW63127   9.741   3.061   3.566  0.4147  0.1102  0.5650
17050SOL    HW163128   9.661   3.059   3.619  0.4915 -0.8306  0.6514
17050SOL    HW263129   9.774   3.150   3.578 -0.0595  0.1944  1.3717
17051SOL     OW63130   9.345   1.218   0.406  0.3407  0.4918  0.2678
17051SOL    HW163131   9.370   1.147   0.465 -0.4387  1.0774  1.3399
17051SOL    HW263132   9.343   1.296   0.461 -0.5448  1.0375 -0.4889
17052SOL     OW63133   8.483   1.021   7.716  0.1440  0.6023 -0.9837
17052SOL    HW163134   8.493   1.072   7.796  0.4248  1.8174 -1.7635
17052SOL    HW263135   8.513   0.934   7.740 -1.8440  0.3371  0.8211
17053SOL     OW63136   4.131   0.536   7.349 -0.1909 -0.1353  0.0619
17053SOL    HW163137   4.046   0.532   7.394 -1.2219  2.7933 -1.4005
17053SOL    HW263138   4.176   0.610   7.391 -0.6534  1.8294 -2.6541
17054SOL     OW63139   9.493   5.937   0.692 -0.3441  0.2212  0.1864
17054SOL    HW163140   9.449   5.949   0.776  0.3990  1.5185  0.4117
17054SOL    HW263141   9.582   5.909   0.715  0.1251  1.4004 -0.1083
17055SOL     OW63142   6.879   6.851   6.066  0.5054  0.3385  0.4493
17055SOL    HW163143   6.801   6.804   6.036  1.5111  0.2732 -2.3753
17055SOL    HW263144   6.940   6.782   6.093  0.1290  0.3344  1.3455
17056SOL     OW63145   4.894   5.053   0.186  0.1739  0.2263  0.0887
17056SOL    HW163146   4.946   5.000   0.125 -0.3398  1.9257 -1.9847
17056SOL    HW263147   4.935   5.040   0.271  2.0515 -0.9249 -0.9202
17057SOL     OW63148  10.076   7.940   8.128  0.2856 -0.0699 -0.3428
17057SOL    HW163149  10.043   7.923   8.216  0.0732 -1.1007 -0.6116
17057SOL    HW263150  10.164   7.977   8.141  0.6619 -1.1649  0.2793
17058SOL     OW63151   0.322   9.009   5.340 -0.0157 -0.1625 -0.2751
17058SOL    HW163152   0.336   8.921   5.377 -2.1472 -0.6880 -0.5751
17058SOL    HW263153   0.241   9.039   5.381  0.5836  1.6201 -0.3169
17059SOL     OW63154   3.383   8.119   3.084  0.2358  0.1295 -0.1434
17059SOL    HW163155   3.371   8.194   3.026 -1.4071  0.5216  0.6232
17059SOL    HW263156   3.472   8.127   3.117  0.0199  1.9206  0.1175
17060SOL     OW63157   9.063   9.446   4.650  0.2131 -0.1479 -0.1293
17060SOL    HW163158   9.045   9.534   4.682 -2.0077 -0.7876  0.5591
17060SOL    HW263159   9.147   9.423   4.689  0.6001  1.4702  0.0560
17061SOL     OW63160   4.816   2.786   4.704 -0.4644  0.3333  0.0472
17061SOL    HW163161   4.853   2.810   4.789 -0.3630 -0.9519  0.3816
17061SOL    HW263162   4.859   2.704   4.681 -0.6152  0.5865 -1.1799
17062SOL     OW63163   7.921   7.251   0.913  0.2351  0.3523 -0.1246
17062SOL    HW163164   8.006   7.280   0.879  0.9795 -1.3502  0.1928
17062SOL    HW263165   7.864   7.248   0.836  0.4515  1.4928 -0.3444
17063SOL     OW63166   0.779   4.610   3.400  0.0061 -0.0932  0.0294
17063SOL    HW163167   0.813   4.558   3.474  0.5180 -0.0262 -0.1559
17063SOL    HW263168   0.855   4.622   3.343 -0.4881 -0.5042 -0.7201
17064SOL     OW63169   2.900   0.594   0.160  0.2283  0.1911  0.8158
17064SOL    HW163170   2.961   0.667   0.175  1.5378 -0.5920 -0.4336
17064SOL    HW263171   2.814   0.636   0.153  0.8679  1.5552  0.7640
17065SOL     OW63172   2.088   5.490   8.083 -0.5737  0.2520  0.4706
17065SOL    HW163173   2.084   5.453   7.995  1.5444 -0.9050  0.8093
17065SOL    HW263174   2.085   5.585   8.069 -0.8347  0.0731 -0.8015
17066SOL     OW63175   1.576   8.056   0.981  0.3008 -0.0434  0.2572
17066SOL    HW163176   1.614   8.051   0.894  2.3645  1.1267  1.0172
17066SOL    HW263177   1.529   8.139   0.981  0.5355  0.0906  0.3345
17067SOL     OW63178   8.572   8.994   8.851 -0.5845  0.3302  0.9423
17067SOL    HW163179   8.486   9.025   8.824 -0.7023  0.4967  1.5162
17067SOL    HW263180   8.568   8.989   8.946 -0.2892 -0.6291  0.9182
17068SOL     OW63181   7.201   8.513   6.978 -0.3899 -0.4442  0.1462
17068SOL    HW163182   7.262   8.586   6.971 -1.3824  0.3512 -0.6007
17068SOL    HW263183   7.225   8.455   6.905 -0.8484  0.1456 -0.4947
17069SOL     OW63184   3.161   3.501   6.648  0.6169  0.2125 -0.1406
17069SOL    HW163185   3.081   3.447   6.652 -0.7130  2.1585  0.9258
17069SOL    HW263186   3.224   3.453   6.702 -1.0820  0.4982  2.2767
17070SOL     OW63187   6.286   4.007   5.699  0.5285 -0.0243 -0.1928
17070SOL    HW163188   6.323   3.919   5.687  1.4910  0.0573  1.8009
17070SOL    HW263189   6.353   4.054   5.749 -0.2453  1.6682 -0.6756
17071SOL     OW63190   8.954   0.676   4.316 -0.4793 -0.0192  0.6351
17071SOL    HW163191   9.026   0.649   4.373 -1.0771 -1.2655  0.8387
17071SOL    HW263192   8.996   0.727   4.246  0.6777 -1.1615  0.4588
17072SOL     OW63193   4.396   0.318   9.768 -0.2374 -0.0572 -0.0966
17072SOL    HW163194   4.380   0.320   9.674 -0.2101  1.1644 -0.0937
17072SOL    HW263195   4.363   0.402   9.799  1.5208  0.3781  0.6961
17073SOL     OW63196   3.840   5.332   7.943 -0.0689 -0.2254  0.0613
17073SOL    HW163197   3.793   5.250   7.957  0.8861 -0.9241 -0.6921
17073SOL    HW263198   3.850   5.338   7.848  1.4001 -0.1541  0.1911
17074SOL     OW63199   8.013   4.788   0.409 -0.0478 -0.7195  0.5183
17074SOL    HW163200   8.084   4.755   0.354  0.3212 -0.2421  0.7082
17074SOL    HW263201   8.009   4.726   0.483  0.5605 -0.4127  0.8097
17075SOL     OW63202   3.433   0.700   9.568 -0.4868 -0.2290 -0.1448
17075SOL    HW163203   3.497   0.712   9.639  0.7787 -0.0400 -1.2655
17075SOL    HW263204   3.483   0.658   9.498 -0.8609  2.2457 -2.0424
17076SOL     OW63205   9.085   0.661   4.683 -0.2554  0.4916  0.0536
17076SOL    HW163206   9.137   0.684   4.607 -0.2726  0.4735  0.0359
17076SOL    HW263207   8.997   0.693   4.663  0.1068  2.0293  0.7801
17077SOL     OW63208   6.003   9.620   0.398  0.0968  0.1851  0.6533
17077SOL    HW163209   6.017   9.686   0.466 -0.1450  0.7149  0.1964
17077SOL    HW263210   5.932   9.566   0.431 -2.4941  2.5325 -0.6328
17078SOL     OW63211   8.194   7.388   2.545  0.1763 -0.1766 -0.0326
17078SOL    HW163212   8.276   7.390   2.593  1.1887 -1.1698 -1.6485
17078SOL    HW263213   8.201   7.313   2.486 -1.6754  0.0123 -0.5832
17079SOL     OW63214   3.545   0.831   3.468 -0.4627  0.0212 -0.4147
17079SOL    HW163215   3.583   0.914   3.440 -0.6543  0.6088  0.9475
17079SOL    HW263216   3.608   0.765   3.440  0.0733  0.7000 -0.8467
17080SOL     OW63217   6.515   9.112   0.622  0.1259 -0.0989  0.3867
17080SOL    HW163218   6.591   9.153   0.581 -1.1375  1.1116 -0.8248
17080SOL    HW263219   6.527   9.018   0.607  0.9592  0.1393 -0.5374
17081SOL     OW63220   7.147   9.180   9.365  0.0756 -0.5087  0.4827
17081SOL    HW163221   7.160   9.121   9.439 -0.4892 -1.1221  0.0993
17081SOL    HW263222   7.095   9.130   9.302 -0.9877  0.6310  0.4283
17082SOL     OW63223   5.196   1.087   5.222 -0.4169 -0.3329 -0.0041
17082SOL    HW163224   5.190   1.106   5.316  1.2294 -0.8174  0.2374
17082SOL    HW263225   5.229   0.997   5.218 -0.7551 -0.4255 -1.0642
17083SOL     OW63226   2.257   1.378   5.249  0.3984 -0.0806 -0.1243
17083SOL    HW163227   2.269   1.325   5.328 -0.5029 -0.1948 -0.0529
17083SOL    HW263228   2.238   1.313   5.180  1.2477  0.0113 -0.4619
17084SOL     OW63229   0.517   7.509   9.337 -0.2991 -0.0770  0.1383
17084SOL    HW163230   0.425   7.494   9.359  0.4413 -0.9141  3.1490
17084SOL    HW263231   0.536   7.597   9.368  0.0819 -0.1327  0.0723
17085SOL     OW63232   5.908   3.813   6.747 -0.3387  0.3153 -0.2969
17085SOL    HW163233   5.849   3.780   6.679 -0.4770 -0.0651  0.0035
17085SOL    HW263234   5.851   3.830   6.822 -0.0536 -0.1957  0.0450
17086SOL     OW63235   7.755   8.598   4.696  0.2687 -0.4316  0.1799
17086SOL    HW163236   7.748   8.615   4.789  1.4915  0.2720  0.1661
17086SOL    HW263237   7.665   8.605   4.663  0.0581  1.0948  1.0056
17087SOL     OW63238   6.093   0.734   6.332 -0.2122 -0.1162  0.6264
17087SOL    HW163239   6.040   0.716   6.254 -0.4440 -0.6389  0.9035
17087SOL    HW263240   6.155   0.661   6.336 -0.6571 -0.4616  1.3264
17088SOL     OW63241   6.074   9.500   4.271  0.6692  0.1440  0.1139
17088SOL    HW163242   6.111   9.413   4.284 -0.4879 -0.8472 -2.4142
17088SOL    HW263243   6.109   9.528   4.187 -1.3711  0.7122 -0.6205
17089SOL     OW63244   6.433   8.926   8.548  0.1535  0.4436 -0.4452
17089SOL    HW163245   6.462   8.883   8.468  0.7354  0.2927 -0.1590
17089SOL    HW263246   6.347   8.961   8.527 -1.5599 -3.0782  0.0824
17090SOL     OW63247   1.805   3.355   5.061  0.1168  0.3970 -0.3368
17090SOL    HW163248   1.830   3.371   4.970  0.0532  0.7868 -0.2878
17090SOL    HW263249   1.878   3.307   5.098 -0.3539 -0.7734 -0.9015
17091SOL     OW63250   9.006   4.394   4.360 -0.2093 -0.2392  0.4385
17091SOL    HW163251   9.096   4.381   4.333  0.3393  0.9565  1.5696
17091SOL    HW263252   9.008   4.388   4.456 -0.8699  2.1048  0.6589
17092SOL     OW63253   0.253   1.660   8.218 -0.0142  0.1284 -0.3244
17092SOL    HW163254   0.244   1.633   8.309 -2.5507 -1.5919 -0.9874
17092SOL    HW263255   0.200   1.739   8.211 -1.7002 -0.9648 -0.6933
17093SOL     OW63256   9.905   0.202   4.950 -0.5357 -0.0594  0.5833
17093SOL    HW163257   9.846   0.132   4.976 -0.5780 -0.2637 -0.0495
17093SOL    HW263258   9.854   0.282   4.961 -1.7469 -0.3639 -2.0413
17094SOL     OW63259   1.652   4.567   8.775 -0.0426  0.5795 -0.9217
17094SOL    HW163260   1.675   4.545   8.685 -0.4180 -0.0167 -0.8750
17094SOL    HW263261   1.633   4.661   8.772 -0.3557  0.5023 -1.5304
17095SOL     OW63262   0.493   8.691   6.266  0.7547  0.0894 -0.6318
17095SOL    HW163263   0.517   8.704   6.358  0.2910 -0.3202 -0.4457
17095SOL    HW263264   0.442   8.611   6.266  1.0331 -0.0946 -1.3053
17096SOL     OW63265   0.720   2.655   2.760  0.4313 -0.2992  0.6540
17096SOL    HW163266   0.755   2.571   2.730  0.1308 -1.1671  2.6100
17096SOL    HW263267   0.797   2.708   2.778  0.6594 -0.7748  1.0864
17097SOL     OW63268   1.507   4.609   0.864  0.4497  0.0242  0.1311
17097SOL    HW163269   1.422   4.566   0.856  0.0163  1.0012 -0.7040
17097SOL    HW263270   1.491   4.680   0.927  0.4843  0.5932 -0.4984
17098SOL     OW63271   8.191   5.267   7.116 -0.2925  0.2942 -0.6542
17098SOL    HW163272   8.167   5.339   7.174 -1.3513 -0.2536 -0.3914
17098SOL    HW263273   8.236   5.205   7.172 -0.4447  0.2104 -0.6240
17099SOL     OW63274   0.194   9.053   4.335  0.3235  0.3588 -0.4794
17099SOL    HW163275   0.254   9.124   4.312  0.1348  1.4483  2.0634
17099SOL    HW263276   0.248   8.993   4.387 -0.5058  0.8578  1.0037
17100SOL     OW63277   4.663   7.332   3.556 -0.2323 -0.3294 -0.4445
17100SOL    HW163278   4.661   7.278   3.477  0.3576 -1.2655  0.1650
17100SOL    HW263279   4.756   7.344   3.575 -0.3680 -0.6496  0.4622
17101SOL     OW63280   5.608   5.145   3.809  0.0738  0.1115  0.3212
17101SOL    HW163281   5.661   5.224   3.813  0.8548 -0.3950  0.1043
17101SOL    HW263282   5.612   5.118   3.717  1.8649 -1.5362  0.8151
17102SOL     OW63283   1.147   5.066   4.739  0.4714  0.0869 -0.2389
17102SOL    HW163284   1.119   5.138   4.683 -0.5940  0.0066  0.1530
17102SOL    HW263285   1.205   5.013   4.684 -0.7134 -0.1073 -1.3422
17103SOL     OW63286   8.245   7.802   5.247 -0.2852 -0.6609 -0.2868
17103SOL    HW163287   8.312   7.733   5.246  0.7798  0.3374 -0.1411
17103SOL    HW263288   8.195   7.788   5.167  1.5317 -0.1159 -1.5921
17104SOL     OW63289   8.710   1.867   2.999 -0.3601 -0.2640  0.0644
17104SOL    HW163290   8.661   1.832   3.074  0.1535 -1.9939 -0.3706
17104SOL    HW263291   8.790   1.902   3.038 -0.3184 -0.6943  0.3715
17105SOL     OW63292   8.680   4.372   8.563 -0.1552  0.5867 -0.3870
17105SOL    HW163293   8.605   4.380   8.503  1.7220 -1.1428 -3.1946
17105SOL    HW263294   8.739   4.311   8.519  2.7645  1.5645  1.8904
17106SOL     OW63295   6.623   9.061   2.112 -0.0187 -0.0140 -0.7671
17106SOL    HW163296   6.714   9.046   2.138  0.2369  1.0796 -1.0027
17106SOL    HW263297   6.625   9.142   2.062 -1.5514  1.6598  1.6724
17107SOL     OW63298   5.866   9.443   0.713  0.5686 -0.0863 -0.6547
17107SOL    HW163299   5.832   9.438   0.624 -0.2003  0.9598 -0.4330
17107SOL    HW263300   5.860   9.353   0.745 -0.5227 -0.2202 -1.1673
17108SOL     OW63301   9.080   2.659   3.818 -0.2948  0.2783  0.1288
17108SOL    HW163302   9.148   2.723   3.794 -0.5519  0.6870  0.4835
17108SOL    HW263303   9.129   2.585   3.854 -0.0733  0.8456  1.0118
17109SOL     OW63304   6.360   9.197   9.708 -0.1443  0.0106  0.2887
17109SOL    HW163305   6.324   9.186   9.620 -0.4655  0.8273  0.3108
17109SOL    HW263306   6.283   9.200   9.765 -0.0170  0.9166  0.4315
17110SOL     OW63307   8.467   9.005   5.359 -0.7167 -0.6526  0.3692
17110SOL    HW163308   8.548   8.979   5.316 -1.5084 -1.2246 -0.8300
17110SOL    HW263309   8.406   9.022   5.288 -1.2491  1.2104  1.2002
17111SOL     OW63310   7.817   8.830   8.250  0.9182  0.3868  0.1788
17111SOL    HW163311   7.750   8.772   8.286  2.2620 -0.6392  1.1040
17111SOL    HW263312   7.845   8.787   8.170  1.2422  0.2472  0.3667
17112SOL     OW63313   9.129   6.696   7.320  0.1227 -0.2434 -0.3128
17112SOL    HW163314   9.176   6.676   7.239 -0.1767 -2.4755 -0.0158
17112SOL    HW263315   9.046   6.649   7.312  0.1586 -0.6784  1.3491
17113SOL     OW63316   3.735   8.775   8.076 -0.3050  0.0879 -0.1675
17113SOL    HW163317   3.654   8.827   8.079  0.2030  0.8434  1.5776
17113SOL    HW263318   3.804   8.838   8.056 -0.0544 -0.4612 -1.1067
17114SOL     OW63319   0.847   7.171   3.165  0.0772 -0.5722  0.1255
17114SOL    HW163320   0.795   7.100   3.127  1.2901 -0.9843 -0.8463
17114SOL    HW263321   0.783   7.226   3.211 -1.1094 -1.4037 -0.4721
17115SOL     OW63322   3.091   0.402   5.320  0.0151 -0.2181  0.1036
17115SOL    HW163323   3.186   0.387   5.321 -0.0721 -0.7630  0.0583
17115SOL    HW263324   3.056   0.342   5.386 -0.3879 -0.6272 -0.4691
17116SOL     OW63325   5.912   8.589   3.588 -0.7745  0.0870 -0.0352
17116SOL    HW163326   5.928   8.669   3.539  1.3406  0.0772  0.5300
17116SOL    HW263327   5.994   8.539   3.580 -1.2954 -1.0772  1.3343
17117SOL     OW63328   3.888   5.157   6.654 -0.8128  0.1998 -0.8637
17117SOL    HW163329   3.910   5.066   6.674 -0.3633  0.8898  2.1495
17117SOL    HW263330   3.971   5.204   6.662 -1.3287  1.1318 -0.8355
17118SOL     OW63331   7.493   7.283   5.362  0.0114 -0.2190 -0.1311
17118SOL    HW163332   7.475   7.340   5.288 -0.4923  0.2103  0.3186
17118SOL    HW263333   7.541   7.209   5.324  2.3423  1.3459 -0.4594
17119SOL     OW63334   5.003   7.033   4.002 -0.1979  0.2303 -0.4584
17119SOL    HW163335   4.952   6.972   3.948  0.1101 -0.4385 -0.0028
17119SOL    HW263336   4.983   7.008   4.092  0.3484  0.4682 -0.2697
17120SOL     OW63337   1.980   6.401   9.658  0.3577  0.2557  0.2386
17120SOL    HW163338   1.946   6.436   9.576  1.7072  0.8900 -0.0834
17120SOL    HW263339   1.964   6.470   9.723  0.7316  0.4262  0.1529
17121SOL     OW63340   9.996   4.846  10.353  0.3211 -0.5090 -0.3027
17121SOL    HW163341   9.960   4.853  10.264 -0.7549 -0.7864  0.1032
17121SOL    HW263342  10.058   4.918  10.359 -0.8321  0.5526 -0.7102
17122SOL     OW63343   8.581   4.944   3.242 -0.2982  0.1096  0.3951
17122SOL    HW163344   8.571   4.849   3.237 -2.7485  0.2526  1.2780
17122SOL    HW263345   8.671   4.957   3.271  0.4538 -1.8695 -0.7739
17123SOL     OW63346   8.331   0.584   8.302 -0.1683 -0.1779  0.6026
17123SOL    HW163347   8.389   0.509   8.292 -0.4873 -0.4613  0.8303
17123SOL    HW263348   8.389   0.657   8.321  0.2810 -0.0449 -1.1322
17124SOL     OW63349   8.144   7.346   4.704  0.4326 -0.6777  0.5082
17124SOL    HW163350   8.175   7.428   4.667  0.1846 -0.6632  0.3296
17124SOL    HW263351   8.188   7.278   4.651  1.6996 -0.6835  1.5198
17125SOL     OW63352   4.467   3.118   2.298  0.4462  0.3189 -0.1008
17125SOL    HW163353   4.457   3.114   2.393 -1.3447  2.1937 -0.1511
17125SOL    HW263354   4.521   3.041   2.277  1.7014  0.3798  2.4862
17126SOL     OW63355   8.016   5.625   5.262  0.4760  0.3074  0.0840
17126SOL    HW163356   8.055   5.636   5.349  0.5584  1.2376 -0.0668
17126SOL    HW263357   8.048   5.699   5.211 -0.5666  0.4579 -0.3821
17127SOL     OW63358   4.160   8.048   5.389 -0.0469 -0.5840  0.2501
17127SOL    HW163359   4.255   8.035   5.386  0.3614  2.1747 -1.6184
17127SOL    HW263360   4.144   8.082   5.477  0.5884 -1.5774  0.7701
17128SOL     OW63361   6.476   9.435  10.198  0.4317  0.5733  0.3927
17128SOL    HW163362   6.469   9.518  10.150  1.0928  0.6821  0.4741
17128SOL    HW263363   6.527   9.457  10.277 -0.4770  0.3579  1.0612
17129SOL     OW63364   9.020   5.968   3.948 -1.3320  0.3023 -0.0376
17129SOL    HW163365   9.105   5.945   3.911 -1.3605 -0.5836  0.4280
17129SOL    HW263366   9.023   5.935   4.038 -1.2234  2.4956  0.8368
17130SOL     OW63367   4.406   2.605   9.705  0.1480  0.3738  0.1369
17130SOL    HW163368   4.407   2.566   9.618  0.4728  1.7688 -0.5103
17130SOL    HW263369   4.322   2.651   9.710  0.0834  0.2105  0.6033
17131SOL     OW63370   0.592   2.052   7.763  0.3914 -0.2599  0.2276
17131SOL    HW163371   0.500   2.026   7.758  0.5280 -0.7377  0.0703
17131SOL    HW263372   0.639   1.977   7.726  0.8921 -0.3571  1.0405
17132SOL     OW63373   0.682   5.237   3.132 -0.3638 -0.4700  0.3659
17132SOL    HW163374   0.760   5.270   3.176 -0.0121  0.9735 -1.2364
17132SOL    HW263375   0.712   5.164   3.078  0.0515  0.5178 -0.7800
17133SOL     OW63376   6.393   7.419   0.966 -0.2558 -0.7762 -0.2211
17133SOL    HW163377   6.366   7.454   0.881 -1.4148 -1.2695 -0.0687
17133SOL    HW263378   6.325   7.448   1.027  1.0559  0.4060  0.7652
17134SOL     OW63379   9.823   7.996   9.630 -0.4711 -0.3346 -0.1016
17134SOL    HW163380   9.762   7.924   9.618 -0.1768 -0.6573  0.2993
17134SOL    HW263381   9.894   7.959   9.683 -1.0771  0.6581  1.4928
17135SOL     OW63382   6.918   8.448   2.364  0.6614 -0.4383 -0.1351
17135SOL    HW163383   6.916   8.535   2.324 -0.2561 -0.4196 -0.0670
17135SOL    HW263384   6.919   8.387   2.290 -1.0636 -0.4048 -0.2252
17136SOL     OW63385   7.162   3.869   8.082 -0.0110 -0.0119  1.0845
17136SOL    HW163386   7.217   3.945   8.097 -0.0576  0.0077  1.1565
17136SOL    HW263387   7.078   3.905   8.053  0.5433 -0.0886 -0.7442
17137SOL     OW63388   3.607   0.077   9.836  0.1831 -0.6785 -0.0816
17137SOL    HW163389   3.699   0.058   9.815  0.1929 -0.7857  0.0590
17137SOL    HW263390   3.581   0.007   9.896 -0.2430 -1.1293 -0.7725
17138SOL     OW63391   4.848   6.000   8.944 -0.1365 -0.1808 -0.1824
17138SOL    HW163392   4.774   5.948   8.912  0.4767 -1.9103  1.0845
17138SOL    HW263393   4.847   6.078   8.889 -2.3630 -0.5537 -0.7876
17139SOL     OW63394   0.074   8.096   7.225 -0.1767  0.5421  0.1393
17139SOL    HW163395   0.114   8.176   7.192  0.1373  0.3528  0.0583
17139SOL    HW263396   0.148   8.038   7.244 -0.4185  0.0918 -0.2606
17140SOL     OW63397   5.317   3.110   6.704 -0.3694 -0.2631 -0.2145
17140SOL    HW163398   5.265   3.117   6.784 -2.4245 -0.5777 -1.4638
17140SOL    HW263399   5.376   3.185   6.708  0.1997 -0.7444  1.9763
17141SOL     OW63400   3.409   1.228   2.369 -0.0768 -0.2330  0.0946
17141SOL    HW163401   3.395   1.197   2.280  0.3556  1.1845 -0.4797
17141SOL    HW263402   3.326   1.268   2.394 -0.3740 -1.1050  0.5427
17142SOL     OW63403   5.128   6.918   8.400  0.6060 -0.0835  0.4511
17142SOL    HW163404   5.103   6.916   8.307  2.9044  0.3680 -0.2218
17142SOL    HW263405   5.138   6.825   8.423 -0.6345 -0.2308  0.4715
17143SOL     OW63406   8.052   2.256   4.320  0.2048  0.0619  0.0623
17143SOL    HW163407   7.973   2.204   4.311 -0.2861  0.9373 -0.7842
17143SOL    HW263408   8.061   2.269   4.415  0.4055 -1.6194  0.3121
17144SOL     OW63409   2.929   6.358   5.875 -0.4516  0.9643  0.0873
17144SOL    HW163410   2.926   6.285   5.938 -1.4403  0.4925 -0.4870
17144SOL    HW263411   2.883   6.429   5.918 -0.8194  0.7543  0.0444
17145SOL     OW63412   3.356   7.981   7.357 -0.2463  0.2940  0.2936
17145SOL    HW163413   3.310   8.055   7.317  0.2603  0.6297  0.3243
17145SOL    HW263414   3.428   8.021   7.405 -0.1630 -0.1977  0.5874
17146SOL     OW63415  10.006   4.587   5.559 -0.5749  0.0582 -0.1460
17146SOL    HW163416  10.035   4.496   5.565 -1.2879 -0.1923 -0.4352
17146SOL    HW263417  10.062   4.634   5.622  0.6667 -0.3415 -0.9191
17147SOL     OW63418   1.258   3.893   3.723  0.1125 -0.3393  0.4571
17147SOL    HW163419   1.211   3.942   3.792  0.1429 -0.0725  0.2890
17147SOL    HW263420   1.244   3.801   3.746 -0.2573 -0.2578  0.5694
17148SOL     OW63421   5.902   5.136   5.621 -0.2021  0.2704 -0.1372
17148SOL    HW163422   5.964   5.072   5.653  0.0964  1.8630  2.8159
17148SOL    HW263423   5.905   5.207   5.685 -3.4666  1.4177 -1.0488
17149SOL     OW63424   5.114   9.907   1.392  0.1719 -0.1394 -0.2145
17149SOL    HW163425   5.027   9.898   1.431  0.5437  0.6405  0.8408
17149SOL    HW263426   5.135  10.000   1.400  2.3882 -0.7317  2.4993
17150SOL     OW63427   8.907   1.790   2.176  0.2998  0.0317 -0.3319
17150SOL    HW163428   8.969   1.844   2.226  1.7582 -1.5331 -0.3768
17150SOL    HW263429   8.922   1.814   2.085  0.0679  0.4068 -0.2764
17151SOL     OW63430   5.703   7.292   7.502  0.1670  0.2996 -0.3483
17151SOL    HW163431   5.696   7.198   7.485  0.4351 -0.2400  2.0818
17151SOL    HW263432   5.619   7.315   7.541  0.3560  0.9208 -0.2967
17152SOL     OW63433   6.786   2.457   9.361  0.4501 -0.5263  0.2274
17152SOL    HW163434   6.881   2.457   9.347  0.2323 -3.8848 -2.5246
17152SOL    HW263435   6.774   2.398   9.435  0.4803 -0.2699  0.4383
17153SOL     OW63436   0.360   8.358  10.065 -0.4842  0.4480 -0.0066
17153SOL    HW163437   0.434   8.386  10.118 -0.8717  0.0488  0.7476
17153SOL    HW263438   0.322   8.284  10.112 -1.1167  0.3832 -0.5972
17154SOL     OW63439   0.905   3.916   9.880  0.3904 -0.2095  0.5399
17154SOL    HW163440   0.931   3.861   9.954 -1.2388 -0.4057  1.0017
17154SOL    HW263441   0.980   3.974   9.866  1.7209 -1.7812  0.7515
17155SOL     OW63442   7.745   9.428   5.754 -0.1848  0.5165 -0.5797
17155SOL    HW163443   7.708   9.471   5.831 -2.1794  2.0596 -2.2615
17155SOL    HW263444   7.673   9.426   5.691  1.5027 -0.1454 -2.6086
17156SOL     OW63445  10.260   3.025   4.894 -0.0703 -0.1877  0.2628
17156SOL    HW163446  10.304   3.104   4.862 -0.6892 -0.1098 -0.4310
17156SOL    HW263447  10.168   3.051   4.904 -0.3369 -0.8905 -0.2634
17157SOL     OW63448   6.372   8.133   6.333  0.9668 -0.4930  0.2899
17157SOL    HW163449   6.319   8.187   6.274  1.0682 -0.9773 -0.2490
17157SOL    HW263450   6.442   8.191   6.362  0.0164  0.2312  1.2007
17158SOL     OW63451   1.686   5.019   1.020  0.0021  0.3789 -0.0335
17158SOL    HW163452   1.653   5.002   0.932  1.5858  0.4214 -0.6597
17158SOL    HW263453   1.646   5.102   1.045  0.9966  1.3470 -1.5069
17159SOL     OW63454   7.788   0.462   3.682  0.1287  0.3043 -0.3597
17159SOL    HW163455   7.725   0.516   3.634 -1.0017  0.0745  0.8372
17159SOL    HW263456   7.761   0.372   3.665  0.8340  0.1517 -0.7439
17160SOL     OW63457   5.782   4.825   5.945  0.7317 -0.7584  0.0480
17160SOL    HW163458   5.754   4.808   6.035  0.8305 -1.4695 -0.0457
17160SOL    HW263459   5.773   4.919   5.934  0.6241 -0.6797  0.7720
17161SOL     OW63460   5.516   2.962   2.049 -0.3794 -0.0412 -0.5417
17161SOL    HW163461   5.441   2.911   2.080 -2.1289  1.4764 -2.0363
17161SOL    HW263462   5.556   2.998   2.128 -1.1036 -1.0312  0.2966
17162SOL     OW63463   3.195   1.160   6.721 -0.0003 -0.0318 -0.2126
17162SOL    HW163464   3.283   1.126   6.740 -0.0324  0.7710  1.5067
17162SOL    HW263465   3.204   1.201   6.635  1.9282  1.9648  0.8282
17163SOL     OW63466   0.721   3.928   7.822 -0.2580 -0.4549 -0.1468
17163SOL    HW163467   0.743   3.920   7.730 -0.3585  1.2476 -0.3607
17163SOL    HW263468   0.638   3.881   7.831 -0.3258 -0.5062 -0.9629
17164SOL     OW63469   4.599   8.447   5.075 -0.2732  0.0869  0.3113
17164SOL    HW163470   4.648   8.526   5.098  0.7429 -1.1799  2.8656
17164SOL    HW263471   4.660   8.375   5.091 -1.3086 -1.3004 -1.5305
17165SOL     OW63472   1.673  10.023   8.555  0.1740  0.0608  0.3329
17165SOL    HW163473   1.738   9.976   8.503  0.7786  1.3352 -0.1158
17165SOL    HW263474   1.590   9.981   8.533  0.7740 -1.3385  0.6122
17166SOL     OW63475   5.359   5.591   5.241  0.0958  0.7682  0.8771
17166SOL    HW163476   5.357   5.500   5.212  0.1143  1.6114 -2.2157
17166SOL    HW263477   5.283   5.600   5.298  0.0429 -1.1440  1.1589
17167SOL     OW63478   7.935   3.686   5.567  0.0678 -0.5596  0.5082
17167SOL    HW163479   7.939   3.778   5.544  0.7582 -0.5214  0.7451
17167SOL    HW263480   7.847   3.658   5.543  0.0257  0.0337 -0.0411
17168SOL     OW63481   6.937   2.458   1.207  0.0390  0.4792 -0.5337
17168SOL    HW163482   6.885   2.399   1.154  0.5048  0.7716 -1.3247
17168SOL    HW263483   7.019   2.468   1.160 -0.2938  2.3150 -0.8133
17169SOL     OW63484   6.393   2.553   7.390  0.0983 -0.0563  0.5184
17169SOL    HW163485   6.373   2.560   7.484  0.4982  2.5649  0.4797
17169SOL    HW263486   6.308   2.560   7.347 -0.1957 -2.1361  0.6258
17170SOL     OW63487   1.500   4.929   8.178  0.6667  0.0643  0.5632
17170SOL    HW163488   1.569   4.863   8.180 -1.3576 -2.2154  0.7186
17170SOL    HW263489   1.491   4.951   8.085 -0.2985 -1.8944  0.1206
17171SOL     OW63490   0.769   0.920   8.011  0.2753 -0.2891 -0.7937
17171SOL    HW163491   0.771   0.939   8.105 -0.7180  1.8316 -1.1518
17171SOL    HW263492   0.688   0.870   7.999  0.1389 -0.1262 -0.5766
17172SOL     OW63493   3.893   8.424   3.513  0.4132  0.2435 -0.1910
17172SOL    HW163494   3.946   8.410   3.434  1.1556  0.4677  0.2545
17172SOL    HW263495   3.930   8.503   3.553  0.0524  0.1237  0.3914
17173SOL     OW63496   0.767   5.812   5.493 -0.4987 -0.1285  0.7332
17173SOL    HW163497   0.685   5.767   5.472 -1.3951  1.3388  0.9469
17173SOL    HW263498   0.810   5.823   5.409 -0.6776 -0.6213  0.5727
17174SOL     OW63499   1.823   4.409   8.212  0.1355 -0.0398  0.6684
17174SOL    HW163500   1.751   4.377   8.158  1.8001 -1.5608 -0.8153
17174SOL    HW263501   1.840   4.338   8.274  1.1569 -0.2921  0.1277
17175SOL     OW63502   0.785   2.517   0.483  0.2682  0.0546  0.1119
17175SOL    HW163503   0.736   2.473   0.552  1.2392 -1.0432  0.1240
17175SOL    HW263504   0.803   2.448   0.419 -1.1764  1.1628 -1.6073
17176SOL     OW63505   2.534   7.246   6.854  0.4288  0.4320 -0.4915
17176SOL    HW163506   2.473   7.241   6.781  1.4739  0.8558 -1.4300
17176SOL    HW263507   2.500   7.185   6.920 -0.0825 -0.5825 -1.6733
17177SOL     OW63508   7.143   3.365   2.872  0.0311  0.3378 -0.1404
17177SOL    HW163509   7.217   3.310   2.848  0.9380  0.8000  1.4652
17177SOL    HW263510   7.080   3.305   2.913 -0.2190  0.0585 -0.9136
17178SOL     OW63511   1.626   5.898   8.245  0.1584 -0.6539 -0.3956
17178SOL    HW163512   1.669   5.883   8.329  0.1595 -1.0743 -0.4678
17178SOL    HW263513   1.627   5.993   8.233  0.2600 -0.6028  0.0249
17179SOL     OW63514   4.819   8.038   7.227 -0.4547  0.0684 -0.3614
17179SOL    HW163515   4.802   8.013   7.136  1.3703 -2.5175 -0.0897
17179SOL    HW263516   4.774   7.973   7.279  0.3735  0.1951  0.5370
17180SOL     OW63517   3.181   8.936   7.680 -0.2184  0.5750  0.4223
17180SOL    HW163518   3.183   9.025   7.715  0.9253  1.7353 -2.3230
17180SOL    HW263519   3.273   8.911   7.672 -0.4862 -0.2839 -0.1837
17181SOL     OW63520  10.236   4.266   5.920 -0.3304  0.4706 -0.2394
17181SOL    HW163521  10.148   4.264   5.882 -1.1145  0.0578  1.5041
17181SOL    HW263522  10.294   4.237   5.848 -1.4759  1.5816 -1.6776
17182SOL     OW63523   6.958   9.486   2.011  0.2373  0.4387  0.5894
17182SOL    HW163524   6.898   9.545   1.965 -0.7734 -0.5455  0.5935
17182SOL    HW263525   6.986   9.536   2.088 -1.2123  0.6556  1.0134
17183SOL     OW63526   8.855   0.109   9.199  0.7628  1.1306  0.3657
17183SOL    HW163527   8.934   0.091   9.149 -0.2769  1.4596 -1.4821
17183SOL    HW263528   8.784   0.107   9.135 -0.7206  1.1158  1.9045
17184SOL     OW63529   6.571   1.444   9.973  0.1368 -0.1422 -0.0111
17184SOL    HW163530   6.574   1.349   9.988  0.8303 -0.4466 -1.8380
17184SOL    HW263531   6.658   1.475   9.997  0.9869 -0.5103 -2.3905
17185SOL     OW63532   3.205   7.274   6.349  0.0028  0.0330  0.2314
17185SOL    HW163533   3.212   7.361   6.308  1.1739  0.3520  1.0512
17185SOL    HW263534   3.296   7.245   6.358 -0.1925 -0.0291  2.5364
17186SOL     OW63535   4.727   8.156   1.265 -0.2402 -0.3727  0.9382
17186SOL    HW163536   4.806   8.209   1.276  0.1394 -0.5033 -0.7644
17186SOL    HW263537   4.656   8.221   1.257 -0.1238 -0.2074  1.2506
17187SOL     OW63538   0.614   7.695   9.795 -0.3540  0.0979 -0.6032
17187SOL    HW163539   0.640   7.603   9.800 -2.1020 -0.3900  3.5266
17187SOL    HW263540   0.672   7.740   9.856 -1.0917  1.3130 -0.7612
17188SOL     OW63541  10.110   3.332   6.535  0.0176 -0.0760 -0.1815
17188SOL    HW163542  10.174   3.300   6.599  1.0919  0.0433 -1.1746
17188SOL    HW263543  10.162   3.378   6.469 -0.9534 -1.0152 -1.6561
17189SOL     OW63544   5.055   7.083   9.480  0.0045  0.4454  0.4583
17189SOL    HW163545   5.046   7.140   9.404  1.5789  0.9415  0.6112
17189SOL    HW263546   4.974   7.032   9.481 -1.2584  2.3179  0.0382
17190SOL     OW63547   9.970   7.832   3.525  0.1658  0.3577  0.2315
17190SOL    HW163548  10.008   7.747   3.503 -0.0099  0.4138 -0.3060
17190SOL    HW263549   9.930   7.819   3.612 -0.2538 -0.2386 -0.0429
17191SOL     OW63550   2.779   5.443   2.665 -0.1839  0.3000 -0.0657
17191SOL    HW163551   2.755   5.466   2.755  0.8081  1.3808 -0.0463
17191SOL    HW263552   2.837   5.367   2.674  0.0770  0.5317  0.2357
17192SOL     OW63553   8.332   3.273   9.632 -0.3843  0.1250  0.0678
17192SOL    HW163554   8.264   3.247   9.570 -1.2235 -0.4816  1.2112
17192SOL    HW263555   8.413   3.266   9.582 -0.6545 -3.5621 -0.1319
17193SOL     OW63556   7.729   3.082   0.755  0.0351 -0.9180  0.2514
17193SOL    HW163557   7.788   3.021   0.712  0.5422 -0.9049  0.9146
17193SOL    HW263558   7.766   3.095   0.842  0.9487  1.6850 -0.4415
17194SOL     OW63559   3.000   7.766   7.490 -0.0776  0.2034  0.5313
17194SOL    HW163560   2.968   7.844   7.444 -0.1183 -1.6736 -2.9541
17194SOL    HW263561   3.093   7.782   7.503  0.4691 -0.0229 -2.4132
17195SOL     OW63562   6.878   4.753   6.459 -0.4791  0.4772 -0.5613
17195SOL    HW163563   6.953   4.763   6.400 -0.8359  1.4474 -0.8840
17195SOL    HW263564   6.880   4.662   6.486  2.1602  0.9575  1.2560
17196SOL     OW63565   9.433   5.566   0.958 -0.0677  0.0183 -0.3053
17196SOL    HW163566   9.411   5.659   0.959  1.5496  0.4299  0.5656
17196SOL    HW263567   9.529   5.565   0.952 -0.1164 -1.6162 -1.4189
17197SOL     OW63568   5.397   2.706   3.053 -0.1975 -0.1761 -0.3521
17197SOL    HW163569   5.370   2.625   3.011  0.1592  0.0006 -0.9440
17197SOL    HW263570   5.441   2.679   3.133 -0.4778 -0.5418 -0.3220
17198SOL     OW63571   6.035   3.912   5.764  0.1484 -0.1300 -0.0422
17198SOL    HW163572   6.121   3.955   5.767  0.5375 -0.9263  1.0039
17198SOL    HW263573   6.026   3.872   5.851 -1.1106 -0.3956 -0.2804
17199SOL     OW63574   8.866   9.293   7.340  0.1625  0.3306  0.7266
17199SOL    HW163575   8.859   9.325   7.250  0.3093  1.4869  1.1048
17199SOL    HW263576   8.801   9.223   7.346 -1.8248  2.0521  0.4746
17200SOL     OW63577   0.858   1.771  10.085  0.0119  0.6896  0.1918
17200SOL    HW163578   0.785   1.779  10.147 -2.0897 -1.0444 -1.8574
17200SOL    HW263579   0.842   1.840  10.020 -0.1708 -0.0804 -0.5927
17201SOL     OW63580   6.911   3.796   8.979  0.5191 -0.8601 -0.1959
17201SOL    HW163581   6.991   3.745   8.963  1.1342  0.3120 -1.0507
17201SOL    HW263582   6.932   3.884   8.946  0.3625  0.6628  3.2943
17202SOL     OW63583   1.094   6.843   5.642 -0.0818  0.4795 -0.1596
17202SOL    HW163584   1.092   6.790   5.562  0.1213  1.7971 -1.0792
17202SOL    HW263585   1.183   6.833   5.675 -0.3835 -0.6646  0.3331
17203SOL     OW63586   6.274   1.410   9.553  0.1174  0.3180 -0.1221
17203SOL    HW163587   6.331   1.445   9.485 -0.4625  0.8212 -0.3622
17203SOL    HW263588   6.334   1.383   9.623  0.9174 -2.2983 -1.6943
17204SOL     OW63589   4.947   7.560   1.323  0.1495 -1.3419  1.0109
17204SOL    HW163590   5.039   7.536   1.323  0.0254 -1.8276  1.1909
17204SOL    HW263591   4.946   7.650   1.292  0.6717 -1.3775  0.8807
17205SOL     OW63592   7.412   3.977   1.110  0.2194  0.1052  0.3368
17205SOL    HW163593   7.486   4.035   1.130  0.1646  1.2709 -2.3758
17205SOL    HW263594   7.450   3.890   1.106  1.1685  0.5021  0.3848
17206SOL     OW63595   9.384   1.357   3.930 -0.1079 -0.0486  0.7555
17206SOL    HW163596   9.408   1.403   4.010 -3.1377  0.1816  1.6559
17206SOL    HW263597   9.369   1.267   3.958  0.5089 -0.3788  0.0622
17207SOL     OW63598   6.415   3.805   9.132  0.1669  0.3345  0.2821
17207SOL    HW163599   6.432   3.778   9.042  0.0579  0.1898  0.3051
17207SOL    HW263600   6.498   3.791   9.177  0.1781  0.2618  0.2388
17208SOL     OW63601   7.343   8.667   1.327  0.2609  0.0233  0.5831
17208SOL    HW163602   7.417   8.608   1.314 -1.7307 -2.7410  0.7829
17208SOL    HW263603   7.313   8.689   1.239 -0.7815 -1.8396  0.4145
17209SOL     OW63604   2.670   9.656   3.422 -0.1836 -0.4817 -0.1015
17209SOL    HW163605   2.682   9.591   3.492  0.8170 -0.2897 -0.0750
17209SOL    HW263606   2.580   9.642   3.391 -0.7300 -0.4230  1.3692
17210SOL     OW63607   3.097   6.338   9.154  0.4130  0.1583  0.2559
17210SOL    HW163608   3.075   6.398   9.083  0.4492  1.7043  1.5197
17210SOL    HW263609   3.018   6.332   9.207  0.7440 -0.0833  0.7278
17211SOL     OW63610   0.437   8.734   8.570  0.1184  0.1488 -0.1059
17211SOL    HW163611   0.402   8.649   8.545  0.6602  0.1220 -0.7972
17211SOL    HW263612   0.477   8.768   8.490  0.6169  0.7049  0.3715
17212SOL     OW63613   9.579   0.213   2.329  0.1360 -0.0963  0.7049
17212SOL    HW163614   9.535   0.134   2.299  0.1057 -0.0964  0.7493
17212SOL    HW263615   9.667   0.184   2.354  0.2223 -0.0619  0.4398
17213SOL     OW63616   7.691   3.409   8.701 -0.0654  0.2133 -0.1293
17213SOL    HW163617   7.663   3.500   8.716  0.2929  0.0891  1.5672
17213SOL    HW263618   7.615   3.367   8.661  0.1430  1.4934 -1.9834
17214SOL     OW63619   0.058   8.005   5.795 -0.1414 -0.0550 -0.3454
17214SOL    HW163620   0.145   8.034   5.822  0.0969 -0.8228 -0.2732
17214SOL    HW263621   0.046   7.920   5.837 -0.8404 -0.0578 -0.5297
17215SOL     OW63622   4.347   2.560   5.747  0.3219  0.4822  0.4382
17215SOL    HW163623   4.318   2.619   5.817  0.4577 -0.5067  1.3528
17215SOL    HW263624   4.433   2.530   5.775  1.6233  2.1749 -1.5057
17216SOL     OW63625   1.625   7.357   1.567 -0.4662 -0.1209  0.0100
17216SOL    HW163626   1.547   7.382   1.518 -2.0916 -1.8040  1.6064
17216SOL    HW263627   1.643   7.431   1.625 -2.3231 -0.6074  1.2861
17217SOL     OW63628   0.320  10.229   1.311 -0.4691  0.5325  0.2375
17217SOL    HW163629   0.293  10.321   1.309  0.5376  0.8242 -0.2286
17217SOL    HW263630   0.407  10.230   1.350 -0.7228 -0.3031  0.8503
17218SOL     OW63631   8.779   6.765   7.708 -0.4465  0.0006 -0.2601
17218SOL    HW163632   8.837   6.835   7.678 -1.7145  0.9773 -0.5559
17218SOL    HW263633   8.691   6.797   7.688 -1.0555 -1.8436 -0.7129
17219SOL     OW63634   8.198   9.457   5.393 -0.1753  0.4293 -0.4425
17219SOL    HW163635   8.202   9.531   5.454  1.6599 -0.6740  0.8623
17219SOL    HW263636   8.156   9.387   5.444  1.3740 -0.5066 -0.3979
17220SOL     OW63637  10.108   5.127   2.925 -0.7045 -0.2041  0.3541
17220SOL    HW163638  10.035   5.186   2.941  0.4441  0.6556  3.0243
17220SOL    HW263639  10.125   5.087   3.011  0.8434 -1.7143 -0.5970
17221SOL     OW63640   7.422   8.842   2.255  0.1985 -0.1640 -1.3186
17221SOL    HW163641   7.472   8.783   2.312 -1.2160  0.1221  0.2967
17221SOL    HW263642   7.485   8.908   2.227  1.3672 -1.3790 -1.6373
17222SOL     OW63643   1.958   6.023   1.728  0.2754  0.2897 -0.3807
17222SOL    HW163644   1.987   6.065   1.809  1.5621 -0.3250 -0.5087
17222SOL    HW263645   1.983   6.085   1.659 -3.0552  2.0282 -0.2259
17223SOL     OW63646   4.608  10.284   9.754  0.5709 -0.3549  0.2575
17223SOL    HW163647   4.695  10.281   9.715  0.6893 -0.4054  0.5234
17223SOL    HW263648   4.554  10.229   9.696  0.7162 -0.3291  0.0974
17224SOL     OW63649   6.277   0.240   0.973  0.4737 -0.6168  0.4363
17224SOL    HW163650   6.337   0.173   0.941 -0.1728 -1.3445  0.7119
17224SOL    HW263651   6.244   0.205   1.056  0.0151 -0.0275  0.5136
17225SOL     OW63652   7.544   2.898   7.054 -0.0809 -0.1784  0.0496
17225SOL    HW163653   7.456   2.916   7.086 -0.2062 -0.7444  0.0418
17225SOL    HW263654   7.592   2.867   7.131  1.0612  3.1137  0.8194
17226SOL     OW63655   9.711   5.480   3.181 -0.1739  0.7194  0.2942
17226SOL    HW163656   9.682   5.514   3.266  2.2515 -1.3780  2.1430
17226SOL    HW263657   9.798   5.443   3.199  0.5132  0.3090 -3.1843
17227SOL     OW63658   5.574   0.421   2.727 -0.1234  0.4739  0.0729
17227SOL    HW163659   5.616   0.337   2.708 -1.3729  0.0279 -0.8526
17227SOL    HW263660   5.609   0.481   2.660 -0.5186  0.2516 -0.3356
17228SOL     OW63661   0.543   8.534   8.130  0.1720  0.0719  0.3371
17228SOL    HW163662   0.535   8.468   8.061 -0.3299 -1.2194  1.5730
17228SOL    HW263663   0.604   8.599   8.094  0.7994 -1.1302 -0.8694
17229SOL     OW63664   0.435   9.393   9.384 -0.2449 -0.1389 -0.0676
17229SOL    HW163665   0.415   9.483   9.358  0.6735 -0.0817 -0.6307
17229SOL    HW263666   0.351   9.348   9.380 -0.6216  0.5703 -0.3185
17230SOL     OW63667   1.202   0.963   9.702 -0.6283  0.1520 -0.2163
17230SOL    HW163668   1.111   0.941   9.683 -0.5437 -0.6205  0.1957
17230SOL    HW263669   1.199   1.007   9.786 -0.5130 -1.0754  0.4622
17231SOL     OW63670   8.503   0.334   6.581  0.1367 -0.1401  0.5518
17231SOL    HW163671   8.497   0.291   6.495  1.1952  2.0561 -0.6852
17231SOL    HW263672   8.585   0.301   6.618  0.5909  0.2584 -0.0787
17232SOL     OW63673   5.716   0.915   7.455 -0.0334 -0.4179  0.2285
17232SOL    HW163674   5.707   0.988   7.394  0.2122 -0.8249 -0.3041
17232SOL    HW263675   5.667   0.843   7.415 -0.5612 -0.4470  0.9162
17233SOL     OW63676   7.462   7.346   7.271  0.1262  0.4100 -0.4444
17233SOL    HW163677   7.441   7.260   7.234  1.3829  0.5953 -1.6995
17233SOL    HW263678   7.490   7.327   7.360 -0.4385 -0.3760 -0.4233
17234SOL     OW63679   7.883   7.518   5.721  0.2350  0.2288  0.0119
17234SOL    HW163680   7.790   7.502   5.738  0.4918 -0.8959  0.4444
17234SOL    HW263681   7.886   7.539   5.627 -0.2537 -1.6154 -0.4629
17235SOL     OW63682   0.254   5.052   2.725 -0.1105 -0.5311  0.2178
17235SOL    HW163683   0.185   5.117   2.709 -0.9486 -1.5646 -0.5290
17235SOL    HW263684   0.243   5.028   2.817  0.4470  0.6235  0.6116
17236SOL     OW63685   3.833   0.145   0.323 -0.2058 -0.0136  0.0181
17236SOL    HW163686   3.893   0.081   0.359  1.6885  1.7361  0.1601
17236SOL    HW263687   3.818   0.116   0.233  0.5662 -0.6747  0.0903
17237SOL     OW63688   7.871   1.366   3.872  0.8826  0.1853  0.6489
17237SOL    HW163689   7.827   1.314   3.939  0.3667 -0.4601 -0.1685
17237SOL    HW263690   7.964   1.360   3.894  1.0092 -2.2593 -0.1745
17238SOL     OW63691   1.210   8.262   7.185 -0.1798 -0.1269  0.4155
17238SOL    HW163692   1.206   8.342   7.237 -0.3481  0.0904  0.0734
17238SOL    HW263693   1.289   8.273   7.131 -0.8016  0.3167 -0.4361
17239SOL     OW63694   0.445   1.734   8.619  0.0797  0.4368  0.0336
17239SOL    HW163695   0.479   1.791   8.550 -0.7529  0.3199 -0.4876
17239SOL    HW263696   0.402   1.793   8.680  2.7356  0.8299  1.7259
17240SOL     OW63697   9.852   1.259   3.329 -0.5469 -0.3000 -0.0069
17240SOL    HW163698   9.762   1.283   3.350 -1.2292 -1.3319 -1.5915
17240SOL    HW263699   9.845   1.176   3.281  1.4382 -1.9378  2.2417
17241SOL     OW63700   9.331   1.637   6.503  0.5278  0.4576  0.1274
17241SOL    HW163701   9.268   1.685   6.555 -2.7764 -2.1161 -1.1333
17241SOL    HW263702   9.319   1.670   6.414  0.8855 -0.1237 -0.1471
17242SOL     OW63703   7.405   8.397   2.551  0.3076 -0.1367  0.1542
17242SOL    HW163704   7.444   8.320   2.591  0.0551 -0.2207  0.2415
17242SOL    HW263705   7.360   8.363   2.473 -0.5982 -0.2203  0.7011
17243SOL     OW63706   2.238   9.031   4.584 -0.2362  0.1301 -0.3014
17243SOL    HW163707   2.276   9.095   4.644 -1.0425  0.0163  0.3390
17243SOL    HW263708   2.305   8.964   4.576 -0.1722  0.0732  0.5894
17244SOL     OW63709   0.607   5.220   7.544 -0.3210 -0.5824  0.7720
17244SOL    HW163710   0.604   5.252   7.634 -0.1144 -1.5626  1.1369
17244SOL    HW263711   0.638   5.130   7.551  3.1830  0.3534 -0.5415
17245SOL     OW63712   6.098   0.255   2.587  0.4078 -0.5257  0.4406
17245SOL    HW163713   6.167   0.189   2.594 -0.0359 -0.7894  3.0324
17245SOL    HW263714   6.025   0.219   2.637 -0.3429  1.3094  0.7309
17246SOL     OW63715   5.996   8.691   8.824  0.1562  0.1318 -0.6838
17246SOL    HW163716   6.043   8.772   8.844  2.0869 -0.7736 -1.3079
17246SOL    HW263717   5.940   8.714   8.749  1.1903  0.7304 -1.2936
17247SOL     OW63718  10.138   5.078   4.148  0.3516  0.1373 -0.6451
17247SOL    HW163719  10.055   5.043   4.182  1.4198 -2.2671 -0.2953
17247SOL    HW263720  10.185   5.108   4.226 -0.3557  2.0386 -0.8978
17248SOL     OW63721   2.762   3.497   0.749  0.2038  0.0835 -0.4525
17248SOL    HW163722   2.737   3.488   0.841 -0.0448  0.4559 -0.4844
17248SOL    HW263723   2.723   3.421   0.706  0.7467 -0.3683 -0.1652
17249SOL     OW63724   0.149   7.777   1.957  0.2215 -0.3021  0.0542
17249SOL    HW163725   0.153   7.872   1.949 -0.4189 -0.1859  0.9775
17249SOL    HW263726   0.240   7.748   1.945  0.5292  0.4780  0.4533
17250SOL     OW63727   2.815   4.372   6.462  0.2857 -0.8239 -0.5109
17250SOL    HW163728   2.859   4.404   6.384 -0.7525  0.7712 -0.4823
17250SOL    HW263729   2.722   4.389   6.446 -0.0294 -1.2991  0.6921
17251SOL     OW63730   7.180   1.475   3.826  0.3803 -0.1111  0.1018
17251SOL    HW163731   7.139   1.413   3.766  0.3293  0.5606 -0.5601
17251SOL    HW263732   7.119   1.548   3.832  0.1059 -0.4113  1.4347
17252SOL     OW63733  10.171   0.117   7.533 -0.2326 -0.0737  0.3480
17252SOL    HW163734  10.078   0.139   7.527 -0.7222 -0.5493  3.8598
17252SOL    HW263735  10.216   0.201   7.531 -0.4352  0.0889 -3.3032
17253SOL     OW63736   9.238   3.825   7.946  0.7998  0.1808  0.1354
17253SOL    HW163737   9.237   3.881   8.023  0.7327  2.0687 -1.1712
17253SOL    HW263738   9.264   3.739   7.979 -0.2933  0.6411  2.4130
17254SOL     OW63739   6.821   5.417   7.755  0.2567  0.6564 -0.3637
17254SOL    HW163740   6.782   5.360   7.820 -1.3430 -0.8255 -2.4741
17254SOL    HW263741   6.913   5.422   7.779  0.3454 -2.3400  0.2644
17255SOL     OW63742   3.084   4.570   0.650 -0.1224  0.4460  0.2063
17255SOL    HW163743   3.019   4.512   0.689 -0.9064  0.3843 -1.1233
17255SOL    HW263744   3.080   4.650   0.703 -0.9221  0.2513  0.4532
17256SOL     OW63745   0.573   8.353   7.074  0.3382 -0.0946  0.6723
17256SOL    HW163746   0.617   8.283   7.123  1.5568  0.5894  0.5925
17256SOL    HW263747   0.508   8.388   7.136 -1.6205 -2.4782  0.0993
17257SOL     OW63748   9.962   2.607   7.488 -0.1178  0.2670 -0.6992
17257SOL    HW163749   9.948   2.631   7.580 -2.2012  0.0875 -0.9340
17257SOL    HW263750  10.046   2.561   7.488 -0.7830 -1.0529  1.3815
17258SOL     OW63751   6.373   5.931   0.884  0.1807  0.4992  0.2113
17258SOL    HW163752   6.382   5.859   0.946 -0.1509  0.9619  0.8050
17258SOL    HW263753   6.453   5.982   0.894 -0.0616  0.8176  0.5883
17259SOL     OW63754   9.135   3.082   3.901 -0.1462 -0.4417 -0.4573
17259SOL    HW163755   9.211   3.136   3.879 -0.5004  0.4105  0.3109
17259SOL    HW263756   9.079   3.086   3.824  1.0425 -1.9469 -1.4416
17260SOL     OW63757   4.381   6.396   9.156  0.2597  0.5035  0.0629
17260SOL    HW163758   4.432   6.475   9.138  2.0086 -0.2250  1.4899
17260SOL    HW263759   4.351   6.407   9.246 -0.5698  0.1011 -0.1627
17261SOL     OW63760   2.343   3.485   8.367  0.4642 -0.5531  0.5529
17261SOL    HW163761   2.281   3.520   8.303  0.4410 -1.3619  0.1192
17261SOL    HW263762   2.417   3.545   8.364 -0.0457  0.0957  0.6519
17262SOL     OW63763   9.072   0.371   3.053  0.7536 -0.2957  0.2912
17262SOL    HW163764   9.114   0.397   3.135  1.5885 -1.8178  0.3907
17262SOL    HW263765   9.145   0.344   2.996  0.2024  0.9043 -1.0372
17263SOL     OW63766   3.695   5.954   4.916  0.3919 -0.0630 -0.0872
17263SOL    HW163767   3.726   5.880   4.969  1.0818  0.5385  0.3505
17263SOL    HW263768   3.677   6.023   4.979 -1.2371 -0.1710 -0.3879
17264SOL     OW63769   9.290   0.800   8.834 -0.4190  0.0547  0.2505
17264SOL    HW163770   9.335   0.871   8.789  1.7623 -1.1168  0.4058
17264SOL    HW263771   9.327   0.720   8.796 -0.7597 -0.9857  1.9656
17265SOL     OW63772   4.406   0.236   0.259  0.0679 -0.2513  0.1603
17265SOL    HW163773   4.489   0.203   0.224 -0.6848 -0.6030 -1.4061
17265SOL    HW263774   4.357   0.264   0.181 -1.6404 -0.8929  0.9547
17266SOL     OW63775   9.031   8.513   2.922 -0.0908  0.0433  0.5009
17266SOL    HW163776   9.013   8.501   3.016  0.2452  0.9711  0.6962
17266SOL    HW263777   9.116   8.556   2.920  1.3534 -2.6315 -0.3334
17267SOL     OW63778   0.006   0.625   4.430  0.4880  0.5431  1.1729
17267SOL    HW163779   0.082   0.573   4.456  1.7218  1.8691  0.3490
17267SOL    HW263780  -0.067   0.562   4.430  1.9153 -1.2075  0.1786
17268SOL     OW63781   4.199   3.450   9.155  0.4655  0.0400 -0.3440
17268SOL    HW163782   4.134   3.506   9.114  0.6842 -0.2805 -1.1427
17268SOL    HW263783   4.234   3.502   9.227  0.0685  0.6047 -0.5552
17269SOL     OW63784   5.296   7.158   1.898 -0.1197 -0.7235 -0.5879
17269SOL    HW163785   5.245   7.161   1.979  1.1870  0.1764  0.2515
17269SOL    HW263786   5.256   7.224   1.842 -1.5603 -1.9370 -1.0350
17270SOL     OW63787   8.802   3.245   5.331  0.1887  0.2311  0.5999
17270SOL    HW163788   8.772   3.185   5.399 -0.8911  0.1590  0.0897
17270SOL    HW263789   8.796   3.332   5.371 -1.3111  0.2751  0.3458
17271SOL     OW63790   3.437   6.119   5.858 -0.0442  0.4663  0.0667
17271SOL    HW163791   3.435   6.205   5.817  0.5115  0.1335 -0.6683
17271SOL    HW263792   3.384   6.129   5.937  1.0036  1.8130  0.6307
17272SOL     OW63793   6.578   5.824   3.636  0.5342  0.0254 -0.2479
17272SOL    HW163794   6.624   5.827   3.552  1.3389  0.8389  0.2003
17272SOL    HW263795   6.644   5.793   3.698 -0.0582 -0.5834  0.0856
17273SOL     OW63796   4.736   8.672   5.107  0.0399 -0.4924 -0.2664
17273SOL    HW163797   4.759   8.723   5.030  0.2923 -0.3841 -0.1197
17273SOL    HW263798   4.705   8.736   5.170  0.5174 -0.5000 -0.0207
17274SOL     OW63799   8.205   2.874   9.538 -0.2675 -0.6136 -0.4353
17274SOL    HW163800   8.177   2.811   9.471 -0.9812  1.6975 -2.4328
17274SOL    HW263801   8.139   2.867   9.607 -0.3824 -1.9554 -0.6522
17275SOL     OW63802   3.234   7.687   5.805 -0.0920  0.3613  0.4648
17275SOL    HW163803   3.267   7.776   5.817 -0.2311  0.5324 -0.3804
17275SOL    HW263804   3.155   7.697   5.753 -0.5588 -0.1941  1.0362
17276SOL     OW63805   7.897   5.273   6.460 -0.0938 -0.1437 -0.6579
17276SOL    HW163806   7.988   5.247   6.474  0.6355  1.7765 -1.5068
17276SOL    HW263807   7.870   5.315   6.541  0.7151  1.7260 -1.3148
17277SOL     OW63808  10.015   7.148   1.728  0.4006  0.0858  0.4220
17277SOL    HW163809  10.077   7.081   1.700 -0.1768 -0.5934  0.7436
17277SOL    HW263810   9.930   7.118   1.696  0.5069  2.2631 -2.2600
17278SOL     OW63811   2.042   2.691   0.528  0.2398 -0.1231  0.2854
17278SOL    HW163812   2.095   2.769   0.512 -0.8741  0.2971 -1.7733
17278SOL    HW263813   2.042   2.644   0.445 -5.0657  1.5679 -1.0877
17279SOL     OW63814   7.744   8.202   8.611 -0.1388  0.1203 -0.0160
17279SOL    HW163815   7.755   8.124   8.665 -0.8235  0.3546  0.4798
17279SOL    HW263816   7.767   8.174   8.523  0.2627 -0.4642  0.2685
17280SOL     OW63817   7.082   8.730   9.349  0.2999  0.0181 -0.1283
17280SOL    HW163818   6.991   8.719   9.322 -0.3165  0.2149  1.7348
17280SOL    HW263819   7.129   8.660   9.304 -0.9018 -0.5360 -0.5604
17281SOL     OW63820   9.642   1.425   6.089 -0.1368  0.4744 -0.0637
17281SOL    HW163821   9.594   1.378   6.021 -1.2452  0.4916  0.6821
17281SOL    HW263822   9.685   1.497   6.043  0.9056 -0.7513 -1.0845
17282SOL     OW63823   9.367   6.760   5.558  0.6213  0.4639 -0.7748
17282SOL    HW163824   9.359   6.839   5.612  1.3512 -1.2389  2.0068
17282SOL    HW263825   9.277   6.729   5.547  0.5591 -0.4858  1.7183
17283SOL     OW63826   3.212   2.100   8.048 -0.5314 -0.6146  0.1037
17283SOL    HW163827   3.269   2.089   8.124  0.8424  0.6097 -0.6938
17283SOL    HW263828   3.272   2.124   7.977 -1.9754  0.1106 -0.9159
17284SOL     OW63829   4.498   6.646   5.914  0.2517  0.1196  0.2648
17284SOL    HW163830   4.429   6.703   5.948 -0.6504 -0.1814 -1.0134
17284SOL    HW263831   4.465   6.557   5.928 -0.0090 -0.0172 -1.0771
17285SOL     OW63832   0.075   0.352   0.543  0.3968 -0.2571 -0.0363
17285SOL    HW163833   0.037   0.321   0.461  1.7128  0.9410 -1.1522
17285SOL    HW263834   0.131   0.425   0.517 -1.1438  1.8925  2.2431
17286SOL     OW63835   1.166   7.686   6.884 -0.5082 -0.4268 -0.0657
17286SOL    HW163836   1.174   7.592   6.867 -0.1104 -0.6598  1.2481
17286SOL    HW263837   1.234   7.704   6.949 -2.5875  0.1095  2.1199
17287SOL     OW63838   9.514   5.449   5.753  0.2977 -0.3433 -0.0630
17287SOL    HW163839   9.563   5.518   5.799  0.9834 -1.0509  0.2906
17287SOL    HW263840   9.446   5.422   5.815  0.6878 -0.7049  0.2145
17288SOL     OW63841   3.321   2.471   0.434 -0.5701  0.3971 -0.4722
17288SOL    HW163842   3.405   2.437   0.466 -1.6381 -2.4457 -0.4248
17288SOL    HW263843   3.305   2.549   0.486  0.7944 -0.5175  1.4329
17289SOL     OW63844   8.001   7.487   2.114 -0.2480 -0.1617  0.4818
17289SOL    HW163845   8.055   7.516   2.040 -0.3273 -2.3000 -0.4807
17289SOL    HW263846   7.915   7.469   2.075 -1.0006  0.9189  1.5618
17290SOL     OW63847   4.159   0.544   5.705 -0.4922  0.2861  0.3328
17290SOL    HW163848   4.102   0.466   5.708  0.4016 -0.4631 -1.1005
17290SOL    HW263849   4.230   0.523   5.766  0.2493 -0.4980 -0.7358
17291SOL     OW63850   3.818   1.684   6.412  0.1806  0.2070 -0.2135
17291SOL    HW163851   3.771   1.749   6.464 -0.3145  0.8779 -1.4583
17291SOL    HW263852   3.757   1.611   6.402 -0.9775  1.3972 -2.4856
17292SOL     OW63853   2.258   0.307   3.597 -0.3161 -0.6448  0.0970
17292SOL    HW163854   2.260   0.261   3.681  0.6729  0.0726  0.4795
17292SOL    HW263855   2.342   0.351   3.592 -0.2142 -0.9766 -1.4559
17293SOL     OW63856   2.563   6.994   7.251 -0.9337 -0.3055  0.8626
17293SOL    HW163857   2.636   7.025   7.304 -0.5149  0.2049 -0.0056
17293SOL    HW263858   2.532   6.915   7.297 -0.3837 -0.0506  1.6887
17294SOL     OW63859   1.599   8.893   1.179 -0.3187  0.3205  0.0600
17294SOL    HW163860   1.568   8.978   1.146 -0.7042  0.1600  0.0037
17294SOL    HW263861   1.638   8.851   1.103  0.2108  0.5995  0.1724
17295SOL     OW63862   3.637   8.819   8.970  0.2158  0.3169 -0.1589
17295SOL    HW163863   3.685   8.870   8.905 -0.0459  2.0708  0.9519
17295SOL    HW263864   3.634   8.876   9.047 -0.0112 -1.4393  1.1924
17296SOL     OW63865   4.204  10.176   9.971  0.0953 -0.3789  0.8460
17296SOL    HW163866   4.286  10.196   9.925  1.4362 -0.8817  2.8847
17296SOL    HW263867   4.180  10.259  10.014  2.0954 -1.2004  3.9215
17297SOL     OW63868   9.992   9.457   7.908  0.0791 -0.0243  0.1980
17297SOL    HW163869   9.972   9.550   7.921  2.8333  0.6312  0.4173
17297SOL    HW263870   9.907   9.416   7.894 -1.0438  3.0400 -3.5424
17298SOL     OW63871  10.181   1.725  10.192 -0.1204 -0.2142  0.0630
17298SOL    HW163872  10.105   1.733  10.135 -0.1699 -2.4953 -0.3064
17298SOL    HW263873  10.205   1.815  10.213 -1.9675  0.6065 -1.0534
17299SOL     OW63874   8.067  10.376   2.025 -0.2988  0.4529  0.2632
17299SOL    HW163875   7.987  10.354   1.977  1.1783 -0.8101 -1.7999
17299SOL    HW263876   8.104  10.292   2.050  0.1706  1.0371  1.6014
17300SOL     OW63877   1.532   4.321   8.523  0.6950  0.3595  0.0458
17300SOL    HW163878   1.483   4.403   8.520  0.6797  0.4874  2.1786
17300SOL    HW263879   1.465   4.253   8.522  0.6292  0.4291 -0.2348
17301SOL     OW63880   7.183   9.167   6.516 -0.3944  0.1796 -0.0938
17301SOL    HW163881   7.110   9.106   6.530  0.5320 -1.0831 -0.5925
17301SOL    HW263882   7.212   9.190   6.604 -0.0836 -0.9485  0.1154
17302SOL     OW63883   2.147   4.334   0.835  0.2544 -0.3361 -0.3405
17302SOL    HW163884   2.071   4.367   0.786 -0.9755 -1.8974  0.4275
17302SOL    HW263885   2.142   4.239   0.826  1.4255 -0.5307  0.7772
17303SOL     OW63886   6.129   3.121   2.361 -0.3569  0.5727 -0.4200
17303SOL    HW163887   6.087   3.077   2.287  1.3360 -1.1142 -0.4636
17303SOL    HW263888   6.150   3.208   2.329  1.4121 -0.4880 -2.4340
17304SOL     OW63889   5.781   7.874   0.427 -0.2091  0.2884  0.2899
17304SOL    HW163890   5.693   7.904   0.453 -1.1710 -1.2915 -0.9210
17304SOL    HW263891   5.800   7.802   0.487  0.3545  0.7314  0.6527
17305SOL     OW63892  10.074   0.427   8.867 -0.1724  0.1332 -0.0651
17305SOL    HW163893  10.031   0.511   8.882 -0.7705 -0.2889  0.6905
17305SOL    HW263894  10.048   0.402   8.778 -0.6267  0.3938 -0.0093
17306SOL     OW63895   1.469   2.162   6.912  0.2334  0.0201  0.2345
17306SOL    HW163896   1.515   2.143   6.994 -0.3220  0.3847  0.6403
17306SOL    HW263897   1.521   2.119   6.844  0.3368 -0.8661  0.8569
17307SOL     OW63898   7.457   9.603   3.512 -0.1103  0.0230  0.6795
17307SOL    HW163899   7.457   9.639   3.424  0.6965 -0.4609  0.4656
17307SOL    HW263900   7.396   9.658   3.561 -1.4721 -0.4296 -0.4621
17308SOL     OW63901   6.665   8.114   8.229 -0.3008 -0.2300  0.6940
17308SOL    HW163902   6.635   8.120   8.320 -2.5557  0.9517 -0.0603
17308SOL    HW263903   6.702   8.201   8.211  1.2765 -0.8463  0.8080
17309SOL     OW63904   6.152   0.540  10.240  0.2826 -0.3249  0.3080
17309SOL    HW163905   6.114   0.614  10.287  2.4784  0.9493  0.1984
17309SOL    HW263906   6.113   0.463  10.281  0.4136  0.7972  2.6803
17310SOL     OW63907   7.535   4.801   7.182  0.0911 -0.2184  0.5524
17310SOL    HW163908   7.599   4.866   7.212  0.7375 -0.9373  0.7848
17310SOL    HW263909   7.497   4.838   7.103  1.8091 -0.3688 -0.3835
17311SOL     OW63910   4.692   7.866  10.324 -0.8628  0.2037 -0.0468
17311SOL    HW163911   4.635   7.903  10.391  1.2606  1.3307  1.2492
17311SOL    HW263912   4.756   7.814  10.373  0.4751  0.6892 -1.2199
17312SOL     OW63913   4.752   7.530   8.512 -0.0417  0.8479 -0.0139
17312SOL    HW163914   4.727   7.441   8.537  1.5917  0.4464  0.3502
17312SOL    HW263915   4.761   7.577   8.594  2.1327  0.4366  0.0533
17313SOL     OW63916   5.230   9.392   9.798  0.7996 -0.5228 -0.0506
17313SOL    HW163917   5.189   9.418   9.715  1.3506 -0.8247 -0.4225
17313SOL    HW263918   5.246   9.475   9.843 -0.6298 -0.4167  0.3119
17314SOL     OW63919   3.824   2.722   8.772  0.8917 -0.7191  0.4968
17314SOL    HW163920   3.815   2.816   8.791  0.7365 -0.5038 -0.6024
17314SOL    HW263921   3.870   2.687   8.848  0.3953  0.1315  1.2156
17315SOL     OW63922   1.050   3.391   1.814  0.1560  0.4889  0.3414
17315SOL    HW163923   0.961   3.378   1.781  0.6108  1.6025 -1.4311
17315SOL    HW263924   1.065   3.315   1.872 -0.8213 -1.4160 -1.7476
17316SOL     OW63925   1.985   8.768   7.793  0.4337 -0.0189 -0.5705
17316SOL    HW163926   1.971   8.858   7.763  2.7076  1.0491  1.2507
17316SOL    HW263927   1.902   8.743   7.833  0.1702  1.7944  0.0955
17317SOL     OW63928   0.004   6.315   6.780 -0.4256 -0.2753 -0.4476
17317SOL    HW163929   0.058   6.286   6.706 -0.3275 -0.1160 -0.4367
17317SOL    HW263930  -0.043   6.236   6.807 -1.1651 -0.1321 -1.2787
17318SOL     OW63931   8.989   3.067   7.550 -0.1233  0.3222  0.4855
17318SOL    HW163932   9.011   3.097   7.462 -0.4776 -1.9340 -0.4551
17318SOL    HW263933   9.054   3.108   7.607  0.7843  0.9666 -0.9757
17319SOL     OW63934   1.096   2.279   9.880 -0.2170 -0.0658 -0.2584
17319SOL    HW163935   1.065   2.320   9.799 -0.1799  0.8582  0.1828
17319SOL    HW263936   1.077   2.343   9.948  1.8857  0.1885  0.1604
17320SOL     OW63937   0.503  10.014   9.945 -0.1474 -0.1651  0.5224
17320SOL    HW163938   0.518  10.109   9.954  1.6600 -0.4290  0.6393
17320SOL    HW263939   0.568   9.986   9.881 -0.4294 -1.3853  0.7611
17321SOL     OW63940   3.044   6.237   3.446 -0.2907  0.0641 -0.1667
17321SOL    HW163941   2.963   6.279   3.473 -0.3867 -0.9106  1.1201
17321SOL    HW263942   3.017   6.165   3.389 -0.4405 -1.1089  1.3548
17322SOL     OW63943   5.397   2.814   9.443 -0.3789 -0.3873  0.2647
17322SOL    HW163944   5.382   2.766   9.361 -0.5420 -0.1685  0.1638
17322SOL    HW263945   5.471   2.770   9.484  0.1745 -0.0557 -0.3526
17323SOL     OW63946   1.476  10.039   7.893  0.2955  0.2664 -0.2507
17323SOL    HW163947   1.479   9.982   7.817  1.6786  0.8810 -0.6861
17323SOL    HW263948   1.568  10.053   7.917 -0.0499  1.5336  0.4247
17324SOL     OW63949   0.418   4.514   9.248  0.1726 -0.1255  0.2789
17324SOL    HW163950   0.325   4.534   9.244 -0.2694 -2.0450 -2.9188
17324SOL    HW263951   0.447   4.516   9.156  3.5132  1.2183  1.2193
17325SOL     OW63952   8.301   1.690   8.533  0.1152  0.1409 -0.1352
17325SOL    HW163953   8.329   1.760   8.475  1.4534 -0.8434 -0.7419
17325SOL    HW263954   8.381   1.663   8.578 -0.6417 -0.0470  1.1465
17326SOL     OW63955   2.751   8.789   2.518 -0.1022 -0.3082  0.1345
17326SOL    HW163956   2.769   8.817   2.607 -1.2047 -0.7030  0.5064
17326SOL    HW263957   2.701   8.707   2.528 -0.2223 -0.3722 -0.8327
17327SOL     OW63958   7.380   2.133   4.494 -0.1790 -0.3256 -0.3567
17327SOL    HW163959   7.455   2.159   4.548  0.8651 -0.3709 -1.7347
17327SOL    HW263960   7.338   2.063   4.544  2.6482 -2.6760 -0.9919
17328SOL     OW63961   7.962   6.796   2.604 -0.4451  0.2214 -0.1123
17328SOL    HW163962   7.984   6.888   2.587  0.7248  0.0589  0.4056
17328SOL    HW263963   7.936   6.794   2.696 -1.2606  0.1645 -0.3407
17329SOL     OW63964   7.450   7.802   8.360 -0.4134  0.3024  0.4384
17329SOL    HW163965   7.449   7.709   8.336 -1.4179  0.4001  0.0295
17329SOL    HW263966   7.529   7.837   8.320 -1.2251  0.1084 -1.4674
17330SOL     OW63967   9.894   7.859   1.157 -0.0922 -0.1171  0.2016
17330SOL    HW163968   9.931   7.773   1.138 -1.8033 -0.9970  0.6731
17330SOL    HW263969   9.871   7.855   1.250 -0.1767  0.8730  0.2309
17331SOL     OW63970   1.857   3.355   4.772 -0.1381  0.4932 -0.2607
17331SOL    HW163971   1.844   3.445   4.742 -1.3942  0.7129  0.8693
17331SOL    HW263972   1.947   3.335   4.747  0.0317  1.9109 -0.9082
17332SOL     OW63973   3.058   8.029   9.063  0.4905  0.4662  0.4484
17332SOL    HW163974   3.076   8.118   9.032 -1.0986  1.1763  1.4609
17332SOL    HW263975   3.029   7.982   8.985 -0.2760  1.3142  0.2064
17333SOL     OW63976   9.017   7.844   6.601  0.3581  0.9306  0.3878
17333SOL    HW163977   9.037   7.755   6.571  0.2030  1.5841 -1.8251
17333SOL    HW263978   9.025   7.839   6.696 -1.5256 -1.9283  0.5286
17334SOL     OW63979   0.962   5.627   6.162  0.8529 -0.1396 -0.2043
17334SOL    HW163980   0.898   5.640   6.092 -1.2600 -0.2469  1.6036
17334SOL    HW263981   1.046   5.647   6.121 -0.3699  0.6376 -2.5307
17335SOL     OW63982   5.303   6.444   7.311  0.2251 -0.0819 -0.4585
17335SOL    HW163983   5.384   6.493   7.301  0.2995 -0.2613 -0.7517
17335SOL    HW263984   5.330   6.353   7.318  0.2045  0.0163  1.7091
17336SOL     OW63985   6.455   2.965   7.431 -0.5248 -0.1200 -0.3111
17336SOL    HW163986   6.457   2.929   7.342 -0.6091 -0.3874 -0.2059
17336SOL    HW263987   6.491   3.053   7.422  3.7527 -1.5901  0.0500
17337SOL     OW63988   7.993   9.418   0.277  0.4674 -0.8208 -0.0413
17337SOL    HW163989   7.944   9.409   0.359  1.5321 -1.5705  0.5472
17337SOL    HW263990   7.992   9.331   0.238 -1.1091 -0.1986 -1.5092
17338SOL     OW63991   1.136   6.668   9.311 -0.2184 -0.6392  0.4646
17338SOL    HW163992   1.155   6.715   9.230 -1.4478  0.3550  0.7400
17338SOL    HW263993   1.141   6.575   9.286 -4.0335 -0.4478 -1.6744
17339SOL     OW63994   0.974   0.126   9.615  0.1627 -0.3126 -0.4347
17339SOL    HW163995   0.957   0.214   9.581  0.0419 -0.3113 -0.3687
17339SOL    HW263996   0.928   0.067   9.555  1.7714 -0.4654 -1.6091
17340SOL     OW63997   8.519   2.052   5.146  0.0910 -0.2840  0.0763
17340SOL    HW163998   8.535   2.096   5.230 -0.2128  1.2752 -0.6285
17340SOL    HW263999   8.563   2.108   5.081 -1.2745 -0.3932 -0.9992
17341SOL     OW64000   1.074   4.661  10.035 -0.0902  0.7457 -0.1854
17341SOL    HW164001   1.043   4.626   9.951  0.9603 -1.4389  0.2556
17341SOL    HW264002   0.995   4.689  10.081 -0.9125 -0.1623 -1.0088
17342SOL     OW64003   2.208   0.434   9.256  0.1563  0.1122 -0.4669
17342SOL    HW164004   2.275   0.501   9.243  0.3194 -0.4387 -2.9925
17342SOL    HW264005   2.135   0.480   9.298  1.4240  1.0971  0.7436
17343SOL     OW64006   3.751   6.670   6.600 -0.2043  0.8199 -0.5219
17343SOL    HW164007   3.779   6.700   6.686 -1.3464  0.8831 -0.1587
17343SOL    HW264008   3.700   6.591   6.617 -2.5417  2.1354 -0.8444
17344SOL     OW64009   5.117   4.013   7.045 -0.0480  0.0618  0.1450
17344SOL    HW164010   5.171   4.078   7.091  0.8497 -1.5695  1.5180
17344SOL    HW264011   5.170   3.986   6.970  1.1698 -1.6029  1.5413
17345SOL     OW64012   5.656   5.595   2.144  0.0945 -0.6900 -0.5845
17345SOL    HW164013   5.574   5.595   2.195  1.9248  0.0153  2.6247
17345SOL    HW264014   5.695   5.510   2.162  1.8446  0.4125  1.2392
17346SOL     OW64015   4.598   3.939   7.912 -0.0834 -0.4072  0.3160
17346SOL    HW164016   4.606   3.845   7.894  0.9906  0.2621 -3.6395
17346SOL    HW264017   4.682   3.963   7.951 -1.2071 -1.3351  3.6579
17347SOL     OW64018   6.345   1.951   8.276 -0.6562 -0.4988 -0.6315
17347SOL    HW164019   6.364   1.912   8.361 -2.1357 -0.8683 -0.4515
17347SOL    HW264020   6.427   1.941   8.226  0.5850  0.6443  1.0462
17348SOL     OW64021   6.483   3.892   2.321 -0.0900 -0.0739  0.2415
17348SOL    HW164022   6.543   3.822   2.346  0.0581  0.6362  2.0625
17348SOL    HW264023   6.404   3.875   2.371 -0.4692  0.4218 -0.1792
17349SOL     OW64024   0.754   7.324   2.729  0.1985 -0.3286  0.0031
17349SOL    HW164025   0.771   7.349   2.819 -0.9309  2.9734 -0.5409
17349SOL    HW264026   0.832   7.350   2.681 -0.2340  0.5025 -0.2905
17350SOL     OW64027   2.467   7.043   7.694  0.4553  0.1723  0.2605
17350SOL    HW164028   2.480   7.119   7.751  0.8628  0.1383  0.2137
17350SOL    HW264029   2.447   7.081   7.608 -1.6718  0.2358  0.7376
17351SOL     OW64030   8.628   8.626   7.024  0.3302 -0.1388 -0.1102
17351SOL    HW164031   8.616   8.714   6.989  0.2138 -0.0551  0.1452
17351SOL    HW264032   8.601   8.632   7.115 -0.0698 -0.5332 -0.1975
17352SOL     OW64033   2.489   6.092   4.150  0.1583 -0.5105 -0.0508
17352SOL    HW164034   2.422   6.097   4.219 -0.0814  1.1707 -0.3850
17352SOL    HW264035   2.570   6.069   4.197 -0.6596 -2.8865  0.3168
17353SOL     OW64036   1.666   5.251   7.221 -0.2669  0.3827  0.2256
17353SOL    HW164037   1.747   5.259   7.172 -0.3393  0.7289  0.1593
17353SOL    HW264038   1.693   5.247   7.313 -0.2818  3.4211  0.4701
17354SOL     OW64039   7.238   7.526   0.620 -0.2324 -0.5096 -0.4147
17354SOL    HW164040   7.147   7.556   0.624 -0.0175  0.0933  0.2959
17354SOL    HW264041   7.243   7.455   0.683  0.1004  0.3732  0.5831
17355SOL     OW64042   9.708   2.137   4.259  0.3754  0.0073 -0.4512
17355SOL    HW164043   9.789   2.086   4.268  0.1851 -0.0870  0.9510
17355SOL    HW264044   9.734   2.227   4.274  0.0724 -0.1317  0.9743
17356SOL     OW64045   6.822   0.386   4.686 -0.2718  0.0581 -0.1480
17356SOL    HW164046   6.842   0.437   4.765 -1.5412 -2.3779  1.9093
17356SOL    HW264047   6.731   0.409   4.666 -0.3700 -0.2703 -0.0896
17357SOL     OW64048   7.071   1.389   9.417  0.0252 -0.0782  0.4105
17357SOL    HW164049   7.022   1.335   9.479  0.9466  0.4794  1.6719
17357SOL    HW264050   7.162   1.385   9.447  0.3270  1.0860 -0.2595
17358SOL     OW64051   0.336   7.374   8.941 -0.2943 -0.1047  0.4012
17358SOL    HW164052   0.293   7.457   8.959 -0.7564 -0.3480  0.4391
17358SOL    HW264053   0.293   7.340   8.863  0.7792  0.2988 -0.3764
17359SOL     OW64054   9.060   6.228   1.632 -0.2024 -0.2535 -0.0393
17359SOL    HW164055   9.053   6.323   1.632  0.4201 -0.1977 -0.4990
17359SOL    HW264056   8.972   6.197   1.653 -0.5788  0.4151 -0.5839
17360SOL     OW64057  10.172   1.959   1.902 -0.4645 -0.3283 -0.3732
17360SOL    HW164058  10.167   1.904   1.980 -0.4592 -0.8193 -0.7180
17360SOL    HW264059  10.262   1.952   1.872 -0.2392  0.5330  0.0504
17361SOL     OW64060   6.016   9.384   5.695 -0.5439  1.0568 -0.6216
17361SOL    HW164061   5.933   9.378   5.647 -0.4400 -1.2950 -0.6571
17361SOL    HW264062   6.034   9.293   5.721  2.1027  1.4824 -0.7655
17362SOL     OW64063   3.058   0.080   8.026  0.4131  0.7208 -0.0512
17362SOL    HW164064   3.147   0.113   8.008 -0.4186  3.2565  0.1018
17362SOL    HW264065   3.005   0.116   7.955 -0.4904 -1.0309 -0.3149
17363SOL     OW64066   2.713   8.095   4.867 -0.1315  0.2416  0.3996
17363SOL    HW164067   2.695   8.009   4.828 -0.1811  0.3447  0.1952
17363SOL    HW264068   2.716   8.155   4.793  0.0609  0.3912  0.5284
17364SOL     OW64069   0.636   1.342   6.211 -0.0732 -0.4492  0.0858
17364SOL    HW164070   0.547   1.375   6.198  0.0098 -0.0543  0.5000
17364SOL    HW264071   0.685   1.416   6.245  1.6610  0.8717 -4.4742
17365SOL     OW64072   4.725   7.191   3.339 -0.3534  0.3464 -0.3195
17365SOL    HW164073   4.720   7.104   3.299 -3.1787  0.7050 -0.9109
17365SOL    HW264074   4.744   7.250   3.266  0.6786  0.3508 -0.0616
17366SOL     OW64075   8.455   6.720   9.515  0.2189  0.5554 -0.2115
17366SOL    HW164076   8.416   6.800   9.480 -0.8564  0.2242  0.1884
17366SOL    HW264077   8.471   6.665   9.439 -1.1048  0.2706 -0.2988
17367SOL     OW64078   2.804   7.031   4.646  0.2408 -0.5257  0.0018
17367SOL    HW164079   2.749   6.969   4.695 -0.7507  0.5143  0.2588
17367SOL    HW264080   2.889   7.027   4.689  0.3310 -2.0207 -0.2704
17368SOL     OW64081   3.057   1.574   9.909 -0.0308 -0.2230  0.0702
17368SOL    HW164082   3.048   1.669   9.908  1.3712 -0.0464  1.1794
17368SOL    HW264083   2.969   1.542   9.887 -0.1278  1.2841 -2.0469
17369SOL     OW64084   5.163   8.726   1.839  0.3556 -0.0288 -0.0065
17369SOL    HW164085   5.178   8.820   1.824  0.6993 -0.1265 -0.3045
17369SOL    HW264086   5.246   8.685   1.814  0.3851 -0.3624  0.6246
17370SOL     OW64087   1.754   5.058   0.225  0.8067  0.0537 -0.2170
17370SOL    HW164088   1.796   5.115   0.160  1.5708 -0.4841 -0.2062
17370SOL    HW264089   1.720   4.984   0.173  0.7785 -0.0170 -0.0976
17371SOL     OW64090   5.097   2.787   2.875  0.0339 -0.2787 -0.1560
17371SOL    HW164091   5.045   2.739   2.939 -1.5042  1.3154 -0.1488
17371SOL    HW264092   5.035   2.816   2.809  0.8456  1.7002 -0.1458
17372SOL     OW64093   7.809   0.234   6.799 -0.0793  0.0035  0.0495
17372SOL    HW164094   7.886   0.257   6.746 -0.2894 -1.2526 -0.8432
17372SOL    HW264095   7.839   0.161   6.853  0.0898  1.1765  1.6074
17373SOL     OW64096   3.649   9.688   4.715 -0.1971  0.0697 -0.0551
17373SOL    HW164097   3.733   9.711   4.674 -0.7061  0.7362 -0.7592
17373SOL    HW264098   3.659   9.715   4.806  1.0990 -1.7945  0.4008
17374SOL     OW64099   8.635   8.162   3.877 -0.5403  0.1406 -0.4672
17374SOL    HW164100   8.711   8.197   3.925  0.9158 -0.7776 -1.9805
17374SOL    HW264101   8.644   8.067   3.884 -0.3340 -0.0207 -2.4165
17375SOL     OW64102   6.634   5.170   6.429  0.1274 -0.0377 -0.2726
17375SOL    HW164103   6.635   5.078   6.402 -2.0308 -0.0009 -0.6859
17375SOL    HW264104   6.558   5.207   6.384 -0.0668  1.5232  1.2241
17376SOL     OW64105   9.667   5.994   8.585 -0.0091  0.1006 -0.7357
17376SOL    HW164106   9.594   5.937   8.560 -0.8387  0.3724  0.8892
17376SOL    HW264107   9.693   6.037   8.504 -2.6611  1.0871 -1.1670
17377SOL     OW64108   5.107   7.335   7.360  0.3655 -0.5729  0.2323
17377SOL    HW164109   5.123   7.333   7.454  0.9697 -0.8811  0.1258
17377SOL    HW264110   5.192   7.352   7.321  0.0248  0.0979 -0.2384
17378SOL     OW64111   1.570   0.994   5.989  0.0283 -0.0655 -0.2494
17378SOL    HW164112   1.555   1.000   6.083 -0.9625  0.5066 -0.4298
17378SOL    HW264113   1.555   0.902   5.968 -2.0194  0.1999 -0.1827
17379SOL     OW64114   3.219   5.633   7.812  0.3511 -0.2946  0.3393
17379SOL    HW164115   3.224   5.572   7.738  0.3902  0.8290 -0.6052
17379SOL    HW264116   3.197   5.717   7.773 -0.2739  0.2043  1.6813
17380SOL     OW64117   8.369   5.290   9.127  0.2695 -0.1006  0.0838
17380SOL    HW164118   8.395   5.328   9.211  0.6918  0.8395 -0.4601
17380SOL    HW264119   8.377   5.196   9.140 -1.6398 -0.1128  1.7546
17381SOL     OW64120   1.062   7.882   0.266  0.0323 -0.0585  0.0853
17381SOL    HW164121   0.980   7.893   0.313 -1.0529  0.4817 -1.8431
17381SOL    HW264122   1.083   7.789   0.275 -2.2503 -0.8321 -1.6072
17382SOL     OW64123   6.909   8.465   2.826  0.4157  0.0905  0.1100
17382SOL    HW164124   6.868   8.378   2.822  1.5522 -0.5657  1.6809
17382SOL    HW264125   6.839   8.525   2.801 -0.7047 -1.1999  0.0002
17383SOL     OW64126   8.916   8.941   3.397  0.4540 -0.2235  0.5909
17383SOL    HW164127   8.887   8.969   3.484  0.3742  0.4249  0.3615
17383SOL    HW264128   8.995   8.993   3.380 -0.3988  0.8276 -0.3609
17384SOL     OW64129   4.958   5.441   6.172  0.4620 -0.3108  0.0464
17384SOL    HW164130   5.042   5.483   6.190  0.7110 -0.2315 -1.1772
17384SOL    HW264131   4.951   5.442   6.076 -0.9375 -0.3043  0.1214
17385SOL     OW64132   0.033   8.548   6.763 -0.0065 -0.5426 -0.5614
17385SOL    HW164133   0.054   8.593   6.681  3.2812  2.2164  1.4991
17385SOL    HW264134  -0.045   8.592   6.795 -0.6940 -0.9191 -1.6552
17386SOL     OW64135   4.022   0.564   1.690  0.0029 -0.2618  0.1828
17386SOL    HW164136   3.971   0.560   1.771 -0.8483 -0.3246 -0.3443
17386SOL    HW264137   3.987   0.639   1.643  1.4539  0.6303  0.4860
17387SOL     OW64138   3.974   0.153   2.612  0.1752 -0.4760  0.4771
17387SOL    HW164139   3.930   0.109   2.684 -1.3385  0.3710  0.1185
17387SOL    HW264140   3.978   0.245   2.639 -1.6330  0.1153 -0.9901
17388SOL     OW64141   3.230  10.199   4.196 -0.0605 -0.3117 -0.4938
17388SOL    HW164142   3.235  10.184   4.102  2.7739  0.9303 -0.6459
17388SOL    HW264143   3.316  10.234   4.219 -1.0222  0.4161  2.3938
17389SOL     OW64144   4.708   0.145   8.650 -0.2912  0.8358  0.3345
17389SOL    HW164145   4.798   0.113   8.637 -0.2629  1.1265 -0.2497
17389SOL    HW264146   4.659   0.068   8.679  0.0975  0.6165  0.4157
17390SOL     OW64147   5.121   5.936   8.008 -0.3018  0.5025  0.1813
17390SOL    HW164148   5.216   5.942   8.012 -0.2402 -0.6857  1.3512
17390SOL    HW264149   5.091   6.025   7.992  1.0294  0.7560 -1.0720
17391SOL     OW64150   4.946   2.688   5.964  0.4280 -0.2387  0.3440
17391SOL    HW164151   4.930   2.649   5.878  0.0513  0.7644 -0.0610
17391SOL    HW264152   5.040   2.707   5.965  0.1807  1.2705 -0.5498
17392SOL     OW64153   4.272   8.244   8.774 -0.3652 -0.3983  0.4487
17392SOL    HW164154   4.356   8.265   8.734 -1.6182  2.5499 -1.0080
17392SOL    HW264155   4.285   8.161   8.818  2.8600 -0.7717 -0.9885
17393SOL     OW64156   9.037   9.086   5.144  0.4993  0.8460  0.0308
17393SOL    HW164157   8.957   9.034   5.149  1.2748 -0.2704  2.0754
17393SOL    HW264158   9.010   9.168   5.102 -1.2441 -0.2828 -1.1693
17394SOL     OW64159   1.553   1.011   7.940 -0.4083 -0.3362  0.4201
17394SOL    HW164160   1.565   0.935   7.997 -0.4552  0.2699  1.2572
17394SOL    HW264161   1.622   1.003   7.874  0.2613 -0.5310  1.1321
17395SOL     OW64162   4.601   0.514   9.858  0.6636  0.1224 -0.3370
17395SOL    HW164163   4.521   0.523   9.807  0.2062  2.4212  0.6887
17395SOL    HW264164   4.672   0.525   9.794  0.1757 -0.9645 -1.0871
17396SOL     OW64165   6.946   9.793   6.440 -0.6235  0.4207 -0.0823
17396SOL    HW164166   6.901   9.796   6.356 -1.5207 -0.2533  0.3535
17396SOL    HW264167   6.904   9.862   6.492  1.0393  1.9704 -0.6795
17397SOL     OW64168   9.704   1.964   4.476 -0.7843 -0.1913 -0.2222
17397SOL    HW164169   9.789   1.920   4.473 -0.4697  0.4161 -0.3694
17397SOL    HW264170   9.724   2.052   4.507 -1.6327 -0.6878  1.9428
17398SOL     OW64171   9.396   5.852   0.998  0.6095 -0.2194  0.3568
17398SOL    HW164172   9.357   5.915   0.938  0.5046  0.1054  0.7577
17398SOL    HW264173   9.458   5.903   1.050  0.1576 -0.3357  1.0221
17399SOL     OW64174   6.833   9.997   8.035  0.3276 -0.0825 -0.2875
17399SOL    HW164175   6.755  10.052   8.039  2.2767  2.8831  1.3405
17399SOL    HW264176   6.858   9.984   8.127  3.2244  1.5852 -0.6922
17400SOL     OW64177   5.739   0.605   9.413  0.4988  0.7962 -0.0158
17400SOL    HW164178   5.658   0.558   9.396 -0.1549  1.7984  0.2664
17400SOL    HW264179   5.799   0.574   9.345  0.7120 -1.8269  1.2391
17401SOL     OW64180   5.150   5.616   1.553  0.1567  0.1001  0.8160
17401SOL    HW164181   5.081   5.568   1.506  1.3304 -0.8062 -0.0606
17401SOL    HW264182   5.104   5.662   1.623 -1.6771  1.3725 -1.0792
17402SOL     OW64183   6.193   3.811   3.220  0.1452  0.6095 -1.0942
17402SOL    HW164184   6.252   3.822   3.294 -0.2587 -0.3237 -0.6160
17402SOL    HW264185   6.122   3.756   3.254  0.3186 -0.4363 -2.3633
17403SOL     OW64186   4.710   5.105   5.655  0.3823 -0.0823 -0.2581
17403SOL    HW164187   4.733   5.188   5.696 -0.1791 -0.3562  0.6301
17403SOL    HW264188   4.723   5.120   5.561  0.2167  1.0264 -0.1111
17404SOL     OW64189   8.170   2.882   4.334  1.0736 -0.2617 -0.1197
17404SOL    HW164190   8.166   2.965   4.380  0.8873  0.0477 -0.6838
17404SOL    HW264191   8.154   2.816   4.402  3.8171 -0.0261  0.8532
17405SOL     OW64192   9.262   6.793   9.496  0.0589  0.0770  0.2699
17405SOL    HW164193   9.298   6.773   9.583  0.5276 -1.0576 -0.1577
17405SOL    HW264194   9.265   6.888   9.490  1.6990  0.1009  0.8205
17406SOL     OW64195   2.091   8.020   8.527  0.2845 -0.4630  0.0197
17406SOL    HW164196   2.027   8.092   8.527  0.9754  0.1752 -1.0902
17406SOL    HW264197   2.058   7.959   8.593 -2.1655 -0.7755 -1.3588
17407SOL     OW64198   9.867   9.229   8.303 -0.5246  0.5120 -0.0260
17407SOL    HW164199   9.825   9.280   8.234  0.0210  2.1786  0.7980
17407SOL    HW264200   9.957   9.217   8.274 -0.6089  0.1652 -0.1429
17408SOL     OW64201   8.133   3.918   9.009  0.8435  0.6884  0.2475
17408SOL    HW164202   8.190   3.920   9.086  0.1827  0.1256  0.7597
17408SOL    HW264203   8.145   3.831   8.972 -1.2954 -0.2704  1.6256
17409SOL     OW64204   1.666   1.341   6.546  0.0797  0.4131  0.6554
17409SOL    HW164205   1.642   1.370   6.458  1.4155  0.7337  0.3764
17409SOL    HW264206   1.583   1.333   6.592 -0.6619 -0.0528 -0.7180
17410SOL     OW64207   9.838   4.794   0.167 -0.8132  0.1572 -0.0086
17410SOL    HW164208   9.877   4.816   0.083 -0.4245 -0.0414  0.1142
17410SOL    HW264209   9.786   4.715   0.150 -0.9328  0.2596 -0.1146
17411SOL     OW64210   4.492   1.117   8.654  0.9418 -0.0479 -0.7103
17411SOL    HW164211   4.477   1.072   8.737 -0.3161 -0.8734 -1.3434
17411SOL    HW264212   4.413   1.170   8.642 -1.0977 -3.2660 -3.3871
17412SOL     OW64213   4.791   0.598   0.384  0.2263 -0.3081 -0.3221
17412SOL    HW164214   4.754   0.618   0.470  0.0023 -0.0319 -0.4831
17412SOL    HW264215   4.885   0.608   0.396  0.2067 -0.4187 -0.0701
17413SOL     OW64216   6.461   4.300   8.256 -0.2462 -0.1042  0.6438
17413SOL    HW164217   6.498   4.239   8.191  0.3590 -0.0499  0.9349
17413SOL    HW264218   6.472   4.386   8.216  1.8292  0.1254  1.5710
17414SOL     OW64219   7.626  10.332   1.308 -0.4266 -0.0083 -0.1263
17414SOL    HW164220   7.578  10.251   1.326 -1.1481  0.4992  0.3065
17414SOL    HW264221   7.607  10.388   1.384  0.7918  0.2445  0.0202
17415SOL     OW64222   8.374   7.826   7.067 -0.2729 -0.3041 -0.0044
17415SOL    HW164223   8.417   7.782   7.140  3.6468 -0.0477 -1.8930
17415SOL    HW264224   8.331   7.756   7.018  0.0116 -0.9731  0.6870
17416SOL     OW64225   5.067   5.807   7.723 -0.3255 -0.1412  0.2358
17416SOL    HW164226   5.080   5.880   7.783  2.0157  0.6070 -1.0660
17416SOL    HW264227   4.985   5.827   7.678  0.8074  2.3467 -0.8952
17417SOL     OW64228   9.643   4.983   6.181 -0.3374 -0.3192  0.1298
17417SOL    HW164229   9.718   4.995   6.240  0.0701 -0.7333 -0.3020
17417SOL    HW264230   9.681   4.982   6.093 -0.9076 -0.0441 -0.1265
17418SOL     OW64231   3.948  10.204   3.229 -0.4410 -0.2263  0.3941
17418SOL    HW164232   4.021  10.238   3.178 -1.0802 -1.3057 -1.3586
17418SOL    HW264233   3.988  10.175   3.311  0.8277  0.5673  0.0939
17419SOL     OW64234   9.709   0.938   3.643  0.0057  0.1686 -0.3962
17419SOL    HW164235   9.709   0.876   3.569 -4.1653  0.9056 -1.2821
17419SOL    HW264236   9.652   0.897   3.708  1.5767  0.7028  1.3886
17420SOL     OW64237   9.897   8.309   8.850 -0.4648  0.0798 -0.1495
17420SOL    HW164238   9.990   8.311   8.871  0.0209 -1.8961 -1.7828
17420SOL    HW264239   9.853   8.303   8.935  0.8336  1.4074  0.6608
17421SOL     OW64240   5.325   3.874   3.002  0.2043 -0.1721  0.3280
17421SOL    HW164241   5.313   3.823   2.922 -0.9831  0.7362 -0.1005
17421SOL    HW264242   5.271   3.952   2.989  1.0380  0.6271  1.4638
17422SOL     OW64243   1.884   7.669  10.107  0.4979  0.4417 -0.2348
17422SOL    HW164244   1.943   7.619  10.164  0.3748  0.1772 -0.3412
17422SOL    HW264245   1.866   7.612  10.033 -0.0742  0.4332 -0.0941
17423SOL     OW64246   2.008   1.645   4.652  0.3490  0.3156  0.1242
17423SOL    HW164247   1.956   1.689   4.584 -0.8368 -1.5959 -0.2832
17423SOL    HW264248   2.053   1.574   4.605  0.6263 -0.1641  1.0956
17424SOL     OW64249   3.511   3.004   8.014  0.2524  0.1153 -0.2588
17424SOL    HW164250   3.551   3.067   7.955  1.2689 -1.5864 -1.4727
17424SOL    HW264251   3.417   3.013   7.999  0.4796 -0.2059 -2.0915
17425SOL     OW64252   4.073   9.012   5.320  0.4877 -0.0535  0.3700
17425SOL    HW164253   4.091   9.073   5.248 -0.2954  0.0323  0.2390
17425SOL    HW264254   4.023   9.064   5.383  0.2756 -0.4171  0.5019
17426SOL     OW64255   7.122   9.106   7.789  0.0327  0.0990 -0.1084
17426SOL    HW164256   7.142   9.178   7.850  1.9508 -0.2848 -0.2302
17426SOL    HW264257   7.076   9.149   7.716  0.9255  1.1724 -0.0618
17427SOL     OW64258   7.861   1.373   1.677 -0.3106  0.1203 -0.7824
17427SOL    HW164259   7.821   1.304   1.626 -0.5135  0.5610 -1.2314
17427SOL    HW264260   7.815   1.373   1.760 -0.5451 -0.0545 -0.9138
17428SOL     OW64261   6.552   1.147   7.542  0.4706 -0.5582 -0.2564
17428SOL    HW164262   6.572   1.060   7.577  0.2817 -0.8023 -0.7506
17428SOL    HW264263   6.546   1.135   7.448 -0.7804 -0.2513 -0.2321
17429SOL     OW64264   1.606   7.471   3.329 -0.3731 -0.7406 -0.1102
17429SOL    HW164265   1.650   7.441   3.249  0.1820  1.1200 -0.5547
17429SOL    HW264266   1.667   7.446   3.400 -0.1259 -1.0148 -0.4142
17430SOL     OW64267   6.928   0.428   1.747 -0.4725  0.1439  0.5722
17430SOL    HW164268   6.855   0.400   1.692  0.2326  0.2489 -0.4363
17430SOL    HW264269   7.004   0.383   1.712  0.1679  1.0167  0.7997
17431SOL     OW64270   4.343   2.701   6.716  0.5011  0.0116  0.5641
17431SOL    HW164271   4.305   2.764   6.655 -0.5559 -2.1167 -1.0896
17431SOL    HW264272   4.429   2.738   6.738  1.0973  0.7013 -2.5163
17432SOL     OW64273   3.648   0.805   8.163 -0.3878  0.2236 -0.1924
17432SOL    HW164274   3.597   0.764   8.233  2.9401  0.1803  2.4896
17432SOL    HW264275   3.675   0.732   8.107 -1.4530 -0.0168 -0.4147
17433SOL     OW64276   7.770   5.225   0.196  0.0018 -0.1622 -0.2956
17433SOL    HW164277   7.679   5.218   0.227 -0.5674 -0.7896 -2.0050
17433SOL    HW264278   7.817   5.159   0.248 -0.6361 -0.2617  0.1785
17434SOL     OW64279   8.101   0.994   3.837  0.0919 -0.2334  0.0597
17434SOL    HW164280   8.148   0.988   3.754  0.6569 -1.2867  0.4464
17434SOL    HW264281   8.011   0.972   3.816 -0.2593  1.7407 -0.6763
17435SOL     OW64282   0.055   3.661   9.998  0.3208  0.1635 -1.1605
17435SOL    HW164283  -0.034   3.693  10.011  0.8606  1.0634  0.8117
17435SOL    HW264284   0.090   3.714   9.926 -0.4085  0.4946 -1.2748
17436SOL     OW64285   3.748   1.839   4.095  0.5603  0.0335 -0.4712
17436SOL    HW164286   3.663   1.883   4.095 -0.0364 -1.0854 -0.0580
17436SOL    HW264287   3.728   1.748   4.073  1.3137 -0.8199  2.0171
17437SOL     OW64288   5.808   3.125   2.334 -0.0952 -0.1493  0.6541
17437SOL    HW164289   5.811   3.082   2.419  0.9846 -1.6796 -0.1018
17437SOL    HW264290   5.716   3.147   2.321 -0.2187  0.4624  2.3466
17438SOL     OW64291   0.836   6.912   9.902  0.1305  0.3789 -0.3418
17438SOL    HW164292   0.767   6.889   9.839 -1.3207 -1.9562  1.9357
17438SOL    HW264293   0.844   6.835   9.959  0.2599  2.8299  3.2738
17439SOL     OW64294   3.519   3.821   7.278  0.1540  0.1753 -0.4896
17439SOL    HW164295   3.511   3.888   7.346 -1.1718  0.2724 -0.7169
17439SOL    HW264296   3.583   3.856   7.217 -0.5840  1.2763 -0.6474
17440SOL     OW64297   1.340   6.234   2.671 -0.1518 -0.0131  0.5856
17440SOL    HW164298   1.315   6.260   2.760 -1.8189  2.3366 -0.4692
17440SOL    HW264299   1.258   6.209   2.629  0.3626  0.3898 -0.7263
17441SOL     OW64300   2.199   5.354   3.242 -0.2576  0.6222 -0.1974
17441SOL    HW164301   2.272   5.398   3.200  0.7841 -1.9997 -1.3593
17441SOL    HW264302   2.198   5.388   3.332  2.6123  0.5226 -0.0522
17442SOL     OW64303   1.276   4.773   6.477 -0.5765 -0.5738  0.1275
17442SOL    HW164304   1.309   4.769   6.387 -1.5774 -0.4383 -0.2660
17442SOL    HW264305   1.198   4.829   6.471 -0.9610 -1.0041  0.9781
17443SOL     OW64306   4.933   8.578   2.429 -0.5451 -0.1999  0.1763
17443SOL    HW164307   4.968   8.558   2.342 -0.4369  0.8705 -0.0378
17443SOL    HW264308   4.842   8.604   2.412 -1.0867 -1.7242  0.5898
17444SOL     OW64309   4.419   4.329   7.205 -0.4652  0.8721 -0.3751
17444SOL    HW164310   4.451   4.296   7.290  0.9430  2.7095 -0.1299
17444SOL    HW264311   4.333   4.366   7.225 -0.7362  0.0830 -0.0387
17445SOL     OW64312   9.941   6.377   6.898 -0.2299  0.4444 -0.0095
17445SOL    HW164313  10.036   6.363   6.900 -0.2431  0.3950  1.2096
17445SOL    HW264314   9.917   6.365   6.806  0.3800 -3.3806  0.1671
17446SOL     OW64315   6.835   4.488   8.032 -0.1821  0.1505 -0.1425
17446SOL    HW164316   6.892   4.431   8.083  1.3972  2.0091  0.2964
17446SOL    HW264317   6.807   4.434   7.958  0.8971 -1.2968  0.4554
17447SOL     OW64318   1.379   2.661   8.100  0.3189 -0.5502 -0.3507
17447SOL    HW164319   1.387   2.751   8.069 -1.1020 -0.5003 -0.6216
17447SOL    HW264320   1.396   2.607   8.023  1.1297 -0.5384 -0.1966
17448SOL     OW64321   8.049   6.682   4.721 -0.0002 -0.4946  0.5480
17448SOL    HW164322   8.043   6.670   4.816 -0.6097  1.7451  0.8484
17448SOL    HW264323   7.958   6.693   4.692  0.3477  3.3443  0.4696
17449SOL     OW64324   1.350   8.779   5.676  0.1269  0.3028 -0.4811
17449SOL    HW164325   1.281   8.753   5.737 -0.7329  0.7593 -1.2339
17449SOL    HW264326   1.342   8.874   5.670  1.1777  0.4250 -0.1786
17450SOL     OW64327   5.532   5.488   6.106 -0.7494  0.1670 -0.2687
17450SOL    HW164328   5.600   5.484   6.173 -0.3055  0.6386 -0.6730
17450SOL    HW264329   5.516   5.582   6.094  0.4245  0.1998 -2.0287
17451SOL     OW64330   1.612   1.429   3.287  0.4206  0.3344 -0.7862
17451SOL    HW164331   1.683   1.367   3.274 -0.3224 -0.8183  0.4460
17451SOL    HW264332   1.551   1.411   3.215  0.0744 -0.5786 -0.2783
17452SOL     OW64333   1.400   9.427   8.015 -0.1754 -0.0039  0.2542
17452SOL    HW164334   1.344   9.408   7.940 -2.1257  1.5696  1.2021
17452SOL    HW264335   1.438   9.343   8.040 -1.3090 -0.9438 -1.0806
17453SOL     OW64336   1.070   9.228   1.729 -0.1849  0.1553 -0.1083
17453SOL    HW164337   1.028   9.163   1.672 -1.4295  1.5443 -0.8377
17453SOL    HW264338   1.164   9.211   1.719 -0.4290 -0.5505 -1.4875
17454SOL     OW64339   4.210   9.414   3.426  0.4787  0.2411  0.4301
17454SOL    HW164340   4.241   9.332   3.388 -0.5332  0.0729 -0.0676
17454SOL    HW264341   4.116   9.413   3.411  0.5956  2.0755 -0.7361
17455SOL     OW64342   5.257   2.628   8.137  0.4501 -0.1991  0.1043
17455SOL    HW164343   5.321   2.610   8.068 -0.6701  0.7864 -1.2736
17455SOL    HW264344   5.212   2.544   8.150  0.9080 -0.4840 -0.1294
17456SOL     OW64345   8.606   7.030   0.812 -0.1669 -0.0242  0.0986
17456SOL    HW164346   8.592   7.076   0.895  1.1159  0.5172  0.0283
17456SOL    HW264347   8.701   7.022   0.804 -0.3275 -2.0939 -0.2364
17457SOL     OW64348   9.678   6.757   3.826  0.4540  0.2528 -0.4159
17457SOL    HW164349   9.655   6.850   3.815 -1.2504 -0.1795 -0.7312
17457SOL    HW264350   9.600   6.717   3.863  0.8899 -1.2175 -1.0221
17458SOL     OW64351   9.244   0.779   2.360 -0.3346  0.3962 -0.4519
17458SOL    HW164352   9.338   0.759   2.354 -0.5904 -0.4618 -2.3438
17458SOL    HW264353   9.240   0.857   2.414  1.2676 -0.8623  1.6555
17459SOL     OW64354   7.477   4.169   8.641  0.1957  0.2969  0.5261
17459SOL    HW164355   7.480   4.255   8.682  2.8858 -0.0458  1.2490
17459SOL    HW264356   7.521   4.181   8.557  0.8635 -0.4140  0.7620
17460SOL     OW64357   4.086   7.681   7.817 -0.3638  0.5412 -0.0251
17460SOL    HW164358   4.002   7.658   7.776 -0.2728  3.3171 -2.0501
17460SOL    HW264359   4.066   7.756   7.873  0.7903  1.6494 -1.0194
17461SOL     OW64360   5.118   8.401   0.227  0.1785 -0.0974  0.0280
17461SOL    HW164361   5.156   8.427   0.310 -1.9233 -0.2861  1.1273
17461SOL    HW264362   5.127   8.305   0.224  0.9558 -0.0176 -0.3486
17462SOL     OW64363   1.338   7.612   5.187  0.1383  0.1841 -0.2511
17462SOL    HW164364   1.283   7.540   5.156  0.6705 -0.3380 -0.0007
17462SOL    HW264365   1.422   7.572   5.207  0.1714  0.7079  0.7591
17463SOL     OW64366   9.539   2.670   3.673  0.1164 -0.8209 -0.3121
17463SOL    HW164367   9.553   2.575   3.661  1.6964 -0.7243  0.4141
17463SOL    HW264368   9.621   2.700   3.711 -1.1179  0.5068  1.4005
17464SOL     OW64369   7.157   6.529   7.589  0.1894 -0.2501 -0.0919
17464SOL    HW164370   7.225   6.492   7.533  0.3481  0.8692 -0.6737
17464SOL    HW264371   7.169   6.624   7.581 -1.1117 -0.0453  0.1990
17465SOL     OW64372   1.175   6.514   5.700 -0.2499 -0.1919  0.3171
17465SOL    HW164373   1.270   6.508   5.704 -0.3450 -1.7307  0.8904
17465SOL    HW264374   1.156   6.532   5.608  0.6484  2.4655  0.5675
17466SOL     OW64375   2.740   8.010   7.502  0.0440 -0.2884  0.4732
17466SOL    HW164376   2.799   8.025   7.576 -0.1370  1.8173  0.2324
17466SOL    HW264377   2.795   8.024   7.425  0.5048 -3.4599  0.0700
17467SOL     OW64378   4.078   1.680   9.807  0.7019 -0.2290 -0.8219
17467SOL    HW164379   4.088   1.620   9.733 -0.0582  0.2622 -1.3433
17467SOL    HW264380   3.983   1.688   9.819  0.8177 -0.2164  0.1416
17468SOL     OW64381   2.083   0.478   5.075  0.2674 -0.3678  0.2684
17468SOL    HW164382   2.011   0.416   5.084  0.1455 -0.3498 -0.5112
17468SOL    HW264383   2.048   0.562   5.106 -0.1136 -0.3153 -0.2965
17469SOL     OW64384   9.769   4.891   6.957 -0.0479 -0.2405 -0.1019
17469SOL    HW164385   9.799   4.802   6.937 -1.2532 -1.0409  1.4106
17469SOL    HW264386   9.739   4.926   6.873  1.9162 -0.6329 -1.0202
17470SOL     OW64387   2.571   9.438   2.147  0.6934 -0.6045  0.0698
17470SOL    HW164388   2.617   9.516   2.177 -2.0337  1.4186 -0.6993
17470SOL    HW264389   2.495   9.430   2.205 -0.2704 -1.3469 -1.2293
17471SOL     OW64390   6.552   8.932   9.255 -0.0266  0.1291 -0.2228
17471SOL    HW164391   6.606   8.858   9.229 -1.2023 -0.8080 -0.0999
17471SOL    HW264392   6.605   8.979   9.319  0.5123 -0.9671  0.1608
17472SOL     OW64393   1.479   8.912   2.473  0.0612  0.3654 -0.1536
17472SOL    HW164394   1.505   8.827   2.439 -0.5738 -0.1954  0.7028
17472SOL    HW264395   1.386   8.919   2.452  0.3835  1.4127 -1.3257
17473SOL     OW64396   1.510   6.569   8.555  0.0698 -0.4449  0.2036
17473SOL    HW164397   1.430   6.618   8.535  1.7794  2.8988  0.8989
17473SOL    HW264398   1.483   6.477   8.552 -3.1412  0.3970 -2.2904
17474SOL     OW64399   9.829   9.088   3.761 -0.1174 -0.1270  0.2768
17474SOL    HW164400   9.909   9.036   3.754 -0.3795 -0.4546 -0.3892
17474SOL    HW264401   9.860   9.177   3.774  0.3347 -0.4846  1.9209
17475SOL     OW64402   5.472   2.399   6.013  0.2423 -0.1029  0.1347
17475SOL    HW164403   5.464   2.481   6.061 -0.3456 -0.1066  0.0480
17475SOL    HW264404   5.383   2.380   5.982  0.2026 -1.1765  0.8367
17476SOL     OW64405   7.611   1.971   0.726  0.4883  0.5862  0.9467
17476SOL    HW164406   7.579   2.058   0.750 -0.8511  0.9570 -1.8090
17476SOL    HW264407   7.533   1.915   0.731  0.7882  0.1029  0.2750
17477SOL     OW64408   2.828   2.403   9.527  0.1820  0.0925 -0.5384
17477SOL    HW164409   2.890   2.450   9.582  0.4125  0.8049 -1.3807
17477SOL    HW264410   2.806   2.465   9.457 -1.0954 -0.3180 -0.5356
17478SOL     OW64411   8.146   1.521   0.693 -0.1265  0.2632  0.4482
17478SOL    HW164412   8.123   1.463   0.766 -2.0228 -1.8700 -1.7017
17478SOL    HW264413   8.176   1.462   0.624 -0.5016  2.0190 -1.2764
17479SOL     OW64414   0.242   9.734   0.736  0.0979  0.0754  0.6234
17479SOL    HW164415   0.300   9.663   0.710  1.9832  0.9036  2.3294
17479SOL    HW264416   0.207   9.706   0.821 -1.8998 -0.3001 -0.2606
17480SOL     OW64417   2.603   9.407   1.743  0.5180 -0.2215 -0.1642
17480SOL    HW164418   2.606   9.502   1.734 -0.7021 -0.2262 -1.0260
17480SOL    HW264419   2.675   9.385   1.801 -0.0708  1.3697  1.2523
17481SOL     OW64420   0.934   8.178   7.225  0.5741 -0.5540  0.1936
17481SOL    HW164421   0.967   8.094   7.192  2.1303  0.4385 -0.9305
17481SOL    HW264422   1.000   8.207   7.288  1.0322  0.6723 -0.8148
17482SOL     OW64423   1.182   3.758   9.373  0.2460 -0.4595  0.3618
17482SOL    HW164424   1.130   3.834   9.398  0.4399 -0.3732  0.5075
17482SOL    HW264425   1.187   3.763   9.278  2.1746  1.0050  0.4737
17483SOL     OW64426   6.799  10.052   2.123 -0.1490 -0.4526 -0.5079
17483SOL    HW164427   6.743   9.977   2.105 -0.3062 -0.3169 -0.5917
17483SOL    HW264428   6.887  10.022   2.101  0.0082 -1.1098  0.8852
17484SOL     OW64429   7.241   7.022   8.145 -0.3822 -0.2790  0.1770
17484SOL    HW164430   7.305   7.078   8.189 -1.4691  1.4154 -0.2804
17484SOL    HW264431   7.215   6.958   8.210 -0.9448  1.3250  1.6076
17485SOL     OW64432   9.545   5.765   5.843  0.7529 -0.2073 -1.0267
17485SOL    HW164433   9.501   5.793   5.762  2.8601  1.3956 -1.7458
17485SOL    HW264434   9.637   5.757   5.817  1.3556 -0.4272  1.0489
17486SOL     OW64435   2.940   8.379   2.300 -0.4983  0.1458  0.2970
17486SOL    HW164436   2.877   8.414   2.237 -1.4567  2.4209  2.3587
17486SOL    HW264437   2.887   8.334   2.366 -0.0886  2.0545  2.0416
17487SOL     OW64438   0.969   3.340   0.052  0.5352 -0.6323 -0.0725
17487SOL    HW164439   0.983   3.427   0.016  1.4692 -1.0057 -0.6285
17487SOL    HW264440   0.974   3.352   0.147  1.9869 -0.2860 -0.1802
17488SOL     OW64441   9.240   6.055   3.290  0.5197  0.0022  0.3010
17488SOL    HW164442   9.262   6.145   3.267 -0.2015 -0.2831 -1.6532
17488SOL    HW264443   9.275   6.002   3.218 -0.0814 -1.1595  0.8324
17489SOL     OW64444   7.687   7.434   7.994 -0.6123 -0.9680  0.7993
17489SOL    HW164445   7.621   7.386   7.944 -3.4335  0.9134  2.4813
17489SOL    HW264446   7.765   7.431   7.939 -2.2452 -2.6957 -1.6287
17490SOL     OW64447   8.184   3.936   3.954  0.2577 -0.1175 -0.2217
17490SOL    HW164448   8.237   3.960   4.030 -2.2920 -0.2589  1.7390
17490SOL    HW264449   8.160   4.019   3.914 -0.1849  0.0884  0.4580
17491SOL     OW64450   2.218   1.920   4.621  0.1298  0.0659 -0.1092
17491SOL    HW164451   2.163   1.878   4.688  0.1534 -2.5290 -1.5912
17491SOL    HW264452   2.305   1.883   4.636  0.7905  1.6412  0.1426
17492SOL     OW64453   6.195   8.407   9.422 -0.5370  0.3104  0.6754
17492SOL    HW164454   6.129   8.355   9.468 -1.3680 -0.6575 -1.4564
17492SOL    HW264455   6.200   8.367   9.335  0.3306  2.5445 -0.3756
17493SOL     OW64456   8.122   4.441   6.622 -0.1974 -0.3143 -0.0923
17493SOL    HW164457   8.185   4.369   6.618  0.3028  0.0561  0.7698
17493SOL    HW264458   8.099   4.458   6.531  1.4376 -0.0546 -0.4979
17494SOL     OW64459   8.604   4.210   5.805 -0.0904 -0.5501  0.8897
17494SOL    HW164460   8.665   4.271   5.763 -0.1471  0.5713  2.3428
17494SOL    HW264461   8.518   4.235   5.772 -0.1286  0.2891  1.5809
17495SOL     OW64462   5.440  10.271   7.770  0.2479 -0.1635  0.5243
17495SOL    HW164463   5.409  10.190   7.729 -3.2279  1.1896  0.1150
17495SOL    HW264464   5.475  10.322   7.697  3.4166 -1.5308  0.9255
17496SOL     OW64465   9.548   1.579   3.196  0.6819 -0.2501 -0.4723
17496SOL    HW164466   9.563   1.515   3.266  2.3362 -0.8707 -1.3369
17496SOL    HW264467   9.606   1.652   3.217  1.3451 -0.5293 -1.2748
17497SOL     OW64468   5.715   8.108   6.432  0.5771 -1.1636  0.2425
17497SOL    HW164469   5.694   8.068   6.517 -1.0672 -2.0750 -0.5357
17497SOL    HW264470   5.745   8.034   6.379  0.8439 -0.7383 -0.1969
17498SOL     OW64471   3.054   0.130   6.423 -1.1780 -0.3234  0.1400
17498SOL    HW164472   3.145   0.159   6.418 -1.4993  0.7063  0.1194
17498SOL    HW264473   3.018   0.148   6.336 -2.4806  3.0771  1.2177
17499SOL     OW64474   0.450   3.514   7.285  0.5394 -0.2575 -0.3844
17499SOL    HW164475   0.434   3.609   7.287  0.1513 -0.3244  1.9357
17499SOL    HW264476   0.426   3.488   7.196  2.0345  2.0315 -1.5363
17500SOL     OW64477   8.675   9.959   7.870  0.5960 -0.4781 -0.1706
17500SOL    HW164478   8.669   9.976   7.964 -0.4971 -1.9364  0.0495
17500SOL    HW264479   8.631  10.033   7.829 -1.3738 -1.1537  0.6156
17501SOL     OW64480   8.333   0.820   2.157  0.6022  0.2459 -0.0087
17501SOL    HW164481   8.334   0.916   2.147 -2.2352  0.4008  0.4901
17501SOL    HW264482   8.363   0.805   2.246  0.2375  0.7486  0.2057
17502SOL     OW64483   0.589   5.876   6.677 -0.3084  0.1893  0.1422
17502SOL    HW164484   0.588   5.947   6.742 -0.7329  0.3937 -0.0819
17502SOL    HW264485   0.551   5.801   6.724  1.0146 -0.1727  0.6776
17503SOL     OW64486   3.562   8.528   6.404 -0.0507  0.7420 -0.4789
17503SOL    HW164487   3.656   8.509   6.404 -0.2935 -0.5828 -1.2509
17503SOL    HW264488   3.540   8.540   6.311 -0.7406  0.4734 -0.3559
17504SOL     OW64489   8.101   5.160   6.143  0.2103  0.0151 -0.1081
17504SOL    HW164490   8.174   5.190   6.197 -0.0612 -0.7191  0.6750
17504SOL    HW264491   8.041   5.235   6.140 -0.6657 -0.5234  2.1898
17505SOL     OW64492   1.962   5.052   7.097 -0.9040 -0.2255  0.0153
17505SOL    HW164493   1.967   5.144   7.070 -1.6826 -0.2717 -0.3067
17505SOL    HW264494   2.021   5.006   7.038  1.9917  0.4624  2.1483
17506SOL     OW64495   9.401   9.385   6.322  0.1471 -0.4740  0.0349
17506SOL    HW164496   9.456   9.413   6.249  0.8533  1.6988  1.3089
17506SOL    HW264497   9.461   9.378   6.396 -0.7189 -1.6670  0.6580
17507SOL     OW64498   1.317   9.335   7.775  0.1658 -0.2629 -0.0007
17507SOL    HW164499   1.355   9.380   7.699 -0.0617  1.0182  0.6250
17507SOL    HW264500   1.230   9.307   7.745 -0.6589  1.8022  0.2795
17508SOL     OW64501   5.603   7.923   8.845  0.0364  0.5858  0.3093
17508SOL    HW164502   5.507   7.913   8.844  0.1342 -0.6813 -0.9424
17508SOL    HW264503   5.629   7.902   8.755  1.4227  1.8704  0.3779
17509SOL     OW64504  10.123   8.426   1.981 -0.3866  0.2478 -0.2006
17509SOL    HW164505  10.136   8.332   1.966 -1.8690  0.2687 -1.9772
17509SOL    HW264506  10.053   8.430   2.046  0.7977  0.1620  1.1279
17510SOL     OW64507   9.986   5.402   3.302  0.3294 -0.6159 -0.0613
17510SOL    HW164508   9.995   5.479   3.245 -0.6028 -0.1676  0.3812
17510SOL    HW264509  10.016   5.432   3.388  0.6143 -0.9512 -0.0415
17511SOL     OW64510   3.932   0.195   5.024 -0.3427 -0.0780 -0.6957
17511SOL    HW164511   3.957   0.279   5.063 -0.5479  0.3781 -1.5209
17511SOL    HW264512   3.961   0.130   5.087 -0.1105  0.6103 -0.0747
17512SOL     OW64513   9.084   4.977   0.285 -0.3572 -0.4658 -0.0379
17512SOL    HW164514   9.044   5.061   0.309 -1.3372 -0.6278 -1.0689
17512SOL    HW264515   9.066   4.920   0.360 -1.1609 -0.2396 -0.0518
17513SOL     OW64516   2.133   7.968  10.151  0.1725 -0.3600 -0.2350
17513SOL    HW164517   2.119   7.901  10.218 -0.8799  1.7586  1.8185
17513SOL    HW264518   2.047   7.978  10.109 -0.0663  0.6627  0.4663
17514SOL     OW64519   1.050   8.775   2.237  0.1060  0.3255 -0.1330
17514SOL    HW164520   1.008   8.849   2.193 -0.2083 -0.2898 -0.8694
17514SOL    HW264521   1.116   8.745   2.176 -2.1991 -2.3379 -1.5081
17515SOL     OW64522   8.936   6.408   5.657 -0.1386 -0.1940 -0.1071
17515SOL    HW164523   8.974   6.447   5.579 -0.8567  1.8332  0.5000
17515SOL    HW264524   8.986   6.327   5.670  1.2696  0.3886 -1.5574
17516SOL     OW64525   3.406   3.013   5.280  0.1910  0.1204 -0.0108
17516SOL    HW164526   3.410   3.023   5.185  1.0570  0.1351  0.0228
17516SOL    HW264527   3.324   3.056   5.305 -0.3541 -0.4200 -0.8117
17517SOL     OW64528   0.197   6.835   1.254 -1.1476 -0.0451 -0.4602
17517SOL    HW164529   0.203   6.776   1.179 -1.3918  1.5292 -1.7828
17517SOL    HW264530   0.141   6.907   1.224 -0.4206  1.1431  0.8777
17518SOL     OW64531   7.030   1.712   3.465  0.2212 -0.1508 -0.0456
17518SOL    HW164532   7.099   1.730   3.401 -0.7196  2.2401 -0.4855
17518SOL    HW264533   7.054   1.765   3.541  0.1936 -1.3127  0.8029
17519SOL     OW64534   1.036   7.864   2.811 -0.6500  0.0514 -0.0909
17519SOL    HW164535   0.998   7.939   2.857  0.2145 -0.0481  0.8238
17519SOL    HW264536   1.111   7.838   2.866 -0.4104 -0.9237 -0.8586
17520SOL     OW64537   6.739   4.254   8.429  0.6318  0.3907  0.3882
17520SOL    HW164538   6.806   4.322   8.423 -1.1096  2.1291 -0.2598
17520SOL    HW264539   6.722   4.229   8.339  0.7574 -0.4469  0.5841
17521SOL     OW64540   0.440   2.828   3.643 -0.1929  0.8290  0.4902
17521SOL    HW164541   0.364   2.832   3.585  0.7978 -0.9478 -1.0238
17521SOL    HW264542   0.469   2.919   3.651 -0.5464  1.1592 -1.5589
17522SOL     OW64543   9.863   5.363   1.840  0.4428  0.0920  0.1031
17522SOL    HW164544   9.801   5.329   1.904  1.9408 -1.5001  0.7715
17522SOL    HW264545   9.823   5.344   1.755 -1.2343  1.6073  0.4924
17523SOL     OW64546   4.855   2.378   2.460 -0.4261 -0.2340 -0.3526
17523SOL    HW164547   4.881   2.315   2.393  2.1568 -0.4490  0.7148
17523SOL    HW264548   4.803   2.328   2.522 -1.6313 -0.3549 -1.4143
17524SOL     OW64549   2.480   5.546   8.037  0.2452  0.0427 -0.2515
17524SOL    HW164550   2.411   5.540   7.971  0.1060 -1.3772 -0.0132
17524SOL    HW264551   2.489   5.640   8.054 -2.5332  0.2487  0.6069
17525SOL     OW64552   2.330   6.148   8.350 -0.1504 -0.0240 -0.6281
17525SOL    HW164553   2.241   6.122   8.369  0.3422 -1.6077 -0.3589
17525SOL    HW264554   2.322   6.209   8.276 -1.4775  0.3153 -0.2259
17526SOL     OW64555   3.389   7.583   2.189 -0.1833  0.1924  0.4581
17526SOL    HW164556   3.360   7.648   2.125 -0.4460 -0.5976 -0.2540
17526SOL    HW264557   3.329   7.593   2.263 -0.2714  0.7018  0.3194
17527SOL     OW64558   1.195   9.158   3.924 -0.0040  0.5478  0.5295
17527SOL    HW164559   1.194   9.069   3.960 -0.7873 -0.0149 -0.7875
17527SOL    HW264560   1.286   9.174   3.901  0.0727 -0.0829  0.3834
17528SOL     OW64561   8.673   5.681   3.590 -0.1706  0.0860  0.0825
17528SOL    HW164562   8.738   5.628   3.545 -1.1283 -0.7594 -0.3463
17528SOL    HW264563   8.688   5.666   3.683  1.7817  1.7884  0.1069
17529SOL     OW64564   4.808   1.047   9.868 -0.2480  0.0237 -0.2465
17529SOL    HW164565   4.852   1.132   9.876  0.0306  0.3762 -3.7314
17529SOL    HW264566   4.873   0.990   9.828 -1.0539 -1.2914  0.2522
17530SOL     OW64567   3.626   0.829   1.643 -0.4719 -0.3920  0.6081
17530SOL    HW164568   3.575   0.823   1.723 -0.5920  0.5971  0.6151
17530SOL    HW264569   3.561   0.836   1.573 -0.3635  0.0343  0.5443
17531SOL     OW64570   9.185   3.684   3.763 -0.4661 -0.1278  0.0324
17531SOL    HW164571   9.179   3.671   3.857  2.0793  2.3241  0.6600
17531SOL    HW264572   9.278   3.694   3.745 -0.9809  1.2144 -2.4552
17532SOL     OW64573   7.750   2.507   8.605  0.5584 -0.0372  0.5335
17532SOL    HW164574   7.813   2.578   8.592  0.8415 -0.4360 -0.3241
17532SOL    HW264575   7.729   2.476   8.517 -0.9305  0.1526  0.7886
17533SOL     OW64576   5.483   4.840   1.786 -0.0885  0.1133  0.2563
17533SOL    HW164577   5.424   4.857   1.859 -0.7220 -2.7185  0.4912
17533SOL    HW264578   5.425   4.814   1.714  0.7760 -2.1358  0.3124
17534SOL     OW64579   0.357   1.896   8.840  0.1809  0.2066  0.2026
17534SOL    HW164580   0.389   1.902   8.930  0.6666  0.8366 -0.0055
17534SOL    HW264581   0.275   1.945   8.840 -0.8741 -1.4753  0.7568
17535SOL     OW64582   1.002   3.950   0.417  0.2190 -0.2774  0.7082
17535SOL    HW164583   1.079   3.993   0.379  1.7238 -1.5414  2.2221
17535SOL    HW264584   0.978   4.006   0.491 -1.5968  1.1736 -0.8496
17536SOL     OW64585   5.732   3.358   1.345  0.1423  0.2004  0.9760
17536SOL    HW164586   5.744   3.281   1.400  1.9360  0.0255  0.4194
17536SOL    HW264587   5.709   3.428   1.406 -0.4954 -0.5484  1.6079
17537SOL     OW64588   3.245   5.069   0.971 -0.5738  0.0263 -0.2242
17537SOL    HW164589   3.178   5.083   1.038 -1.7286  1.6905 -1.6332
17537SOL    HW264590   3.203   5.012   0.907 -0.5886  0.8436 -0.9687
17538SOL     OW64591   2.015   5.183   4.779 -0.4957 -0.5295 -0.0606
17538SOL    HW164592   1.954   5.182   4.853 -0.2293  1.4409  0.2403
17538SOL    HW264593   1.985   5.256   4.724  1.2869  0.1857 -0.1409
17539SOL     OW64594   9.890   1.087   7.661  0.6703  0.1598 -0.4663
17539SOL    HW164595   9.925   1.019   7.718 -3.5464 -1.3724  0.6914
17539SOL    HW264596   9.881   1.044   7.576 -1.6457 -0.7499  0.1729
17540SOL     OW64597   1.582   3.391   7.699  0.2840  0.0768  0.7415
17540SOL    HW164598   1.643   3.465   7.687  1.3937 -0.6489  1.6757
17540SOL    HW264599   1.495   3.430   7.687  0.9052  1.0247 -1.3047
17541SOL     OW64600   5.783   9.222   5.018 -0.2678 -0.4049 -0.7573
17541SOL    HW164601   5.844   9.244   5.089 -0.1382 -1.7782 -0.4082
17541SOL    HW264602   5.839   9.187   4.949 -0.1816  2.4765 -2.3048
17542SOL     OW64603   2.727   7.261   3.170 -0.4029  0.0123  0.0929
17542SOL    HW164604   2.820   7.266   3.191 -0.0939 -0.3079 -1.1358
17542SOL    HW264605   2.707   7.345   3.128 -0.5063 -0.1895 -0.2620
17543SOL     OW64606   5.247   5.697   7.363 -0.2419 -0.0326 -0.6472
17543SOL    HW164607   5.301   5.641   7.419 -2.1101 -0.7477  0.5565
17543SOL    HW264608   5.309   5.747   7.311  1.5277 -1.9030 -0.4396
17544SOL     OW64609   8.493   3.331   7.811  0.1744 -0.3340 -0.8505
17544SOL    HW164610   8.545   3.410   7.827 -1.5349  0.4645  1.3101
17544SOL    HW264611   8.530   3.265   7.870  0.4467 -0.5996 -1.3151
17545SOL     OW64612   9.527   6.733   3.079  0.0820 -0.3869  0.5048
17545SOL    HW164613   9.483   6.811   3.047  1.1969  0.1746  0.3054
17545SOL    HW264614   9.497   6.663   3.022  1.8903  0.5498 -1.7256
17546SOL     OW64615   1.530   3.243   0.770  0.0487 -0.5780  0.0032
17546SOL    HW164616   1.486   3.214   0.690  1.1652 -2.0912 -0.1099
17546SOL    HW264617   1.500   3.182   0.838  1.8542 -1.6241 -0.0674
17547SOL     OW64618   3.974   8.814   6.884  0.3687 -0.6545  0.4677
17547SOL    HW164619   4.001   8.722   6.888 -0.2601 -0.8170  1.4991
17547SOL    HW264620   3.991   8.848   6.972 -0.9427 -0.2466  0.5959
17548SOL     OW64621   6.941  10.390   3.671 -0.0422  0.5149 -0.5921
17548SOL    HW164622   7.000  10.466   3.667 -0.5576  0.9786  0.2730
17548SOL    HW264623   6.948  10.360   3.762 -0.9771  0.4512 -0.5360
17549SOL     OW64624   7.631   2.557   4.758  0.1453 -0.2930 -0.4005
17549SOL    HW164625   7.574   2.594   4.691 -1.2607 -2.5407 -0.5674
17549SOL    HW264626   7.571   2.518   4.821  1.4733  0.3843  1.3701
17550SOL     OW64627   3.300   3.497   2.520  0.3204  0.1524 -0.3380
17550SOL    HW164628   3.221   3.550   2.512  0.6353  0.8110  0.7241
17550SOL    HW264629   3.336   3.520   2.606  1.4804 -0.3942 -0.6565
17551SOL     OW64630   6.088   7.246  10.097  0.1460  0.0194 -0.4534
17551SOL    HW164631   6.079   7.319  10.036  1.4767  0.3341 -0.3090
17551SOL    HW264632   6.160   7.271  10.155  1.7753 -2.0330 -1.4105
17552SOL     OW64633   7.739   3.695   9.107  0.3362  0.1297  0.1137
17552SOL    HW164634   7.806   3.741   9.056  0.3668 -1.7369 -1.6781
17552SOL    HW264635   7.693   3.641   9.042 -0.4739 -1.4418  1.9057
17553SOL     OW64636   9.082   3.483   5.684  0.3939 -0.0434 -0.0949
17553SOL    HW164637   9.046   3.520   5.765  4.6268  0.5436  1.7745
17553SOL    HW264638   9.092   3.390   5.703  1.7636  0.1622  0.2828
17554SOL     OW64639   5.889   2.361   8.015 -0.1979  0.1921  0.9703
17554SOL    HW164640   5.873   2.441   7.966  0.9212  0.0086  0.2783
17554SOL    HW264641   5.920   2.298   7.950 -2.3424 -1.2684  1.2172
17555SOL     OW64642   7.326   9.007   0.921 -0.7095 -0.1251  0.5300
17555SOL    HW164643   7.342   9.101   0.913  0.4472 -0.3387  0.1731
17555SOL    HW264644   7.311   8.977   0.831 -0.8258 -0.3318  0.6149
17556SOL     OW64645   4.331   9.874   3.375 -0.4239 -0.0504 -0.1606
17556SOL    HW164646   4.358   9.812   3.444 -1.1018 -1.2497 -0.9308
17556SOL    HW264647   4.235   9.872   3.377 -0.4586 -0.1940 -1.1855
17557SOL     OW64648   6.383   9.593   3.776 -0.2003 -0.1647  0.5710
17557SOL    HW164649   6.428   9.617   3.857  0.4268 -1.0722  0.5072
17557SOL    HW264650   6.454   9.582   3.712 -0.7398  1.4873 -0.3888
17558SOL     OW64651   2.176   4.590   4.316 -0.3348  0.1432 -0.3787
17558SOL    HW164652   2.254   4.569   4.368 -0.6160  1.2236  0.5249
17558SOL    HW264653   2.175   4.685   4.313 -0.8619  0.1110 -1.5835
17559SOL     OW64654   9.273   9.462   2.949 -0.4274 -0.1043 -0.0046
17559SOL    HW164655   9.284   9.404   2.874 -0.8345 -0.0759 -0.0879
17559SOL    HW264656   9.179   9.472   2.958 -0.3936 -0.4259  0.7617
17560SOL     OW64657   9.769   6.211   4.156 -0.0913  0.6651 -0.0359
17560SOL    HW164658   9.817   6.249   4.230  1.1708 -1.3568  0.2418
17560SOL    HW264659   9.837   6.177   4.098 -1.1131  0.9933 -1.4818
17561SOL     OW64660   5.182   7.042   4.640  0.6641 -0.0788  0.4140
17561SOL    HW164661   5.103   7.007   4.599 -0.8358 -1.1234  3.8447
17561SOL    HW264662   5.250   6.977   4.621  0.3108 -0.0662 -1.0659
17562SOL     OW64663   7.037   5.804   6.971 -0.3705  0.2760 -0.5283
17562SOL    HW164664   6.975   5.797   7.044 -0.7986  0.6980 -0.8494
17562SOL    HW264665   7.092   5.879   6.994  0.9309 -0.9121  0.4270
17563SOL     OW64666   7.330   2.910   4.916  0.1216 -0.1922  0.4802
17563SOL    HW164667   7.259   2.864   4.960  0.1587  0.0133  0.7522
17563SOL    HW264668   7.410   2.869   4.949  0.1741  0.4135  1.1126
17564SOL     OW64669   4.386   1.952   2.330  0.5175 -0.1221  0.1307
17564SOL    HW164670   4.397   1.894   2.405 -2.6106  1.0651  1.6803
17564SOL    HW264671   4.362   1.894   2.258  0.6029 -1.0047  0.7947
17565SOL     OW64672   9.550   5.246   7.000 -0.4595  0.4862  0.2164
17565SOL    HW164673   9.621   5.238   6.937  0.8680  0.5658  1.6303
17565SOL    HW264674   9.541   5.341   7.013  2.2711  0.4964  3.2446
17566SOL     OW64675   6.992   0.801   7.728 -0.2315 -0.0200  0.0784
17566SOL    HW164676   6.991   0.706   7.738 -0.2537 -0.0820 -0.4897
17566SOL    HW264677   6.932   0.819   7.656 -1.1091  0.5230  0.9156
17567SOL     OW64678   1.157   9.276   7.182 -0.1474 -0.0080  1.0968
17567SOL    HW164679   1.089   9.213   7.160  0.9472 -0.5880 -0.8109
17567SOL    HW264680   1.192   9.245   7.266 -0.4918 -1.1770  0.8184
17568SOL     OW64681   0.192   3.780   8.421 -0.3177 -0.0331  0.3025
17568SOL    HW164682   0.171   3.851   8.482  2.7743  0.6513  0.7423
17568SOL    HW264683   0.224   3.710   8.477  1.9271  0.3582 -0.3967
17569SOL     OW64684   3.336   0.038   4.512 -0.3211 -0.3519 -0.0787
17569SOL    HW164685   3.350   0.012   4.603  0.0960 -0.4693 -0.1752
17569SOL    HW264686   3.338   0.134   4.514  3.0417 -0.2982 -0.4359
17570SOL     OW64687   2.658  10.110   5.533  0.0754  0.0521 -0.0798
17570SOL    HW164688   2.726  10.143   5.474  0.3778  0.5907  0.5548
17570SOL    HW264689   2.615  10.040   5.484 -0.7754  1.5736 -1.5829
17571SOL     OW64690   1.893  10.211   8.324 -0.0473  0.1615  0.4988
17571SOL    HW164691   1.939  10.294   8.310  1.1244 -0.5826 -0.3471
17571SOL    HW264692   1.909  10.190   8.416 -1.3369  1.4129  1.0368
17572SOL     OW64693   9.661   5.301   0.613  0.8817 -0.2679  0.1639
17572SOL    HW164694   9.694   5.223   0.656  1.5687 -0.9035 -1.4308
17572SOL    HW264695   9.704   5.374   0.657 -0.5505 -0.6580  2.3637
17573SOL     OW64696   4.068   7.494   6.832  0.2722  0.5491  0.2989
17573SOL    HW164697   4.092   7.457   6.917  0.3419 -1.2664 -0.4579
17573SOL    HW264698   4.152   7.508   6.787  0.2492  1.7409  0.6004
17574SOL     OW64699   8.953   0.258   4.898 -0.0219  0.2982 -0.0421
17574SOL    HW164700   8.970   0.207   4.818  0.8768  1.7744 -0.8479
17574SOL    HW264701   8.902   0.333   4.868 -1.4710 -0.1615  1.1493
17575SOL     OW64702   9.557   3.640   6.245 -0.3948 -0.1617  0.1531
17575SOL    HW164703   9.640   3.659   6.289 -0.5130  1.2950 -0.2220
17575SOL    HW264704   9.579   3.638   6.152 -0.7895  0.3202  0.0446
17576SOL     OW64705   3.591   2.112   6.972 -0.2694  0.4831  0.0908
17576SOL    HW164706   3.653   2.102   6.899 -2.0281  0.9291 -1.5498
17576SOL    HW264707   3.581   2.023   7.007  2.4816  0.6172  1.5255
17577SOL     OW64708   3.411   7.588   4.535  0.2044 -0.0511  0.0079
17577SOL    HW164709   3.423   7.674   4.495 -1.3717  0.2608  0.1660
17577SOL    HW264710   3.317   7.572   4.531 -0.0414 -0.0825  3.4213
17578SOL     OW64711   3.129   3.109   2.126 -0.1220 -0.1971 -0.3320
17578SOL    HW164712   3.191   3.149   2.065 -2.2226 -1.5889 -3.6540
17578SOL    HW264713   3.148   3.015   2.121 -2.5365 -0.6949 -1.6676
17579SOL     OW64714   3.350   4.097   8.662 -0.2152  0.5246  0.3085
17579SOL    HW164715   3.375   4.183   8.694 -1.1554  0.4933  1.1649
17579SOL    HW264716   3.360   4.039   8.737  2.5298 -0.5873 -0.7900
17580SOL     OW64717   8.680   5.493   5.402 -0.0413 -0.3710  0.3429
17580SOL    HW164718   8.625   5.565   5.434 -0.6075 -0.3144 -0.7167
17580SOL    HW264719   8.766   5.510   5.441 -0.1960  0.8173  0.2177
17581SOL     OW64720   9.473  10.365   2.229 -0.0389 -0.2520  0.3023
17581SOL    HW164721   9.401  10.352   2.290  0.0869 -0.2393  0.4555
17581SOL    HW264722   9.528  10.288   2.240 -0.0020 -0.2373  0.2234
17582SOL     OW64723   9.272   1.063   3.972  0.0995 -0.0047  0.3822
17582SOL    HW164724   9.224   1.091   3.894  1.1523  2.1749  0.4502
17582SOL    HW264725   9.338   1.002   3.940 -0.8397 -0.7992 -0.0968
17583SOL     OW64726   5.774   6.419   3.273  0.6885  0.7102 -0.2885
17583SOL    HW164727   5.848   6.367   3.242  0.6439  0.8027 -0.5567
17583SOL    HW264728   5.804   6.457   3.356  1.1204  1.1373 -0.6368
17584SOL     OW64729   6.005   7.730   1.459  0.1623 -0.3929  0.2852
17584SOL    HW164730   6.050   7.749   1.377 -1.0844 -1.4567 -0.6799
17584SOL    HW264731   6.061   7.768   1.526  1.5279 -0.0416 -1.0039
17585SOL     OW64732   9.781   6.260   7.060  0.2668  0.0114 -0.4379
17585SOL    HW164733   9.839   6.314   7.006  0.3255 -0.4820 -0.8731
17585SOL    HW264734   9.785   6.173   7.021 -0.4752 -0.1196 -0.2468
17586SOL     OW64735   6.706   8.770   8.453 -0.0386  1.0858  0.0729
17586SOL    HW164736   6.730   8.838   8.390  1.0395  2.0532  1.4584
17586SOL    HW264737   6.787   8.750   8.499 -0.3107 -1.2562 -0.3477
17587SOL     OW64738   3.017   2.494   8.291  0.4591 -0.1452  0.4846
17587SOL    HW164739   3.057   2.465   8.209  1.4310 -1.7173  1.4566
17587SOL    HW264740   2.932   2.451   8.293  1.5666 -2.4178  1.5400
17588SOL     OW64741   1.739   9.676   9.490  0.3883 -0.5082 -0.5264
17588SOL    HW164742   1.708   9.597   9.534 -2.6540  0.5670 -0.4679
17588SOL    HW264743   1.716   9.663   9.398 -0.3834  0.3696 -0.4775
17589SOL     OW64744   7.088   9.848   1.005  0.2078  0.0702  0.3945
17589SOL    HW164745   7.032   9.785   1.050  0.4334 -0.8484 -0.5630
17589SOL    HW264746   7.027   9.905   0.959 -0.0091  0.7801  1.5498
17590SOL     OW64747  10.263   4.452   2.003  0.4006  0.2732  0.2920
17590SOL    HW164748  10.226   4.423   2.086 -0.0746  2.2376  0.8340
17590SOL    HW264749  10.348   4.488   2.026  1.7066 -2.0369 -0.6019
17591SOL     OW64750   7.703   4.659   9.607  0.2950  0.3996 -0.1502
17591SOL    HW164751   7.653   4.720   9.552 -1.3536 -0.0761  0.7543
17591SOL    HW264752   7.722   4.586   9.549  0.7000  0.9632 -0.7433
17592SOL     OW64753   0.123   0.529   7.615  0.0147  0.6466 -0.5076
17592SOL    HW164754   0.052   0.587   7.643 -0.6000  0.4433 -1.6144
17592SOL    HW264755   0.132   0.544   7.521  1.1336  0.3268 -0.4701
17593SOL     OW64756   0.085   0.213   6.362  1.0650 -0.0952 -0.0581
17593SOL    HW164757   0.017   0.166   6.313  0.7546  0.0236  0.2467
17593SOL    HW264758   0.068   0.305   6.345  1.0083 -0.0563  0.1935
17594SOL     OW64759   0.223   3.829   0.671  0.4910  0.0416 -0.3685
17594SOL    HW164760   0.162   3.844   0.743  2.6187 -0.1161  1.6186
17594SOL    HW264761   0.174   3.777   0.608 -1.8192  1.1491  0.4106
17595SOL     OW64762   9.921   1.299   1.451 -0.0421 -0.0071  0.5572
17595SOL    HW164763   9.886   1.376   1.407 -0.8316 -1.3624 -1.3668
17595SOL    HW264764  10.014   1.298   1.429  0.1817  0.8882  1.4110
17596SOL     OW64765   9.224   7.810   7.053 -0.5744  0.8834 -0.1022
17596SOL    HW164766   9.279   7.766   6.989 -1.6978 -2.7070  1.1701
17596SOL    HW264767   9.284   7.866   7.102  0.9333  0.9576 -1.9386
17597SOL     OW64768   2.962   3.546   3.647 -0.8252 -0.1816 -0.4892
17597SOL    HW164769   2.961   3.482   3.718 -1.4941  1.3823  0.9928
17597SOL    HW264770   2.926   3.499   3.572 -0.7207 -1.7138  0.3738
17598SOL     OW64771   9.839   6.360   9.777 -0.6274  0.4074 -0.2574
17598SOL    HW164772   9.838   6.324   9.689  2.7283 -0.9866  0.1120
17598SOL    HW264773   9.930   6.349   9.807 -1.2826  2.0954  2.8623
17599SOL     OW64774   0.165   9.757   3.147 -0.2173 -0.2424 -0.6171
17599SOL    HW164775   0.082   9.787   3.184  0.7484 -1.5215  2.9755
17599SOL    HW264776   0.216   9.837   3.136 -0.2032  0.1798  1.9987
17600SOL     OW64777   9.412   9.140   3.385 -0.6554  0.0021 -0.0595
17600SOL    HW164778   9.425   9.234   3.371 -1.0947 -0.2263 -2.5116
17600SOL    HW264779   9.496   9.109   3.419 -0.9085  1.4396  2.0694
17601SOL     OW64780   7.466   7.360   7.842 -0.0747  0.7548  0.4061
17601SOL    HW164781   7.517   7.368   7.761  0.3071  0.3386  0.5976
17601SOL    HW264782   7.375   7.373   7.815 -0.0258 -0.1450 -0.2140
17602SOL     OW64783   1.979   1.659   0.845  0.3198  0.7102  0.4773
17602SOL    HW164784   2.037   1.722   0.803 -0.3650  1.7369  1.0377
17602SOL    HW264785   1.968   1.589   0.780  0.4549  1.5449 -0.4644
17603SOL     OW64786   6.507   3.764   6.924 -0.7383  0.0158 -0.1056
17603SOL    HW164787   6.487   3.847   6.967 -2.1437  0.0527 -0.7740
17603SOL    HW264788   6.587   3.781   6.875 -1.3323  1.1634 -0.7217
17604SOL     OW64789   5.875   2.165   9.162  0.0500 -0.3773 -0.5764
17604SOL    HW164790   5.898   2.099   9.228 -0.9785 -0.5326 -0.3495
17604SOL    HW264791   5.909   2.247   9.197 -0.5504 -0.4459  0.2056
17605SOL     OW64792   8.822   1.953   0.601 -0.0355  0.1163 -0.1370
17605SOL    HW164793   8.911   1.984   0.584  0.5660 -0.5306  1.6226
17605SOL    HW264794   8.765   2.015   0.555  1.2358  2.1086  0.8751
17606SOL     OW64795   5.368   8.319   7.537 -0.6087 -0.1874  0.2628
17606SOL    HW164796   5.352   8.280   7.623 -0.7554 -0.0944  0.2776
17606SOL    HW264797   5.285   8.361   7.514 -0.5995 -0.2913  0.0357
17607SOL     OW64798   3.061   9.599   5.343 -0.1583  0.2707 -0.0334
17607SOL    HW164799   3.067   9.504   5.338 -0.5642  0.2490 -0.1698
17607SOL    HW264800   3.142   9.627   5.385  0.7876 -0.0092 -1.5789
17608SOL     OW64801   8.743   8.013   0.380 -0.2243  0.2811  0.1606
17608SOL    HW164802   8.776   8.005   0.469 -2.4756 -1.4837  0.9317
17608SOL    HW264803   8.803   7.959   0.327  0.5936  0.6135  0.7300
17609SOL     OW64804   5.799   3.617  10.182 -0.2437  0.8944  0.2077
17609SOL    HW164805   5.849   3.576  10.253 -1.1351 -0.1616  0.2471
17609SOL    HW264806   5.723   3.561  10.171 -0.5355  1.5091 -1.0370
17610SOL     OW64807   1.401   3.019   0.509 -0.2914 -0.2465  0.0151
17610SOL    HW164808   1.321   3.069   0.493 -1.8296 -1.7400  2.3138
17610SOL    HW264809   1.428   2.988   0.423 -1.2083  1.6763 -1.0286
17611SOL     OW64810   1.205   2.210   6.871  0.3844 -0.3295 -0.4916
17611SOL    HW164811   1.156   2.132   6.900  0.4734 -0.2156 -0.0224
17611SOL    HW264812   1.297   2.186   6.884  0.4041 -0.0591 -0.1181
17612SOL     OW64813   3.889   4.026   6.334  0.1442 -0.2994 -0.0951
17612SOL    HW164814   3.808   4.074   6.319 -0.6809 -1.1057  1.4530
17612SOL    HW264815   3.922   4.060   6.417  0.7596 -0.7966 -0.1246
17613SOL     OW64816   2.871   9.007   6.570 -0.0903 -0.5903 -0.6405
17613SOL    HW164817   2.903   9.090   6.534 -1.5022 -0.5928 -1.9859
17613SOL    HW264818   2.863   8.949   6.494  1.7659 -2.3423  0.3659
17614SOL     OW64819   4.593   3.206   5.432 -0.0259 -0.2026  0.3889
17614SOL    HW164820   4.641   3.210   5.349 -1.4668 -1.3086 -0.5496
17614SOL    HW264821   4.642   3.142   5.484 -0.5111 -1.4300 -0.6112
17615SOL     OW64822   1.910   3.009   9.303  0.5594 -0.7689  0.0311
17615SOL    HW164823   1.821   3.034   9.326  0.8216 -1.4746  1.9845
17615SOL    HW264824   1.944   3.085   9.256 -1.0338 -0.4683 -0.6949
17616SOL     OW64825   7.980   6.284   4.727 -0.3171  0.2406  0.3582
17616SOL    HW164826   7.952   6.313   4.640  1.8095  1.3345 -0.0158
17616SOL    HW264827   7.927   6.335   4.787  1.1061  2.6861 -0.3291
17617SOL     OW64828   2.635   6.878   2.903 -0.0045  0.6291  0.2148
17617SOL    HW164829   2.722   6.920   2.901  0.7448 -0.6788  2.0703
17617SOL    HW264830   2.628   6.843   2.992 -1.4012 -1.4708 -0.6471
17618SOL     OW64831   7.199   9.679   1.666 -0.6234  0.2431 -0.6878
17618SOL    HW164832   7.161   9.648   1.748  1.9841 -0.5268  0.3164
17618SOL    HW264833   7.178   9.772   1.663 -1.4654  0.1073  0.4267
17619SOL     OW64834   6.625   6.028   9.304  0.0043 -0.4612  1.0480
17619SOL    HW164835   6.585   6.096   9.358 -2.6876 -0.8143 -0.3034
17619SOL    HW264836   6.692   6.074   9.253 -2.0596  1.4031 -0.1858
17620SOL     OW64837   2.710   5.200   6.866 -0.0740  0.5499 -0.0258
17620SOL    HW164838   2.788   5.197   6.811  0.5494  0.2819  0.8564
17620SOL    HW264839   2.743   5.199   6.955 -1.1232 -2.1167  0.4392
17621SOL     OW64840   1.489   3.594   5.792  0.2252 -0.1426 -1.0343
17621SOL    HW164841   1.398   3.569   5.809  0.9299 -1.5567  1.0391
17621SOL    HW264842   1.527   3.607   5.878  1.9401  0.7628 -1.8690
17622SOL     OW64843   9.825   2.071   1.489 -0.2728  0.2386  0.7454
17622SOL    HW164844   9.890   2.083   1.558  2.7993  1.6535 -2.1339
17622SOL    HW264845   9.866   2.011   1.427 -1.3400  1.7044 -1.5219
17623SOL     OW64846   4.205   5.392   1.523 -0.5003  0.2658 -0.0295
17623SOL    HW164847   4.174   5.306   1.552 -2.7786  1.3741  1.1224
17623SOL    HW264848   4.287   5.405   1.570 -0.2352 -1.1554 -0.0500
17624SOL     OW64849   4.769   6.868   8.281  0.4306  1.0128  0.0007
17624SOL    HW164850   4.834   6.823   8.227  0.1966  0.7253 -0.0436
17624SOL    HW264851   4.789   6.840   8.371  0.4597  1.0405  0.0032
17625SOL     OW64852   2.456   7.012   4.132 -0.2292  1.1068 -0.1737
17625SOL    HW164853   2.438   7.097   4.171  1.2855  2.1875 -1.6955
17625SOL    HW264854   2.447   7.025   4.038  1.0253 -0.1385 -0.5083
17626SOL     OW64855   6.598   5.269   4.889 -0.0663  0.3229 -0.2302
17626SOL    HW164856   6.617   5.344   4.832  0.7704  0.1328 -0.2145
17626SOL    HW264857   6.637   5.195   4.843  0.1955  0.0925  0.3634
17627SOL     OW64858   2.685  10.379   8.171 -0.1272 -0.2986 -0.8735
17627SOL    HW164859   2.656  10.438   8.101  0.9303 -1.0769 -2.0183
17627SOL    HW264860   2.604  10.343   8.207 -0.6884 -0.4716 -2.2458
17628SOL     OW64861   3.126   7.943   6.597 -0.7127  0.3400 -0.5163
17628SOL    HW164862   3.200   7.986   6.555  0.6761  0.8013  2.1902
17628SOL    HW264863   3.155   7.853   6.612 -1.5245 -0.0648 -1.3088
17629SOL     OW64864   6.813   5.734   9.991  0.0218  0.0030 -0.2437
17629SOL    HW164865   6.869   5.764   9.920 -2.1687  2.3641 -1.1401
17629SOL    HW264866   6.797   5.642   9.972  1.4350 -0.0402 -1.4067
17630SOL     OW64867   3.512   7.368   9.847 -0.2050  0.9228 -0.0857
17630SOL    HW164868   3.429   7.362   9.895 -1.1073  1.1868 -1.5294
17630SOL    HW264869   3.563   7.293   9.877 -1.3474  0.2133  0.1507
17631SOL     OW64870   2.177   3.638   4.195  0.2138 -0.5232 -0.0583
17631SOL    HW164871   2.272   3.628   4.205  0.4473  0.3734 -1.1789
17631SOL    HW264872   2.160   3.729   4.218 -0.3575 -0.6451  0.0122
17632SOL     OW64873   3.227   7.449   7.703  0.0610 -0.2462 -0.0948
17632SOL    HW164874   3.177   7.389   7.647  1.3429 -1.1577 -0.2924
17632SOL    HW264875   3.285   7.495   7.643 -0.5785  0.8785  0.1210
17633SOL     OW64876   8.217   9.413   2.648 -0.2848 -0.0971  0.1302
17633SOL    HW164877   8.233   9.325   2.613 -1.2867 -0.5269  0.7030
17633SOL    HW264878   8.282   9.422   2.718  1.1830  0.4485 -1.2388
17634SOL     OW64879   2.040   5.729   7.195  0.5958 -0.3642  0.0257
17634SOL    HW164880   2.092   5.677   7.133 -1.3325 -1.4594 -0.7940
17634SOL    HW264881   1.977   5.666   7.232 -0.3523  0.9289  0.7232
17635SOL     OW64882   5.642   5.605   0.473  0.2497  0.3499  0.5606
17635SOL    HW164883   5.550   5.600   0.496  0.1851  1.7426  0.6882
17635SOL    HW264884   5.645   5.599   0.378  0.1320 -0.7382  0.6118
17636SOL     OW64885   6.479   9.133   4.098  0.0165  0.2037  0.2836
17636SOL    HW164886   6.433   9.173   4.024  1.0603 -1.3470 -1.2671
17636SOL    HW264887   6.504   9.207   4.153  1.0207  1.6356 -1.9698
17637SOL     OW64888   8.568   0.409   8.215  0.0423 -0.3646 -0.7569
17637SOL    HW164889   8.651   0.407   8.169 -0.1839  2.6924 -1.4505
17637SOL    HW264890   8.507   0.362   8.158  0.8177 -0.8077 -1.2295
17638SOL     OW64891  10.187   2.871   7.672  0.4423  0.2435  0.1578
17638SOL    HW164892  10.167   2.784   7.705 -0.8896  0.6511  0.4750
17638SOL    HW264893  10.282   2.870   7.657  0.7490 -0.6645  1.9038
17639SOL     OW64894   2.326  10.209   6.369 -0.2378  0.7185  0.3310
17639SOL    HW164895   2.318  10.180   6.460  1.4263 -0.9415  0.0065
17639SOL    HW264896   2.291  10.136   6.317  0.9507  0.6498 -0.4112
17640SOL     OW64897   3.470   5.608   1.131 -0.2695  0.2083 -0.1188
17640SOL    HW164898   3.401   5.669   1.104  1.9852  1.6898 -3.1381
17640SOL    HW264899   3.513   5.653   1.203 -0.7955  0.5306  0.0054
17641SOL     OW64900   4.538   7.313   0.486  0.2388 -0.3933  0.1943
17641SOL    HW164901   4.516   7.316   0.579  1.1892 -2.1444  0.5098
17641SOL    HW264902   4.626   7.276   0.483 -0.1379 -1.2450 -1.4457
17642SOL     OW64903   4.999  10.234   6.756  0.0706  0.0251  0.3331
17642SOL    HW164904   4.915  10.197   6.729 -0.5820  0.4782  1.6503
17642SOL    HW264905   5.058  10.158   6.760 -0.3832 -0.3664 -0.1815
17643SOL     OW64906   4.323   5.684   5.446  0.4922 -0.2549  0.0811
17643SOL    HW164907   4.245   5.717   5.491  1.1933  1.0932  0.3356
17643SOL    HW264908   4.297   5.679   5.354  0.1247  0.2543  0.1543
17644SOL     OW64909   0.651   9.126   5.328 -0.0889 -0.1638  0.3707
17644SOL    HW164910   0.583   9.104   5.391 -0.2871  0.0505  0.2336
17644SOL    HW264911   0.639   9.062   5.257 -0.5917  0.3014  0.0263
17645SOL     OW64912   0.346   8.523   2.197 -0.4307 -0.3535  0.1357
17645SOL    HW164913   0.266   8.490   2.156  0.5271 -2.2583 -0.2986
17645SOL    HW264914   0.414   8.464   2.168  0.6579 -0.5740  2.8634
17646SOL     OW64915   6.727   6.117   3.215  0.0969  0.4751  0.2844
17646SOL    HW164916   6.751   6.037   3.262  1.7616  1.5222  1.2900
17646SOL    HW264917   6.675   6.167   3.278  0.1306  0.7552  0.0911
17647SOL     OW64918   9.133   4.705   9.529  0.1650 -0.2340 -0.2018
17647SOL    HW164919   9.131   4.777   9.466  1.1449  0.0604  0.0787
17647SOL    HW264920   9.073   4.639   9.494  0.4851  0.0415 -1.2878
17648SOL     OW64921   0.030   9.888   0.607 -0.1975 -0.6547 -0.0138
17648SOL    HW164922   0.116   9.845   0.606 -0.5503 -1.3789 -0.4556
17648SOL    HW264923  -0.028   9.823   0.647 -0.4072  0.1073  0.9564
17649SOL     OW64924   7.053   2.458   9.314 -0.5126 -0.2777  0.7166
17649SOL    HW164925   7.065   2.398   9.240 -1.4129 -1.7624  1.7403
17649SOL    HW264926   7.127   2.519   9.307 -0.1151 -0.8881 -0.9090
17650SOL     OW64927   4.156   9.610   1.407 -0.2991 -0.1414 -0.0139
17650SOL    HW164928   4.104   9.532   1.385  0.1517 -0.7105  0.8908
17650SOL    HW264929   4.151   9.616   1.502  1.0314 -0.0196  0.0686
17651SOL     OW64930   7.962   0.909   7.578 -0.6688 -0.5160  0.0448
17651SOL    HW164931   7.997   0.953   7.500  1.0946 -1.8168  0.0351
17651SOL    HW264932   7.920   0.979   7.628 -1.4031  0.4391 -1.8034
17652SOL     OW64933   1.287   8.587   8.147 -0.9994 -0.1161 -0.2871
17652SOL    HW164934   1.364   8.608   8.200 -0.6422  1.3422 -1.3257
17652SOL    HW264935   1.213   8.595   8.207 -0.4477 -0.3661  0.4345
17653SOL     OW64936   0.675   7.578   1.281  0.4688  0.1010 -0.1109
17653SOL    HW164937   0.670   7.513   1.210 -1.1628  0.3746 -0.2862
17653SOL    HW264938   0.722   7.533   1.351 -0.3517 -1.1787 -0.3434
17654SOL     OW64939   5.723   8.367   3.588 -0.2757  0.3997  0.0684
17654SOL    HW164940   5.658   8.401   3.650  0.2895  1.3624  0.1478
17654SOL    HW264941   5.742   8.441   3.531  1.2341  0.3252  0.4499
17655SOL     OW64942   7.063   9.733   9.951  0.3441 -0.9610 -0.4104
17655SOL    HW164943   7.126   9.780  10.005  0.4224  0.2774 -1.5197
17655SOL    HW264944   6.985   9.726  10.006  0.2494  0.7174 -0.2626
17656SOL     OW64945   3.505   1.430   9.047 -0.0870  0.1187  0.4400
17656SOL    HW164946   3.546   1.509   9.083 -2.4925  0.8942  1.6112
17656SOL    HW264947   3.463   1.460   8.966  1.0660 -0.5614 -0.4570
17657SOL     OW64948   7.840   5.212   7.431  0.2575 -0.0344  0.3670
17657SOL    HW164949   7.868   5.141   7.373 -0.3106  0.6307 -0.7694
17657SOL    HW264950   7.917   5.233   7.484  0.5180 -1.2801  0.5033
17658SOL     OW64951   4.626   1.943   7.640  0.0437  0.0787 -0.2162
17658SOL    HW164952   4.592   2.021   7.598 -0.2002  0.7680  1.1937
17658SOL    HW264953   4.693   1.975   7.701  0.1241 -0.8204  0.1949
17659SOL     OW64954   8.711   1.567   8.342 -0.1050  0.2393 -0.0116
17659SOL    HW164955   8.741   1.577   8.432  1.9671 -1.0641 -0.4679
17659SOL    HW264956   8.715   1.472   8.327 -0.5833  0.4242 -1.4200
17660SOL     OW64957  10.101   4.339   0.415 -0.0477  0.2339 -0.2281
17660SOL    HW164958  10.062   4.394   0.483  0.3329 -0.6032  0.6950
17660SOL    HW264959  10.067   4.375   0.333 -2.5687 -0.3135  0.4897
17661SOL     OW64960   1.877   7.216  10.246 -0.5377  0.1613 -0.5044
17661SOL    HW164961   1.804   7.263  10.206 -1.6546 -1.3691 -0.3541
17661SOL    HW264962   1.837   7.137  10.282  1.1034 -0.4017  0.1488
17662SOL     OW64963   9.455   6.653   0.161 -0.1532  0.4818  0.5494
17662SOL    HW164964   9.539   6.627   0.199  0.2346  0.2057 -0.4685
17662SOL    HW264965   9.394   6.586   0.191 -0.1680  1.0646  1.8689
17663SOL     OW64966   6.989   1.228   6.884  0.0956  0.3808 -0.1362
17663SOL    HW164967   6.989   1.285   6.961 -0.9808  0.1716  0.0359
17663SOL    HW264968   6.979   1.288   6.809  1.6303  0.6284 -0.1756
17664SOL     OW64969   5.231   9.419   0.474  0.1925  0.3355 -0.2623
17664SOL    HW164970   5.145   9.460   0.472  0.2101  0.3705 -0.3059
17664SOL    HW264971   5.278   9.464   0.545  0.2950  0.5615 -0.4688
17665SOL     OW64972   3.952   7.106   3.394  0.0236 -0.1860  0.1110
17665SOL    HW164973   4.033   7.070   3.429 -0.1347 -1.3611 -0.6825
17665SOL    HW264974   3.905   7.139   3.471  1.3441  0.7386  0.5486
17666SOL     OW64975   9.978   8.034   5.948  0.0075 -0.1398  0.3367
17666SOL    HW164976   9.959   7.988   6.030 -0.5512 -1.5148 -0.5255
17666SOL    HW264977  10.059   8.082   5.966 -0.2201 -0.2298  1.7515
17667SOL     OW64978  10.372   3.529   1.537  0.0112 -0.0053  0.3558
17667SOL    HW164979  10.338   3.545   1.449 -0.4645 -0.8236  0.3801
17667SOL    HW264980  10.356   3.611   1.584  1.0362  0.7389 -0.5455
17668SOL     OW64981   7.349   0.326   5.196  0.1425  0.4678  0.6981
17668SOL    HW164982   7.385   0.243   5.165  1.4204  1.6178 -1.0901
17668SOL    HW264983   7.324   0.309   5.287 -1.5386 -2.4299 -0.1623
17669SOL     OW64984   1.882   9.917   9.357 -0.3701 -0.9434 -0.2748
17669SOL    HW164985   1.871   9.926   9.263  0.4770  0.0145 -0.2931
17669SOL    HW264986   1.797   9.887   9.388 -0.7212 -1.0570 -1.3091
17670SOL     OW64987   1.200   8.436   1.308  0.2446 -0.6034 -0.7602
17670SOL    HW164988   1.214   8.528   1.328  0.6041 -0.7183 -0.4602
17670SOL    HW264989   1.107   8.429   1.290 -0.1936 -0.5379  1.2231
17671SOL     OW64990   7.446   2.044   5.815  0.8782  0.2456 -0.7990
17671SOL    HW164991   7.523   1.995   5.787  0.8500 -0.0545 -0.3707
17671SOL    HW264992   7.478   2.098   5.888  0.9551  1.0227 -1.3882
17672SOL     OW64993  10.229   0.019   5.624 -0.0633 -0.3180  0.4642
17672SOL    HW164994  10.208   0.105   5.588 -1.6223  0.0947  2.1822
17672SOL    HW264995  10.289   0.036   5.696  2.7221 -1.0991 -1.5055
17673SOL     OW64996   9.944   2.102   8.504 -0.1961 -0.0763  0.0209
17673SOL    HW164997   9.989   2.109   8.588 -1.0335  1.3597  0.3726
17673SOL    HW264998   9.868   2.047   8.522  1.0296 -2.0468 -0.4521
17674SOL     OW64999   1.469   8.447   2.372 -0.1725  0.1775 -0.3950
17674SOL    HW165000   1.491   8.361   2.407  1.8049  0.9597  0.4223
17674SOL    HW265001   1.386   8.470   2.415  0.6805 -0.1724  1.5550
17675SOL     OW65002   5.361   1.468   0.497  0.2317 -0.2423  0.1342
17675SOL    HW165003   5.298   1.419   0.550 -0.4588  0.1370 -0.3320
17675SOL    HW265004   5.435   1.484   0.557 -1.3075  1.8130  1.6316
17676SOL     OW65005   7.544  10.328   3.453  0.2210 -0.2121 -0.3809
17676SOL    HW165006   7.577  10.285   3.532 -0.2008 -2.1626 -1.2149
17676SOL    HW265007   7.467  10.376   3.482 -0.7963 -2.0943  0.1837
17677SOL     OW65008   8.034   8.081   9.663 -0.3810 -0.0435  0.0380
17677SOL    HW165009   8.062   8.040   9.581 -0.3743 -0.0921  0.0644
17677SOL    HW265010   8.089   8.159   9.671 -0.7401  0.2396 -0.2603
17678SOL     OW65011   7.625   4.418   3.769  0.1634  0.2539  0.5713
17678SOL    HW165012   7.558   4.418   3.701 -0.5197 -0.0417  1.2342
17678SOL    HW265013   7.705   4.448   3.725 -0.6953  1.8719  0.0648
17679SOL     OW65014   5.477   7.415   7.010  0.3381  0.3819 -0.4802
17679SOL    HW165015   5.469   7.319   7.008 -1.5504  0.4955 -0.9575
17679SOL    HW265016   5.456   7.443   6.921  0.5823  1.2545 -0.2736
17680SOL     OW65017   1.587   0.471   1.337  0.3838 -0.2479 -0.0204
17680SOL    HW165018   1.652   0.540   1.343 -0.3356  0.4518 -0.0270
17680SOL    HW265019   1.579   0.438   1.426 -1.5512  1.8768  0.7064
17681SOL     OW65020   5.144   1.730   6.413 -0.6206 -0.1920 -0.0771
17681SOL    HW165021   5.126   1.792   6.342  0.6746  1.2929  0.8141
17681SOL    HW265022   5.115   1.775   6.492  0.7341 -0.5082  0.6368
17682SOL     OW65023   4.754  10.028   0.620 -0.0052  0.1988 -0.1851
17682SOL    HW165024   4.739  10.117   0.588  1.1136 -0.4511 -2.8003
17682SOL    HW265025   4.826  10.037   0.683 -1.8874  1.4555  1.9511
17683SOL     OW65026   6.822   4.396   9.625 -0.3778 -0.2435 -0.0488
17683SOL    HW165027   6.839   4.314   9.579 -0.3805 -1.1794  1.5232
17683SOL    HW265028   6.840   4.465   9.561  1.7416 -1.4059 -0.7717
17684SOL     OW65029   6.796   6.937   8.336  0.0701 -0.0729 -0.0359
17684SOL    HW165030   6.724   7.000   8.348  1.5267  1.6769 -0.0648
17684SOL    HW265031   6.790   6.881   8.413 -1.1586  0.1937  0.0992
17685SOL     OW65032   9.644   1.070   7.429 -0.0826  0.0328  0.2191
17685SOL    HW165033   9.600   1.121   7.497 -3.0088 -0.7194 -0.9453
17685SOL    HW265034   9.649   0.982   7.464 -0.5886 -0.1266 -0.1032
17686SOL     OW65035   9.672   7.444   5.491  0.2638  0.6822  0.0706
17686SOL    HW165036   9.684   7.358   5.450  2.5410 -0.7072  3.2021
17686SOL    HW265037   9.577   7.456   5.494 -0.0646 -0.5034 -2.6270
17687SOL     OW65038   2.155   8.790   3.264  0.3782  0.5075 -0.3772
17687SOL    HW165039   2.231   8.845   3.241  0.4257  0.1670 -1.0566
17687SOL    HW265040   2.118   8.764   3.179 -0.0128  0.0024 -0.0541
17688SOL     OW65041   1.842   6.612   9.183  0.4837 -0.5453 -0.4929
17688SOL    HW165042   1.869   6.531   9.140  0.4268 -0.1036 -1.3936
17688SOL    HW265043   1.821   6.671   9.111  0.2854  0.1926  0.1549
17689SOL     OW65044   9.685   0.941   0.588  0.5642 -0.2569  0.2678
17689SOL    HW165045   9.694   0.899   0.502  1.7952  0.5337 -0.0216
17689SOL    HW265046   9.753   0.900   0.642 -0.4972 -1.0724  1.0258
17690SOL     OW65047   9.486   4.465   7.952 -0.6232 -0.4797  0.2889
17690SOL    HW165048   9.531   4.550   7.950 -1.6852  0.1047  0.7331
17690SOL    HW265049   9.442   4.463   8.037 -0.1635 -1.7285  0.5229
17691SOL     OW65050   9.739   1.756   7.356 -0.3004 -0.1553 -0.7732
17691SOL    HW165051   9.653   1.714   7.368 -0.5680  0.6695  0.3134
17691SOL    HW265052   9.798   1.706   7.412  0.0549 -0.9955 -1.8468
17692SOL     OW65053   9.181   9.359   5.871 -0.0639  0.5952 -0.0192
17692SOL    HW165054   9.255   9.363   5.811 -0.1847 -0.3107 -0.2472
17692SOL    HW265055   9.200   9.284   5.928 -0.4788  0.7711  0.3548
17693SOL     OW65056   9.522   7.895   2.278  0.3361  0.0756 -0.5368
17693SOL    HW165057   9.469   7.928   2.205 -0.1241  0.2792 -0.1223
17693SOL    HW265058   9.483   7.936   2.356  0.8218 -0.1322 -0.1782
17694SOL     OW65059   2.757   9.386  10.224 -0.3826  0.3455  0.3157
17694SOL    HW165060   2.771   9.481  10.216 -2.1041  0.9815  3.4606
17694SOL    HW265061   2.823   9.348  10.165  1.5916  3.4335  0.2750
17695SOL     OW65062   8.273   4.793   9.758 -0.0928  0.0623 -0.0583
17695SOL    HW165063   8.201   4.737   9.729  0.4698  0.3633 -2.2862
17695SOL    HW265064   8.245   4.881   9.734  1.3839  0.0800 -2.0021
17696SOL     OW65065   3.192   8.210   6.142  0.8842 -0.0413 -0.1138
17696SOL    HW165066   3.163   8.260   6.218 -1.8902  0.8616 -1.6132
17696SOL    HW265067   3.217   8.277   6.078  2.4984 -0.7656 -0.2750
17697SOL     OW65068   1.263   9.891   1.755  0.0779  0.6945 -0.2644
17697SOL    HW165069   1.175   9.852   1.759 -0.0429  0.9912  0.0646
17697SOL    HW265070   1.259   9.950   1.679  0.4188 -0.2994 -1.0694
17698SOL     OW65071   1.788   0.814   2.062 -0.4848  0.5221 -0.3038
17698SOL    HW165072   1.711   0.853   2.022 -0.3078 -0.4237 -1.6327
17698SOL    HW265073   1.857   0.881   2.053 -1.1626  1.4335  1.0386
17699SOL     OW65074   7.470   4.835  10.264 -0.1464  0.4121  0.2386
17699SOL    HW165075   7.420   4.802  10.189  0.1077  0.4899  0.0333
17699SOL    HW265076   7.476   4.761  10.324  0.6516  0.0035 -0.3369
17700SOL     OW65077   5.291   7.104   6.143 -0.4970  0.3191 -0.1947
17700SOL    HW165078   5.349   7.176   6.120  0.7807 -0.3147  0.9170
17700SOL    HW265079   5.207   7.146   6.161  0.2044  1.5312  0.3754
17701SOL     OW65080   9.219   3.468   9.090 -0.0048 -0.4751 -0.0813
17701SOL    HW165081   9.247   3.376   9.087 -1.4619 -0.9477 -1.5010
17701SOL    HW265082   9.162   3.477   9.013  1.2467  2.0354 -0.8171
17702SOL     OW65083   4.211   5.863   4.082 -0.6514  0.1253  0.7916
17702SOL    HW165084   4.290   5.897   4.123 -0.8082  0.5613  0.7469
17702SOL    HW265085   4.145   5.868   4.151 -0.5924 -0.4199  0.8867
17703SOL     OW65086   7.043   9.776   4.142  0.2302 -0.1645 -0.3216
17703SOL    HW165087   7.052   9.681   4.149  1.2366 -0.0588  0.0234
17703SOL    HW265088   7.064   9.808   4.230 -1.6571  0.2976  0.0140
17704SOL     OW65089   2.493   3.805   6.813 -0.2292 -0.7968 -0.4472
17704SOL    HW165090   2.564   3.810   6.749  1.3072  1.5186  1.2709
17704SOL    HW265091   2.530   3.758   6.887 -0.3082  0.7079  0.5974
17705SOL     OW65092   8.789   5.014   3.364  0.6106 -0.0488  0.1979
17705SOL    HW165093   8.780   5.106   3.338 -0.0411  0.2919  1.5243
17705SOL    HW265094   8.858   5.015   3.431 -0.0424 -0.3803  0.8841
17706SOL     OW65095   4.398   2.707   0.659  0.6720  0.9065  0.0775
17706SOL    HW165096   4.361   2.650   0.726  1.6117  0.3411  0.1290
17706SOL    HW265097   4.453   2.649   0.606  2.7997  1.9838  0.9884
17707SOL     OW65098   1.069   1.948   3.426 -0.0258 -0.3404 -0.2499
17707SOL    HW165099   1.040   2.009   3.358 -3.3237  0.4543  1.5927
17707SOL    HW265100   1.077   2.003   3.504  2.2406 -1.4519  0.3545
17708SOL     OW65101   6.060   7.070   5.395 -1.0152 -0.1473  0.5432
17708SOL    HW165102   6.085   7.161   5.411 -2.8066  0.5323 -0.2162
17708SOL    HW265103   5.970   7.076   5.363 -1.1832 -2.2047  0.5290
17709SOL     OW65104   5.486   9.596   4.527  0.6049  0.9344 -0.1807
17709SOL    HW165105   5.496   9.505   4.501 -1.8650  1.2869 -2.7812
17709SOL    HW265106   5.433   9.592   4.607  1.3564  0.1090  0.3030
17710SOL     OW65107   9.555   4.288   0.098  0.4164  0.2234  0.3175
17710SOL    HW165108   9.647   4.283   0.072  0.7929 -0.7623  1.7094
17710SOL    HW265109   9.512   4.220   0.046  0.9568 -0.9854  1.3899
17711SOL     OW65110   2.581   0.005   6.689  0.2270 -0.0726 -0.5193
17711SOL    HW165111   2.645  -0.041   6.743 -1.3075 -1.3379  0.3036
17711SOL    HW265112   2.632   0.071   6.642  1.5567  1.7079  3.0791
17712SOL     OW65113   5.701   7.883   5.133  0.0351  0.0584 -0.3792
17712SOL    HW165114   5.682   7.950   5.067  1.4505 -0.8863 -1.8471
17712SOL    HW265115   5.761   7.926   5.194  2.4830 -0.2589 -2.3547
17713SOL     OW65116   4.351   1.014   5.118  0.2739  0.1341  0.4712
17713SOL    HW165117   4.422   1.000   5.055  1.1977 -0.9629  1.7086
17713SOL    HW265118   4.382   1.085   5.174  0.9708 -1.1308  1.7541
17714SOL     OW65119   1.815   6.780   7.499 -0.2397 -0.7856  0.2038
17714SOL    HW165120   1.862   6.752   7.577 -1.5245  0.7833  1.5992
17714SOL    HW265121   1.811   6.875   7.506 -0.4039 -0.6060 -1.7854
17715SOL     OW65122   1.653   1.285   8.000 -0.0351  0.1954 -0.2330
17715SOL    HW165123   1.744   1.272   8.027  0.9122 -0.9675 -3.5432
17715SOL    HW265124   1.619   1.196   7.989 -0.7655  0.6071 -1.4635
17716SOL     OW65125   0.065   1.547   1.589 -0.1340 -0.5335  0.0209
17716SOL    HW165126   0.147   1.562   1.635  0.0633  0.3557 -0.5822
17716SOL    HW265127   0.092   1.523   1.500 -0.5132 -1.7490  0.2210
17717SOL     OW65128   0.722   4.018   8.340  0.1712  0.0846 -1.0196
17717SOL    HW165129   0.701   3.975   8.257 -2.4785 -1.3242  0.2458
17717SOL    HW265130   0.724   3.947   8.404  0.5659  1.3103  0.3852
17718SOL     OW65131   9.786   3.656   8.996 -0.0336  0.0067  0.4361
17718SOL    HW165132   9.826   3.631   8.912 -1.9248 -1.0950 -0.1795
17718SOL    HW265133   9.707   3.705   8.972 -0.8447 -0.7078  1.5624
17719SOL     OW65134   4.198   1.310   7.462  0.2634 -0.2897  0.5699
17719SOL    HW165135   4.287   1.299   7.494  0.1098 -2.3430  0.4304
17719SOL    HW265136   4.190   1.245   7.391 -0.9746  0.6707 -0.2128
17720SOL     OW65137   5.628   5.472   2.567  0.5335 -0.4268 -0.5264
17720SOL    HW165138   5.536   5.447   2.577  1.0043 -1.7691  0.6843
17720SOL    HW265139   5.625   5.555   2.518 -1.4303  0.7622  1.4275
17721SOL     OW65140   0.630   6.713   2.890 -0.4067 -0.3157 -0.3385
17721SOL    HW165141   0.688   6.653   2.843 -0.7770 -0.5672 -0.4774
17721SOL    HW265142   0.556   6.658   2.918  0.4474 -0.5153  1.7610
17722SOL     OW65143   1.656   6.978   6.558  0.2863 -0.2160 -0.6878
17722SOL    HW165144   1.717   7.033   6.508  0.7067  0.5816  0.6296
17722SOL    HW265145   1.678   6.889   6.532  1.8390  0.0640 -0.4723
17723SOL     OW65146   4.766   0.604   6.279  0.1957  0.4213  0.0190
17723SOL    HW165147   4.713   0.683   6.270  0.6635  0.9118  1.3172
17723SOL    HW265148   4.854   0.631   6.254  1.0308  1.2137  3.3232
17724SOL     OW65149  10.117   7.922   2.738  0.5930 -0.0171 -0.1890
17724SOL    HW165150  10.035   7.971   2.730  1.1475  1.1347  0.7352
17724SOL    HW265151  10.175   7.962   2.673  0.9519  0.3799  0.3595
17725SOL     OW65152   9.795   3.376   1.434 -0.7390  0.0259  0.4913
17725SOL    HW165153   9.730   3.439   1.464 -1.3633  0.0846 -0.9443
17725SOL    HW265154   9.816   3.324   1.512 -2.8063 -0.2687  0.8921
17726SOL     OW65155   3.145   7.659   2.783  0.1686 -0.1840 -0.2621
17726SOL    HW165156   3.179   7.646   2.872 -0.4573 -1.7685 -0.2420
17726SOL    HW265157   3.213   7.711   2.739  1.3490 -0.9649  0.5943
17727SOL     OW65158   3.305   2.386   4.348 -0.0026  0.2318 -0.0828
17727SOL    HW165159   3.226   2.337   4.371 -0.6227  1.1626 -0.1665
17727SOL    HW265160   3.342   2.412   4.433  0.1988 -0.1729 -0.0443
17728SOL     OW65161   8.752   8.669   5.814  0.3551 -0.5105 -0.1629
17728SOL    HW165162   8.708   8.607   5.871 -0.1229  1.3628  1.6269
17728SOL    HW265163   8.690   8.686   5.744  0.3941 -1.8254 -0.5357
17729SOL     OW65164   2.722   1.060   7.739 -0.2160  0.3964  0.6439
17729SOL    HW165165   2.668   1.086   7.664  0.1886 -1.0156 -0.1840
17729SOL    HW265166   2.673   0.988   7.780  1.0560 -1.0428 -0.2430
17730SOL     OW65167   0.312   0.280   7.599  1.2259 -0.1244  0.1142
17730SOL    HW165168   0.270   0.294   7.684  0.1969  1.7335 -0.6403
17730SOL    HW265169   0.352   0.194   7.606 -2.6265 -2.0688  0.9846
17731SOL     OW65170   5.116   8.260   2.881  0.4232 -0.7147  0.0595
17731SOL    HW165171   5.035   8.291   2.841 -1.1890 -3.4262  0.9194
17731SOL    HW265172   5.138   8.181   2.832  0.1082 -2.3850  2.4162
17732SOL     OW65173   1.317   5.922   6.658 -0.2667 -0.2995  0.4840
17732SOL    HW165174   1.223   5.936   6.664 -0.3938 -1.5439  1.9265
17732SOL    HW265175   1.334   5.913   6.564 -1.6951 -0.7530  0.2514
17733SOL     OW65176   7.790   1.800   1.937  0.4515  0.1242 -0.3509
17733SOL    HW165177   7.879   1.796   1.973 -0.4006 -0.2447  1.8583
17733SOL    HW265178   7.750   1.718   1.964 -0.4108 -0.0041 -1.8868
17734SOL     OW65179   0.275   2.170   3.293 -0.4492 -0.2656  0.4987
17734SOL    HW165180   0.208   2.136   3.233 -0.5628 -0.1328  0.5494
17734SOL    HW265181   0.226   2.199   3.370 -0.5139  1.2197 -0.0650
17735SOL     OW65182   5.796   6.526   5.233  0.3069  0.2363  0.3117
17735SOL    HW165183   5.858   6.542   5.304 -0.7863  0.2748  1.2832
17735SOL    HW265184   5.714   6.566   5.262 -0.7392 -1.4998 -0.0344
17736SOL     OW65185   1.736   5.302   0.858  0.6351 -0.1064  0.0598
17736SOL    HW165186   1.808   5.365   0.853 -0.3794  1.1365  0.5796
17736SOL    HW265187   1.704   5.309   0.948  0.3255 -1.1714  0.0408
17737SOL     OW65188   6.839   9.145   1.516 -0.4478 -0.1386  0.4041
17737SOL    HW165189   6.880   9.076   1.465  1.5204 -0.8958  2.8588
17737SOL    HW265190   6.872   9.226   1.477  1.1670 -0.6909  0.5777
17738SOL     OW65191   1.429   7.774   8.308 -0.0796  0.2808 -0.0022
17738SOL    HW165192   1.429   7.702   8.245 -0.4692 -1.0658  1.4727
17738SOL    HW265193   1.457   7.850   8.257 -1.4483 -0.5043 -2.0549
17739SOL     OW65194   8.659   7.405   5.659  0.0102 -0.7475 -0.6122
17739SOL    HW165195   8.715   7.337   5.620  1.3973  0.0750 -0.1305
17739SOL    HW265196   8.693   7.416   5.747 -0.0143  0.7480 -0.7651
17740SOL     OW65197   2.679   4.116   4.551 -0.2802 -0.0035  0.2768
17740SOL    HW165198   2.733   4.195   4.549 -0.3054 -0.0089 -1.6462
17740SOL    HW265199   2.590   4.148   4.558 -0.3032  0.1658 -0.6727
17741SOL     OW65200   8.407   0.258   1.178  0.2693 -0.2194 -0.4351
17741SOL    HW165201   8.350   0.193   1.218 -0.5540  1.5635  1.5134
17741SOL    HW265202   8.495   0.237   1.211  0.0680 -0.5532 -0.1014
17742SOL     OW65203   2.862   3.448   2.493  0.6820  0.3361 -0.0122
17742SOL    HW165204   2.877   3.355   2.505 -0.8472  0.0480 -0.1741
17742SOL    HW265205   2.835   3.457   2.401  0.4640  0.8927  0.1018
17743SOL     OW65206   5.361   1.057   7.571 -0.2065  0.4039 -0.1253
17743SOL    HW165207   5.388   1.058   7.479 -0.3868  1.6937 -0.1816
17743SOL    HW265208   5.367   0.965   7.596  0.1481  0.0707 -1.3355
17744SOL     OW65209   6.812   3.143   3.596  0.0568 -0.6284  0.5205
17744SOL    HW165210   6.796   3.177   3.684  2.3567 -0.0870  0.7786
17744SOL    HW265211   6.874   3.071   3.608  2.3874  1.0091 -0.7801
17745SOL     OW65212  10.388   8.162   0.376  0.2002 -0.1286  0.7543
17745SOL    HW165213  10.300   8.130   0.356  0.3123 -1.1454  1.7498
17745SOL    HW265214  10.412   8.215   0.300 -1.2398  0.1225  0.4445
17746SOL     OW65215   7.772   9.746   2.119 -0.1237 -0.1788  0.0428
17746SOL    HW165216   7.845   9.795   2.079  0.2687 -1.6092 -1.0942
17746SOL    HW265217   7.718   9.813   2.161  1.1315  1.0630 -0.2440
17747SOL     OW65218   9.153   3.018   2.843  0.4687 -0.4961 -0.2305
17747SOL    HW165219   9.190   3.031   2.755  1.5227  1.0495  0.4012
17747SOL    HW265220   9.192   2.936   2.873  2.2006  0.2838 -0.2176
17748SOL     OW65221   9.399   4.485   8.935  0.0795  0.3401 -0.6755
17748SOL    HW165222   9.329   4.506   8.873  0.3572  0.4337 -0.9613
17748SOL    HW265223   9.445   4.568   8.949 -0.7553  0.6192  0.6579
17749SOL     OW65224  10.380   2.921   9.904 -0.2560  0.6219 -0.3453
17749SOL    HW165225  10.317   2.865   9.949 -0.4286 -0.1112 -1.4620
17749SOL    HW265226  10.446   2.941   9.971 -1.5449  1.2626  0.7952
17750SOL     OW65227   7.774  10.004   6.386 -0.3531  0.3503 -0.3447
17750SOL    HW165228   7.790   9.958   6.468 -0.2025  0.0165 -0.5600
17750SOL    HW265229   7.834   9.964   6.323 -2.2152 -1.1842 -1.2647
17751SOL     OW65230   7.076   9.886   7.923 -0.0269 -0.4944 -0.1411
17751SOL    HW165231   7.078   9.791   7.939  0.4528 -0.2155  1.5948
17751SOL    HW265232   6.996   9.916   7.967 -0.0948 -0.0614 -0.5544
17752SOL     OW65233   0.101   9.977   7.959 -0.1841  0.0258 -0.2817
17752SOL    HW165234   0.062   9.900   7.999  0.8156 -0.3497 -0.0164
17752SOL    HW265235   0.147   9.943   7.882 -1.1582  0.5922 -1.1414
17753SOL     OW65236   8.284   1.935   5.456  0.4875  0.3627 -0.6090
17753SOL    HW165237   8.298   1.979   5.539  1.3844 -0.5809 -0.2440
17753SOL    HW265238   8.215   1.871   5.474 -0.5610  1.3288 -1.0496
17754SOL     OW65239   6.636   1.512   8.979  0.0287 -0.0167 -0.4477
17754SOL    HW165240   6.576   1.541   8.910  0.9284 -1.5587 -1.9838
17754SOL    HW265241   6.580   1.471   9.044 -0.8565  1.5237 -0.2057
17755SOL     OW65242   6.633   8.377   8.733  0.1676 -0.3468  0.4368
17755SOL    HW165243   6.598   8.300   8.778  1.3422 -1.3336 -0.2796
17755SOL    HW265244   6.718   8.349   8.699  0.9789  1.5021  0.8121
17756SOL     OW65245   6.856   0.452   9.614 -0.0785 -0.4123  0.4515
17756SOL    HW165246   6.902   0.496   9.685 -2.9866  0.7368  1.7837
17756SOL    HW265247   6.808   0.381   9.656 -1.0460 -0.3644 -0.5304
17757SOL     OW65248   0.369   9.058   3.066 -0.5258 -0.1852  0.1245
17757SOL    HW165249   0.309   9.082   3.137  1.3736  0.1961  1.6911
17757SOL    HW265250   0.311   9.038   2.992 -2.5323  1.0625  1.2431
17758SOL     OW65251   5.286   2.040  10.178  0.3991 -0.1669  0.2804
17758SOL    HW165252   5.284   2.130  10.144 -1.7874 -0.7318 -1.3274
17758SOL    HW265253   5.305   1.986  10.102  0.0097 -1.1894  0.8937
17759SOL     OW65254   2.833   6.958   9.572  0.0043 -0.2567 -0.4106
17759SOL    HW165255   2.846   6.966   9.478  1.3854  2.7968 -0.0807
17759SOL    HW265256   2.745   6.993   9.587 -0.3916 -1.1587 -0.5871
17760SOL     OW65257   1.339   3.465   4.210  0.0082 -0.4017 -0.2981
17760SOL    HW165258   1.350   3.421   4.126 -1.9435  0.6384 -1.1700
17760SOL    HW265259   1.391   3.413   4.272  0.9239 -1.5954 -1.9991
17761SOL     OW65260  10.229   0.040   6.284  0.0813 -0.1550 -0.5529
17761SOL    HW165261  10.140   0.075   6.281 -0.2295 -0.7390  0.9306
17761SOL    HW265262  10.231  -0.028   6.216 -0.4079  0.2745 -0.9997
17762SOL     OW65263   5.232   6.056   8.315 -0.7810  0.2239  0.4442
17762SOL    HW165264   5.228   6.137   8.264 -1.7995  0.2230  0.5162
17762SOL    HW265265   5.211   6.082   8.404 -1.6929 -0.1970  0.3675
17763SOL     OW65266   2.483   0.227   1.393 -0.4997 -0.3719 -0.0919
17763SOL    HW165267   2.392   0.225   1.424 -1.0470 -0.5330 -1.5889
17763SOL    HW265268   2.494   0.315   1.357  0.1429 -0.1525  0.6342
17764SOL     OW65269   3.571   8.342   0.004  0.3295 -0.4433  0.2414
17764SOL    HW165270   3.660   8.347  -0.031 -0.6727 -0.4548 -2.5194
17764SOL    HW265271   3.519   8.304  -0.067 -1.5099 -2.7068  2.5880
17765SOL     OW65272   7.700  10.308   4.245 -0.2563  0.3939 -0.4040
17765SOL    HW165273   7.714  10.379   4.308 -0.8235  0.4879 -0.3793
17765SOL    HW265274   7.757  10.330   4.171  0.0141  0.5619 -0.1503
17766SOL     OW65275   2.763   7.324   8.928 -0.0772  0.1104  0.1193
17766SOL    HW165276   2.770   7.418   8.917 -0.1062  0.1466  0.4043
17766SOL    HW265277   2.823   7.288   8.863 -0.7856  0.2966 -0.6466
17767SOL     OW65278   9.450   2.322   5.937  0.1575 -0.5214 -0.5692
17767SOL    HW165279   9.406   2.388   5.883  0.1040 -0.4753 -0.4692
17767SOL    HW265280   9.446   2.242   5.884 -1.1445 -0.8228 -0.0516
17768SOL     OW65281   8.661   2.318   3.961  0.6543  0.0315  0.0358
17768SOL    HW165282   8.633   2.332   4.051  0.1662 -1.1791  0.0828
17768SOL    HW265283   8.744   2.365   3.954 -0.3140  1.9312  0.4923
17769SOL     OW65284   7.712   1.687   2.430  0.5233 -0.0455  0.6260
17769SOL    HW165285   7.748   1.758   2.483  1.2619 -0.5235  0.7796
17769SOL    HW265286   7.779   1.670   2.364  0.6034 -0.9654  0.9310
17770SOL     OW65287   6.863   6.333   7.291  0.3986  0.3387  0.5161
17770SOL    HW165288   6.817   6.253   7.315  0.1628 -0.0402 -1.1023
17770SOL    HW265289   6.925   6.305   7.224 -0.5521  1.6944 -0.9916
17771SOL     OW65290   4.405   8.067   9.410 -0.4169 -0.4044  0.2500
17771SOL    HW165291   4.319   8.043   9.443 -0.4871  0.0146  0.3725
17771SOL    HW265292   4.406   8.163   9.410  0.4332 -0.3976  1.2827
17772SOL     OW65293   4.593   9.216   2.296 -0.1639  0.0513 -0.4602
17772SOL    HW165294   4.640   9.274   2.356 -2.8562  0.9943  0.9311
17772SOL    HW265295   4.539   9.162   2.353 -1.4208 -0.3561 -1.9682
17773SOL     OW65296   0.238   3.773   4.422  0.0222  0.0706  0.6989
17773SOL    HW165297   0.210   3.708   4.487 -0.0081 -0.0704  0.5462
17773SOL    HW265298   0.286   3.722   4.357  0.1175  0.2230  0.6501
17774SOL     OW65299   4.768   2.078   8.787  0.4657 -0.2850  0.0335
17774SOL    HW165300   4.765   2.149   8.724  1.1691  0.0538  0.3661
17774SOL    HW265301   4.677   2.067   8.816  0.4224  0.8397  0.3789
17775SOL     OW65302   6.291   9.770   1.147 -0.1443 -0.0932  0.0760
17775SOL    HW165303   6.252   9.791   1.062 -0.9860 -0.3845  0.3829
17775SOL    HW265304   6.273   9.677   1.159 -0.0658 -0.0396  0.6015
17776SOL     OW65305   8.660   9.980   1.173  1.1102  0.0498 -0.6257
17776SOL    HW165306   8.637   9.900   1.220  0.1017  0.6056 -0.1446
17776SOL    HW265307   8.648   9.957   1.080  0.5046 -0.2595 -0.4754
17777SOL     OW65308   0.395   9.945  10.188  0.3889 -0.1385  0.3482
17777SOL    HW165309   0.434  10.018  10.235  0.7032 -0.2871  0.3221
17777SOL    HW265310   0.417   9.962  10.096 -0.3620  0.2371  0.2339
17778SOL     OW65311   9.304   1.194   6.185  0.1478  0.0085  0.4037
17778SOL    HW165312   9.398   1.183   6.199  0.1115 -0.8904  0.0097
17778SOL    HW265313   9.277   1.261   6.249  1.0806  0.4040  0.3884
17779SOL     OW65314   9.756   3.836   7.459 -0.6403  0.4488 -0.3968
17779SOL    HW165315   9.666   3.868   7.449 -0.8206 -0.2146 -0.9937
17779SOL    HW265316   9.749   3.742   7.443  0.1467  0.3756 -0.3101
17780SOL     OW65317   6.168   7.530   6.755 -0.3988 -0.4961  0.3210
17780SOL    HW165318   6.193   7.509   6.665 -2.9286 -2.9731  0.0751
17780SOL    HW265319   6.226   7.602   6.780 -2.0857  3.0408 -4.5893
17781SOL     OW65320   1.953   0.505  10.035  0.3605  0.4374 -0.6686
17781SOL    HW165321   2.017   0.436  10.055  0.8249  0.0877 -3.0489
17781SOL    HW265322   1.871   0.457  10.019  0.0024  0.6982  0.3687
17782SOL     OW65323   5.428   9.994   5.836 -0.3171  0.0505 -0.0280
17782SOL    HW165324   5.413  10.053   5.909 -1.8248 -1.3772  0.8650
17782SOL    HW265325   5.441   9.908   5.876  1.5354 -0.3460 -1.3081
17783SOL     OW65326   3.289   4.404   5.149 -0.4661 -0.0227  0.2040
17783SOL    HW165327   3.326   4.354   5.222 -1.4077 -0.5690  0.3198
17783SOL    HW265328   3.227   4.464   5.190 -2.2861 -1.5084 -0.2477
17784SOL     OW65329  10.035   4.830   3.678 -0.8414 -0.1718  0.1836
17784SOL    HW165330  10.069   4.901   3.732  0.1789  0.6762 -1.4936
17784SOL    HW265331   9.949   4.811   3.716 -0.3738  0.6867  1.7899
17785SOL     OW65332  10.056   4.656   6.643 -0.2921  0.3407 -0.0300
17785SOL    HW165333  10.038   4.678   6.552 -0.5422  1.6734  0.3299
17785SOL    HW265334  10.054   4.739   6.690  1.5085 -0.0902  0.9367
17786SOL     OW65335   5.431   4.621   8.014 -0.6452 -0.0282  0.2697
17786SOL    HW165336   5.353   4.606   7.960 -1.2946  0.3216  1.0912
17786SOL    HW265337   5.464   4.706   7.985 -1.0454  0.2010  0.4773
17787SOL     OW65338   0.238   4.803   2.452  0.0636 -0.0865  0.0160
17787SOL    HW165339   0.297   4.789   2.379  0.5355  0.5480  0.2632
17787SOL    HW265340   0.272   4.882   2.495 -1.0883  0.4322  0.0207
17788SOL     OW65341   8.176   9.198   5.963  0.6835  0.1068 -0.0909
17788SOL    HW165342   8.130   9.145   6.028  0.3438  0.0470 -0.3792
17788SOL    HW265343   8.199   9.278   6.010 -1.6952  1.1337 -0.5240
17789SOL     OW65344   3.832   8.809   8.712 -0.1569  0.0252  0.2235
17789SOL    HW165345   3.740   8.835   8.707 -0.5983 -0.7723  2.7446
17789SOL    HW265346   3.860   8.802   8.621 -2.5210  0.4735 -0.6093
17790SOL     OW65347   3.127   2.905   0.605  0.1500  0.4737  0.2962
17790SOL    HW165348   3.049   2.887   0.553  0.3862 -0.1361  0.1503
17790SOL    HW265349   3.110   2.866   0.690 -0.6482  2.3104  1.0436
17791SOL     OW65350   2.884   9.036   5.277 -0.1041 -0.6735 -0.2325
17791SOL    HW165351   2.899   9.042   5.372  2.9954  0.0304 -0.6610
17791SOL    HW265352   2.882   8.942   5.260 -0.5489 -0.8074  0.5082
17792SOL     OW65353   7.843   9.418   2.830  0.9065  0.1952 -0.0526
17792SOL    HW165354   7.839   9.440   2.737  0.8574 -0.8745 -0.3151
17792SOL    HW265355   7.893   9.337   2.834 -0.7296 -0.8321  0.6509
17793SOL     OW65356   9.928   5.331   2.918 -0.0985 -0.8720  0.0232
17793SOL    HW165357   9.847   5.279   2.915 -0.0497 -0.9507  0.0585
17793SOL    HW265358   9.906   5.412   2.872 -0.3765 -0.6380  0.5681
17794SOL     OW65359   2.447   9.081   1.883  0.3852  0.0165 -0.0812
17794SOL    HW165360   2.448   9.139   1.959 -1.8301  0.7634 -0.5527
17794SOL    HW265361   2.539   9.060   1.868  0.9417  0.3573  2.4005
17795SOL     OW65362   9.907   2.326   0.939  0.4424  0.1653  0.5151
17795SOL    HW165363   9.935   2.271   0.866  0.6654  2.3199 -1.1279
17795SOL    HW265364   9.824   2.289   0.967  0.2407 -0.5790 -0.9880
17796SOL     OW65365   8.890   3.845   5.455  0.4890  0.1590  0.7283
17796SOL    HW165366   8.983   3.835   5.477  0.5309 -0.5553  0.2609
17796SOL    HW265367   8.845   3.791   5.520  0.2488  1.8064  2.0197
17797SOL     OW65368   3.498   0.920   2.237  0.9143 -0.5361  0.6289
17797SOL    HW165369   3.511   0.989   2.172  1.0920 -0.6823  0.5089
17797SOL    HW265370   3.404   0.905   2.237  0.6047  1.0947  2.0876
17798SOL     OW65371   4.078   0.538   2.444  0.1126 -0.2747  0.2906
17798SOL    HW165372   3.990   0.502   2.441  0.2175 -0.4865 -1.8005
17798SOL    HW265373   4.069   0.627   2.411  0.4299  0.3905  1.8797
17799SOL     OW65374   9.516  10.274   3.194 -0.4316 -0.5339  0.3380
17799SOL    HW165375   9.552  10.256   3.281 -0.2580 -1.6032  0.0607
17799SOL    HW265376   9.494  10.188   3.159  1.0224 -0.2749 -1.3318
17800SOL     OW65377   2.160   8.286   9.273  0.4285 -0.1309 -0.1868
17800SOL    HW165378   2.116   8.309   9.354  1.9795 -1.0113  0.9614
17800SOL    HW265379   2.155   8.190   9.269  2.2183 -0.2801  0.0295
17801SOL     OW65380   7.601   8.562  10.003  0.3858  0.0027 -0.1112
17801SOL    HW165381   7.693   8.545  10.025  0.1300 -0.1028  0.8727
17801SOL    HW265382   7.592   8.657  10.011  0.1088 -0.1057  0.9976
17802SOL     OW65383   8.006   2.193   3.862  0.6831  0.2939 -0.7106
17802SOL    HW165384   8.032   2.127   3.927  1.6512  1.3356  0.0019
17802SOL    HW265385   7.981   2.269   3.914 -0.9447  0.3541 -1.5030
17803SOL     OW65386   8.391   7.481   1.213  0.4462 -0.2643  0.1288
17803SOL    HW165387   8.461   7.466   1.277  1.2306 -0.1061 -0.6725
17803SOL    HW265388   8.350   7.563   1.241  2.1456  0.9571 -0.7112
17804SOL     OW65389   7.119   8.591  10.143  0.1646 -0.3389 -0.0089
17804SOL    HW165390   7.200   8.548  10.118  1.0920  1.6769 -0.6907
17804SOL    HW265391   7.124   8.598  10.238  0.7380 -0.3320 -0.0372
17805SOL     OW65392   0.221   0.935   5.805  0.1676  0.5807 -0.2585
17805SOL    HW165393   0.300   0.914   5.755  1.2199 -0.0213  1.5377
17805SOL    HW265394   0.153   0.950   5.739  1.2890 -0.8617 -1.8164
17806SOL     OW65395   2.504   9.234   9.807  0.2806  0.2305  0.0544
17806SOL    HW165396   2.600   9.227   9.815  0.3667 -0.4684 -1.2018
17806SOL    HW265397   2.481   9.309   9.860  1.7491  1.4541 -0.9508
17807SOL     OW65398   2.244   5.784   3.072  0.1214  0.1385  0.5740
17807SOL    HW165399   2.292   5.816   3.149  0.2282  0.1352  0.5089
17807SOL    HW265400   2.274   5.839   3.000  0.2527 -0.0601  0.4749
17808SOL     OW65401   7.016   8.511   6.602 -0.6773  0.9127 -0.1592
17808SOL    HW165402   7.030   8.550   6.515  0.3302 -1.1255 -0.9678
17808SOL    HW265403   7.006   8.418   6.586 -1.5103  0.6021  1.8518
17809SOL     OW65404   2.735   8.938   5.568  0.4487  0.2397 -0.4267
17809SOL    HW165405   2.704   8.888   5.644 -0.7912  0.7576 -0.5785
17809SOL    HW265406   2.810   8.988   5.602  1.1401 -1.0004 -0.0524
17810SOL     OW65407   9.610   0.586   4.478 -0.1263  0.3392  0.4805
17810SOL    HW165408   9.595   0.502   4.434  1.8891  0.7265 -1.1379
17810SOL    HW265409   9.537   0.641   4.451  0.1118 -0.0028 -0.9619
17811SOL     OW65410   2.902   8.654   5.043 -0.1427 -0.4332  0.0981
17811SOL    HW165411   2.993   8.680   5.040 -0.8425  2.1504 -1.8732
17811SOL    HW265412   2.892   8.591   4.972 -0.1521  0.3734 -0.6325
17812SOL     OW65413   8.919   9.867   7.826  0.3129  0.1904 -0.0994
17812SOL    HW165414   8.991   9.930   7.830 -0.0972  0.6506  3.5523
17812SOL    HW265415   8.840   9.920   7.840 -0.7182 -0.4682 -2.7889
17813SOL     OW65416   7.732   7.930   1.876 -0.2482  0.6415  0.4009
17813SOL    HW165417   7.759   8.004   1.931  0.3606 -0.5057  1.7327
17813SOL    HW265418   7.655   7.894   1.920  0.2417 -0.2947  0.5192
17814SOL     OW65419   3.290   3.302   1.927 -0.7373 -0.1794  0.5998
17814SOL    HW165420   3.384   3.283   1.916 -0.8333 -0.5424  0.3872
17814SOL    HW265421   3.288   3.373   1.990 -0.2759  0.3436  0.0435
17815SOL     OW65422   4.166   8.793   4.320 -0.3289 -0.2915 -0.3913
17815SOL    HW165423   4.170   8.708   4.276 -0.6493 -0.2802 -0.4412
17815SOL    HW265424   4.211   8.853   4.260  0.3992 -0.5287 -0.1009
17816SOL     OW65425   0.594  10.266   5.713  0.6530  0.2363 -1.0850
17816SOL    HW165426   0.555  10.186   5.749  0.2376  0.5579 -0.8089
17816SOL    HW265427   0.686  10.263   5.741  0.0183  1.2163  1.3741
17817SOL     OW65428   2.641   2.778   8.152  0.2582  0.0069  0.2725
17817SOL    HW165429   2.695   2.748   8.079 -0.6825  0.4581 -0.6367
17817SOL    HW265430   2.701   2.827   8.208  1.1760 -1.0604  0.2523
17818SOL     OW65431   2.074   9.799   0.003  0.2317  0.8582  0.4413
17818SOL    HW165432   1.982   9.780   0.018  0.2709 -0.5173 -0.7860
17818SOL    HW265433   2.112   9.808   0.090 -0.2190 -3.1063  1.2464
17819SOL     OW65434   1.195   6.093   0.889  0.1003  0.5494  0.1007
17819SOL    HW165435   1.204   6.003   0.858  2.4114 -0.3264  2.8730
17819SOL    HW265436   1.275   6.137   0.858 -0.2223  1.2021  0.1716
17820SOL     OW65437   6.637   2.960   8.934 -0.8400 -0.0547  0.3427
17820SOL    HW165438   6.584   3.004   8.868  0.4657 -1.2813 -1.6343
17820SOL    HW265439   6.584   2.886   8.963 -0.1668 -1.5408 -1.9495
17821SOL     OW65440   6.360   0.975   1.718 -0.0710  0.4133  0.3466
17821SOL    HW165441   6.369   1.069   1.703  1.2992  0.3959  0.8706
17821SOL    HW265442   6.270   0.955   1.694 -0.3567  1.8432  0.1398
17822SOL     OW65443   2.510   1.338   1.625  0.3522  0.2726 -0.0169
17822SOL    HW165444   2.597   1.323   1.662  0.8160 -0.5296 -1.3421
17822SOL    HW265445   2.501   1.433   1.620  0.8120  0.3700  0.8850
17823SOL     OW65446   9.092   7.296   6.287  1.0178  0.4434 -0.2626
17823SOL    HW165447   9.045   7.221   6.250  0.4882  0.5119  0.2641
17823SOL    HW265448   9.184   7.269   6.286  0.8206 -0.2768  0.0563
17824SOL     OW65449   0.862   6.548   1.652 -0.3084 -0.0117  0.2193
17824SOL    HW165450   0.852   6.642   1.664 -0.0734 -0.0103  0.3973
17824SOL    HW265451   0.933   6.538   1.589  0.3755 -0.0937  0.9860
17825SOL     OW65452   8.666   8.645   6.251  0.6845  0.4884  0.3489
17825SOL    HW165453   8.680   8.689   6.335 -0.2007  0.4633  0.5156
17825SOL    HW265454   8.746   8.664   6.201  1.2752  0.3892  1.2346
17826SOL     OW65455   4.117   2.083   8.116  0.1124 -0.0587 -0.3811
17826SOL    HW165456   4.148   2.173   8.113  0.0203 -0.0388 -3.0782
17826SOL    HW265457   4.191   2.033   8.150  0.4109  0.9307  0.4631
17827SOL     OW65458   7.388   0.505   1.031  0.4575  0.0104  0.3438
17827SOL    HW165459   7.425   0.418   1.041  1.3438  0.1834 -1.0673
17827SOL    HW265460   7.379   0.538   1.120 -1.2513 -2.0310  0.9943
17828SOL     OW65461   2.652   9.550   9.754  0.5720  0.0944  0.0937
17828SOL    HW165462   2.728   9.505   9.715  0.6885  1.1540 -0.9651
17828SOL    HW265463   2.689   9.599   9.828  0.3806 -1.7985  1.5007
17829SOL     OW65464   5.530   4.398   3.909  0.2277 -0.1192  0.5791
17829SOL    HW165465   5.567   4.378   3.995  0.3650 -0.9660  0.3335
17829SOL    HW265466   5.575   4.478   3.882  2.1901 -1.3081  0.1350
17830SOL     OW65467   9.365   0.458   3.479  0.6486 -0.2126 -0.7142
17830SOL    HW165468   9.424   0.417   3.542  0.9608  0.4243 -0.5820
17830SOL    HW265469   9.418   0.468   3.400  0.2110 -1.1569 -1.1399
17831SOL     OW65470   7.675   8.612   3.634 -0.9423 -0.2728  0.2332
17831SOL    HW165471   7.703   8.580   3.720  0.2744  1.3122  0.4714
17831SOL    HW265472   7.623   8.690   3.652  1.0097  1.2896 -0.4562
17832SOL     OW65473   5.991   6.081   9.698 -0.3638  0.5141 -0.3416
17832SOL    HW165474   6.030   5.996   9.717  0.2010  0.7349 -0.4862
17832SOL    HW265475   6.065   6.139   9.682 -0.7102  1.2427  0.5743
17833SOL     OW65476   6.695   1.984   9.973 -0.1150 -0.0678 -0.6382
17833SOL    HW165477   6.694   2.073  10.007 -1.2913 -0.2773 -0.0614
17833SOL    HW265478   6.746   1.934  10.037 -1.9335 -0.3682  0.6613
17834SOL     OW65479   3.220  10.174   7.818 -0.4715 -0.1061 -0.4172
17834SOL    HW165480   3.234  10.131   7.902 -0.3833 -0.8221 -0.7912
17834SOL    HW265481   3.277  10.251   7.820 -0.1970 -0.3215  0.0290
17835SOL     OW65482   0.604   3.683   3.951 -0.0118  0.8182 -0.2559
17835SOL    HW165483   0.679   3.633   3.983  0.6588  1.8703 -0.1315
17835SOL    HW265484   0.598   3.759   4.010 -1.7728  0.2735  0.3257
17836SOL     OW65485   3.435   3.496   6.092  0.5971  0.2045 -0.2182
17836SOL    HW165486   3.421   3.590   6.091 -0.2245  0.0983 -0.1544
17836SOL    HW265487   3.452   3.472   6.001 -2.9113 -0.0540 -0.9415
17837SOL     OW65488   2.635   8.745   5.019 -0.2058  0.1194 -0.1808
17837SOL    HW165489   2.729   8.746   5.002 -0.6093  2.3035 -3.1048
17837SOL    HW265490   2.610   8.653   5.010  1.4107 -0.2874 -0.9448
17838SOL     OW65491   4.210   0.933   6.787 -0.4183 -0.0084  0.2314
17838SOL    HW165492   4.131   0.934   6.733 -0.9002  1.6609  0.8902
17838SOL    HW265493   4.262   1.007   6.756 -0.4345  0.6231  1.6217
17839SOL     OW65494   0.569   9.739   7.863 -1.0082  0.0331  0.0445
17839SOL    HW165495   0.544   9.647   7.859  0.8202 -0.4505 -0.9896
17839SOL    HW265496   0.585   9.756   7.956 -3.5104 -0.0334  0.5586
17840SOL     OW65497   6.779   2.821   3.395 -0.2287 -0.2124 -0.1177
17840SOL    HW165498   6.737   2.768   3.327 -2.1891 -0.0439  0.8854
17840SOL    HW265499   6.769   2.911   3.364 -1.2699 -0.1240  0.4379
17841SOL     OW65500   9.582   1.401   8.094 -0.0581  0.1844  0.1945
17841SOL    HW165501   9.667   1.430   8.127  0.7341 -1.0966 -0.6924
17841SOL    HW265502   9.529   1.390   8.174  0.1570  2.2398  0.6794
17842SOL     OW65503   8.591   9.214   1.283  0.1510  0.1313  0.2165
17842SOL    HW165504   8.591   9.242   1.375  1.6713 -0.9642  0.5804
17842SOL    HW265505   8.597   9.119   1.287  0.1124  0.0622 -1.0307
17843SOL     OW65506   1.828   2.052   5.742 -0.5305  0.4329 -0.5059
17843SOL    HW165507   1.819   2.130   5.797 -1.7455  1.0122 -1.4650
17843SOL    HW265508   1.900   2.073   5.683 -0.8337  0.8265 -0.7416
17844SOL     OW65509   3.260   2.779   1.094 -0.0339  0.2759 -0.1016
17844SOL    HW165510   3.353   2.757   1.089 -0.0098  0.4898 -0.6820
17844SOL    HW265511   3.221   2.708   1.145  0.3297 -0.1915 -0.4647
17845SOL     OW65512   1.258  10.341   0.226  0.2056  0.2922 -0.1026
17845SOL    HW165513   1.180  10.290   0.203  0.6696 -0.5654  0.1835
17845SOL    HW265514   1.329  10.277   0.228  0.9732  1.1036 -0.5897
17846SOL     OW65515   2.258   0.001   0.324  0.0316 -0.5013 -0.3824
17846SOL    HW165516   2.332   0.012   0.264  0.3949 -0.9114 -0.0293
17846SOL    HW265517   2.213   0.085   0.323  0.4585 -0.2698 -0.6716
17847SOL     OW65518   2.501   2.188   6.229 -0.3823  0.0059 -0.3739
17847SOL    HW165519   2.493   2.280   6.204  1.0871  0.2855  0.1013
17847SOL    HW265520   2.582   2.184   6.279 -0.7884 -1.4340  0.1982
17848SOL     OW65521   9.371   4.561   8.196  0.0755 -0.1888  0.0879
17848SOL    HW165522   9.284   4.533   8.166 -0.2168 -0.5098  1.2210
17848SOL    HW265523   9.407   4.484   8.241  1.3794 -0.4008 -1.2386
17849SOL     OW65524   5.043   7.542   4.202 -0.2640  0.2215 -0.3323
17849SOL    HW165525   5.050   7.510   4.292 -0.4541 -0.5798 -0.5936
17849SOL    HW265526   4.952   7.568   4.192 -0.7653 -1.6184 -0.8999
17850SOL     OW65527   0.870   1.427   8.983 -0.1761 -0.3483 -0.8332
17850SOL    HW165528   0.789   1.439   9.033 -0.2536 -1.0226 -0.7976
17850SOL    HW265529   0.894   1.336   8.997  0.0545 -0.4204 -1.6389
17851SOL     OW65530   3.679   4.293   9.184  0.4947 -0.6129  0.7397
17851SOL    HW165531   3.613   4.346   9.140 -1.4781 -2.6291  1.1128
17851SOL    HW265532   3.630   4.238   9.244  2.4440 -2.5987  0.6476
17852SOL     OW65533   2.076   6.672   7.702 -0.4750  0.0485  0.1531
17852SOL    HW165534   2.068   6.757   7.659  1.5137 -0.2126 -0.8338
17852SOL    HW265535   2.109   6.614   7.634  0.4758 -0.9421  1.4141
17853SOL     OW65536   9.311   1.616   9.098  0.7880 -0.0403 -0.0701
17853SOL    HW165537   9.272   1.615   9.010  0.1685 -1.8838  0.1816
17853SOL    HW265538   9.269   1.543   9.143 -1.2411  2.6028  2.8048
17854SOL     OW65539  10.388   0.481   3.691  0.0959  0.2952  0.7827
17854SOL    HW165540  10.359   0.428   3.616  2.7690  1.0179 -0.8987
17854SOL    HW265541  10.323   0.463   3.759 -1.4788 -1.7869 -1.0970
17855SOL     OW65542   0.932   9.367   1.031  0.4157  0.6298  0.2804
17855SOL    HW165543   0.969   9.306   0.968  1.2624  1.1733  0.2363
17855SOL    HW265544   0.862   9.318   1.074  0.2961  0.0274 -0.5816
17856SOL     OW65545   7.035   1.148   5.370 -0.3285 -0.3100  0.3805
17856SOL    HW165546   6.990   1.189   5.443  0.5870 -1.5061  1.6641
17856SOL    HW265547   7.103   1.211   5.345 -1.2650  0.5327 -0.1370
17857SOL     OW65548   5.374   9.723   5.543 -0.1471 -0.5738 -0.9339
17857SOL    HW165549   5.350   9.635   5.515  0.4172 -0.5680 -1.4641
17857SOL    HW265550   5.406   9.766   5.464 -0.6633  0.2007 -0.7372
17858SOL     OW65551   8.526   2.387   5.086 -0.4016  0.2427 -0.0220
17858SOL    HW165552   8.550   2.377   5.178  1.6659  4.2574  0.0573
17858SOL    HW265553   8.449   2.443   5.088  1.4450  2.9862 -0.6411
17859SOL     OW65554   3.139   2.837   2.091 -0.0988 -0.2064  0.2239
17859SOL    HW165555   3.184   2.775   2.034  1.7849  0.3890  0.9837
17859SOL    HW265556   3.164   2.810   2.180 -2.7545 -0.9614  0.8454
17860SOL     OW65557   5.227   7.501   1.376 -0.4781 -0.1116 -0.6998
17860SOL    HW165558   5.242   7.431   1.313  0.5490  0.1708 -0.7789
17860SOL    HW265559   5.273   7.473   1.455 -2.4278 -0.8581  0.2537
17861SOL     OW65560   3.741  10.111   9.826  0.0652 -0.3581 -0.1159
17861SOL    HW165561   3.724  10.123   9.919 -0.0174 -0.8724 -0.0588
17861SOL    HW265562   3.666  10.058   9.795  0.2114 -0.3886 -0.4226
17862SOL     OW65563   4.130   6.995   8.022  0.6328 -0.3022  0.9325
17862SOL    HW165564   4.157   6.957   7.939 -1.6294  1.0637 -0.5467
17862SOL    HW265565   4.191   7.067   8.038 -0.5024  1.2010 -1.0645
17863SOL     OW65566   1.204   1.226   3.726  0.7600 -0.1729  0.3226
17863SOL    HW165567   1.293   1.261   3.730  0.8195  0.1505 -2.1235
17863SOL    HW265568   1.164   1.252   3.810  2.6105  0.6526  0.9968
17864SOL     OW65569   1.980   8.499   6.588  0.4951 -0.1261  0.2134
17864SOL    HW165570   2.068   8.501   6.550  0.1219  0.0658 -0.6614
17864SOL    HW265571   1.944   8.415   6.560  0.5291 -0.3576  0.8679
17865SOL     OW65572   4.974   9.746   5.294 -0.8101  0.1119  0.0450
17865SOL    HW165573   5.001   9.667   5.246 -1.2871 -0.0958  0.1084
17865SOL    HW265574   4.906   9.715   5.354 -0.6483  0.4842  0.4233
17866SOL     OW65575   5.568   8.224   0.309 -0.4350 -0.3265  0.4554
17866SOL    HW165576   5.572   8.184   0.396 -2.5539  0.5309  1.0165
17866SOL    HW265577   5.572   8.318   0.326 -0.5434 -0.1564 -0.4178
17867SOL     OW65578   8.463   2.455   9.068 -0.1553 -0.3739  0.5075
17867SOL    HW165579   8.465   2.361   9.053  1.1851 -0.5482  1.5850
17867SOL    HW265580   8.514   2.468   9.148 -0.4384  1.2524  0.4636
17868SOL     OW65581   2.017   2.550   0.312 -0.0100  0.1891  0.7956
17868SOL    HW165582   1.962   2.540   0.234  2.8784  0.0595 -1.4203
17868SOL    HW265583   2.043   2.461   0.334  0.1425  0.3210  1.1521
17869SOL     OW65584   3.946   6.162   6.257 -0.1648 -0.3411  0.0744
17869SOL    HW165585   3.869   6.164   6.314 -0.1617 -0.3751  0.0800
17869SOL    HW265586   4.016   6.201   6.309 -0.7080  1.8703 -0.7395
17870SOL     OW65587   9.400   4.709   8.473 -0.5061  0.2193  0.0396
17870SOL    HW165588   9.312   4.733   8.501 -0.3024  2.9939 -1.3615
17870SOL    HW265589   9.389   4.678   8.383 -0.3273 -2.0039  0.7389
17871SOL     OW65590   9.446   4.559   5.645  0.0716 -0.2176 -0.4511
17871SOL    HW165591   9.421   4.647   5.670  2.5021  0.5717 -0.4763
17871SOL    HW265592   9.542   4.560   5.646  0.2159 -2.2512 -2.5673
17872SOL     OW65593   2.884   4.780   4.373  0.0254  0.9875 -0.0906
17872SOL    HW165594   2.801   4.763   4.418  0.1076  0.5843 -0.0899
17872SOL    HW265595   2.948   4.791   4.444 -0.1451  1.9532 -0.0718
17873SOL     OW65596   7.097   8.943   6.799 -0.3047  0.7024  0.2456
17873SOL    HW165597   7.049   8.948   6.881  2.5241  0.3947  2.0699
17873SOL    HW265598   7.115   9.034   6.775  0.9206  0.7850  1.3582
17874SOL     OW65599   0.731   0.734   6.843 -0.3322 -0.3804 -0.1072
17874SOL    HW165600   0.817   0.699   6.867 -0.1962  0.2036  0.2650
17874SOL    HW265601   0.685   0.658   6.806  0.0053 -0.9293  0.5598
17875SOL     OW65602   9.732   8.235   9.749 -0.4656 -0.5561  0.2423
17875SOL    HW165603   9.661   8.273   9.697  1.0619 -0.1677 -1.6658
17875SOL    HW265604   9.768   8.165   9.695  0.9133 -0.4277  0.9309
17876SOL     OW65605   0.675  10.153   2.134  0.5383  0.4415 -0.0591
17876SOL    HW165606   0.695  10.189   2.220 -0.0429  1.7531 -0.4614
17876SOL    HW265607   0.749  10.179   2.079  0.8712 -0.3295 -0.0043
17877SOL     OW65608   1.897   9.174   3.247  0.1920  0.5300 -0.0153
17877SOL    HW165609   1.861   9.102   3.298 -1.1704  1.3074  0.1905
17877SOL    HW265610   1.846   9.173   3.166  0.2022  1.2101 -0.0354
17878SOL     OW65611   1.390   4.829   1.528 -0.0527  0.2631  0.2415
17878SOL    HW165612   1.434   4.810   1.445 -2.9547 -1.0695 -1.0975
17878SOL    HW265613   1.361   4.920   1.519  2.3023  1.2164  1.2024
17879SOL     OW65614   3.427   6.376   4.928 -0.2774  0.1622  0.5855
17879SOL    HW165615   3.486   6.311   4.890 -2.0868 -0.9208 -0.5049
17879SOL    HW265616   3.466   6.397   5.012  0.4039 -2.3642  0.9888
17880SOL     OW65617   1.424   6.865   3.318 -0.1717 -0.5072  0.1956
17880SOL    HW165618   1.364   6.809   3.367 -0.7985 -0.0348 -0.0216
17880SOL    HW265619   1.509   6.850   3.359 -0.6522 -0.2117  1.3601
17881SOL     OW65620   6.765   6.058   4.603  0.2885 -0.5395  0.2206
17881SOL    HW165621   6.818   6.010   4.668 -0.6884 -1.7852  0.1489
17881SOL    HW265622   6.827   6.084   4.536  1.0438 -0.7226  0.8314
17882SOL     OW65623   9.438   9.507   0.390  0.4088  0.1423  0.2709
17882SOL    HW165624   9.432   9.453   0.311 -2.0906  0.3460  0.2351
17882SOL    HW265625   9.511   9.470   0.439  0.8235 -1.1941 -1.2638
17883SOL     OW65626   5.106   3.030   2.462  0.2410  0.1100  0.0627
17883SOL    HW165627   5.108   3.016   2.367  1.1724 -0.4215  0.1461
17883SOL    HW265628   5.023   2.992   2.490 -0.3061  0.7817 -0.6060
17884SOL     OW65629   0.826   8.499   9.930  0.1092  0.2118 -0.7992
17884SOL    HW165630   0.883   8.422   9.937 -1.1991 -0.7000  0.3597
17884SOL    HW265631   0.746   8.465   9.888 -0.4964  0.9212 -0.2311
17885SOL     OW65632   4.548   4.275   9.115  0.8686  0.2308  0.2584
17885SOL    HW165633   4.585   4.187   9.125  1.8241  0.3698 -1.6853
17885SOL    HW265634   4.459   4.259   9.083  0.4036 -0.0371  1.6317
17886SOL     OW65635   8.753   4.393   6.298 -0.2914 -0.2199  0.5589
17886SOL    HW165636   8.787   4.305   6.310 -1.5786 -0.7288  0.6327
17886SOL    HW265637   8.675   4.382   6.245 -0.6191  0.8479  0.7877
17887SOL     OW65638   1.698   5.631   4.758 -0.3971  0.1822 -0.0130
17887SOL    HW165639   1.661   5.600   4.841 -1.0865 -0.4563 -0.5428
17887SOL    HW265640   1.623   5.639   4.700  0.1158  0.3411 -0.6649
17888SOL     OW65641   2.446   1.584   1.601  0.3125  0.0985 -0.2301
17888SOL    HW165642   2.389   1.554   1.530  0.2150  0.5451 -0.3433
17888SOL    HW265643   2.392   1.577   1.679  0.4715 -0.5450 -0.1733
17889SOL     OW65644   5.609   0.161   7.123 -0.0948 -0.6730  0.1342
17889SOL    HW165645   5.672   0.134   7.190 -0.8260 -0.0449  1.0834
17889SOL    HW265646   5.629   0.104   7.048  2.4492  0.3430 -0.0546
17890SOL     OW65647   4.361   0.886   2.721  0.0412 -0.1971  0.1568
17890SOL    HW165648   4.373   0.979   2.743  2.2634 -0.8994  2.3599
17890SOL    HW265649   4.448   0.857   2.694 -1.1087 -1.1870 -2.8695
17891SOL     OW65650   2.734   7.988   1.295 -0.2846 -0.2051  0.5989
17891SOL    HW165651   2.816   8.030   1.270 -1.1337  0.5448 -1.0447
17891SOL    HW265652   2.710   7.934   1.220 -2.1397  0.9164  0.3001
17892SOL     OW65653   3.298   2.785   1.477  0.5570 -0.0975 -0.4497
17892SOL    HW165654   3.337   2.702   1.506 -0.1630 -1.0735 -2.1504
17892SOL    HW265655   3.370   2.832   1.434  1.2731  0.7518  1.5200
17893SOL     OW65656   8.997   9.357   1.913 -0.2954  0.9107 -0.0718
17893SOL    HW165657   9.071   9.318   1.958 -1.9144 -0.1523  1.8435
17893SOL    HW265658   8.987   9.305   1.833 -1.7121 -2.0708  1.8694
17894SOL     OW65659   7.777   7.689   8.050 -0.6672 -0.0546  0.3561
17894SOL    HW165660   7.728   7.608   8.036  2.3211 -2.1497  0.9939
17894SOL    HW265661   7.785   7.728   7.963 -2.3299 -0.2929  0.0643
17895SOL     OW65662   0.154   5.225  10.222  0.2602  0.1442  0.3371
17895SOL    HW165663   0.186   5.283  10.153 -0.1347 -2.1261 -1.9143
17895SOL    HW265664   0.059   5.235  10.218  0.2951  1.5848  2.1039
17896SOL     OW65665   1.963   7.721   6.565 -0.4877  0.5750 -0.2403
17896SOL    HW165666   1.961   7.638   6.613  0.6051  1.5161  1.5149
17896SOL    HW265667   1.871   7.737   6.541 -1.0698  0.0349  1.5104
17897SOL     OW65668   0.784   5.684   3.058 -0.5167  0.2032  0.2905
17897SOL    HW165669   0.693   5.660   3.044 -0.8181  1.1795  0.5197
17897SOL    HW265670   0.794   5.689   3.153 -0.7019  1.7914  0.2490
17898SOL     OW65671   6.066   2.420   0.662 -0.0624  0.0543  0.2995
17898SOL    HW165672   6.042   2.402   0.752  2.7967  0.2131  1.2112
17898SOL    HW265673   6.052   2.337   0.616  0.5710 -0.7035  1.4244
17899SOL     OW65674   2.533   7.643   4.436  0.0305 -0.3242 -0.3152
17899SOL    HW165675   2.623   7.612   4.441  0.0556 -0.0320  2.0866
17899SOL    HW265676   2.538   7.737   4.451 -0.7818 -0.5672  1.8143
17900SOL     OW65677   0.284   0.743   2.589 -0.3393 -0.2346 -0.4598
17900SOL    HW165678   0.297   0.694   2.670 -1.3371  0.7642  0.3499
17900SOL    HW265679   0.371   0.777   2.567 -0.1318 -0.1686  0.4329
17901SOL     OW65680   9.464   2.493  10.279  0.4243 -0.4406 -0.4379
17901SOL    HW165681   9.444   2.571  10.226 -0.5603  1.0937  1.9856
17901SOL    HW265682   9.529   2.445  10.228  2.7928  3.1159 -1.1165
17902SOL     OW65683   1.531   5.250   8.138  0.0937  0.0354 -0.1406
17902SOL    HW165684   1.473   5.287   8.205 -1.4211  1.0703 -1.8935
17902SOL    HW265685   1.482   5.176   8.102  0.1941  0.4144 -1.0960
17903SOL     OW65686   0.302   1.287   7.103 -0.3199 -0.0696  0.3415
17903SOL    HW165687   0.329   1.376   7.128  0.2607  0.0778 -0.7858
17903SOL    HW265688   0.384   1.241   7.086 -0.6759 -0.1525 -1.3118
17904SOL     OW65689   7.855   5.403   7.216  0.4840  0.1853  0.0274
17904SOL    HW165690   7.823   5.343   7.284  1.1852 -0.4562 -0.2065
17904SOL    HW265691   7.854   5.351   7.136 -1.1531  1.1799 -0.6584
17905SOL     OW65692  10.341   1.949   5.541  0.1185 -0.6386  0.3941
17905SOL    HW165693  10.366   1.988   5.457 -0.7454 -1.9529 -0.5262
17905SOL    HW265694  10.405   1.879   5.555  1.5266  0.8819  1.9208
17906SOL     OW65695   3.417   9.416   7.317 -0.3859 -0.5813 -0.6942
17906SOL    HW165696   3.404   9.491   7.258  0.6661  1.0167  0.9727
17906SOL    HW265697   3.497   9.374   7.285  0.1166  0.2074 -0.5181
17907SOL     OW65698   3.138   2.367   8.881 -0.2313  0.4078  0.1981
17907SOL    HW165699   3.139   2.442   8.821 -1.9721  1.7171  1.7157
17907SOL    HW265700   3.191   2.300   8.836 -1.5942  1.2243 -2.8856
17908SOL     OW65701   8.901   6.709   0.376 -0.1559 -0.3456  0.2717
17908SOL    HW165702   8.840   6.783   0.383 -1.3416 -1.3557  0.9434
17908SOL    HW265703   8.959   6.733   0.303 -1.2443  0.7261 -0.2792
17909SOL     OW65704   0.044   4.806   8.878 -0.0198  1.0624  0.5775
17909SOL    HW165705   0.124   4.787   8.828  0.2621 -0.0690  1.4237
17909SOL    HW265706  -0.013   4.731   8.862 -1.2375  2.1769 -0.5791
17910SOL     OW65707   2.690   6.486   6.745 -0.2288 -0.3102 -0.8123
17910SOL    HW165708   2.772   6.440   6.761  0.6456  1.6722  0.9651
17910SOL    HW265709   2.634   6.421   6.703  1.1503 -2.7472  0.8387
17911SOL     OW65710   3.960   8.494   2.948  0.0736 -0.1630 -0.2675
17911SOL    HW165711   3.924   8.562   3.005  0.2915 -0.8303  0.6901
17911SOL    HW265712   4.002   8.542   2.876 -1.0893  0.6627 -0.4194
17912SOL     OW65713   1.895   7.607   7.163 -0.7979 -0.2161  0.3166
17912SOL    HW165714   1.911   7.656   7.243 -2.5575 -0.4101  0.8426
17912SOL    HW265715   1.882   7.517   7.193 -0.4567 -0.4757 -0.3080
17913SOL     OW65716   4.979   1.813   9.233  0.4216  0.8108  0.1607
17913SOL    HW165717   5.036   1.793   9.307  0.7434  0.3101 -0.2158
17913SOL    HW265718   4.894   1.834   9.272  0.6416  0.7288  0.6778
17914SOL     OW65719   8.073   4.073   9.797 -1.1534  0.0224  0.1385
17914SOL    HW165720   8.109   4.124   9.724 -0.8202 -0.1041  0.2129
17914SOL    HW265721   8.056   4.138   9.866 -0.7277  0.0303  0.2339
17915SOL     OW65722   9.371   7.671   0.479 -0.4328  0.5781  0.5186
17915SOL    HW165723   9.309   7.722   0.426  2.1686  0.7332 -2.6596
17915SOL    HW265724   9.429   7.737   0.517  0.9851  0.2395 -0.9737
17916SOL     OW65725   4.850   4.280   2.600 -0.2504 -0.2703  0.4378
17916SOL    HW165726   4.853   4.351   2.536 -0.7737  0.4698  1.2054
17916SOL    HW265727   4.760   4.279   2.631 -0.0355 -0.6875  1.0792
17917SOL     OW65728   4.763   5.077   3.988 -0.5357  1.0457 -0.2962
17917SOL    HW165729   4.832   5.124   4.035 -0.0157  3.6597 -3.3029
17917SOL    HW265730   4.810   5.020   3.927 -1.1413 -0.1447  0.3230
17918SOL     OW65731   7.595   8.545   2.825  0.3252 -0.6260  0.5420
17918SOL    HW165732   7.506   8.551   2.859 -0.1758 -0.5791 -0.7181
17918SOL    HW265733   7.605   8.623   2.770  1.6242  0.0881  1.7163
17919SOL     OW65734   1.167   1.360   4.531  0.2300 -0.1265  0.6303
17919SOL    HW165735   1.132   1.272   4.548  0.6091 -0.2663  0.6975
17919SOL    HW265736   1.089   1.415   4.521 -0.1245  0.2281  4.0113
17920SOL     OW65737   6.740   7.623   9.367 -0.3896  0.3457 -0.0365
17920SOL    HW165738   6.702   7.548   9.412 -0.0707  0.0298 -0.2904
17920SOL    HW265739   6.790   7.585   9.295 -0.3077  0.8073 -0.2244
17921SOL     OW65740   5.820   9.438   5.526 -0.5252  0.1578  0.0199
17921SOL    HW165741   5.816   9.533   5.531 -0.8901  0.1934 -0.8028
17921SOL    HW265742   5.738   9.412   5.483 -0.7963 -0.5840  0.9575
17922SOL     OW65743   7.127   9.207   5.236 -0.0647  0.6844 -0.8450
17922SOL    HW165744   7.101   9.117   5.217 -2.6219  1.4141 -1.0959
17922SOL    HW265745   7.156   9.242   5.151 -1.2731  0.7683 -1.2322
17923SOL     OW65746   8.745   2.221   4.492 -0.6963 -0.0603 -0.1929
17923SOL    HW165747   8.772   2.262   4.575 -1.8331 -0.3129  0.3234
17923SOL    HW265748   8.827   2.194   4.451 -0.1729 -3.1755  2.5159
17924SOL     OW65749   9.623   5.011   3.087  0.3743 -0.3075 -0.4799
17924SOL    HW165750   9.574   4.937   3.050  1.3970 -2.3882  1.9728
17924SOL    HW265751   9.591   5.018   3.177 -0.3655  2.9795 -0.8820
17925SOL     OW65752   9.162   0.286   6.120  0.8914  0.7035 -0.2648
17925SOL    HW165753   9.079   0.334   6.130  0.3371 -0.4263  0.8603
17925SOL    HW265754   9.144   0.220   6.053  0.1541 -0.9238  1.4311
17926SOL     OW65755   0.258   8.126   3.195  0.0999  0.2173  0.9066
17926SOL    HW165756   0.240   8.129   3.289 -0.7736  1.1036  0.7222
17926SOL    HW265757   0.284   8.215   3.173 -0.1687  0.1316  0.2238
17927SOL     OW65758   6.076   9.167   8.920 -0.5938 -0.4368 -0.1901
17927SOL    HW165759   6.051   9.231   8.854 -0.9372  0.4134  0.7476
17927SOL    HW265760   6.019   9.092   8.904  0.7834 -1.1545 -2.2204
17928SOL     OW65761   0.316   4.198   7.249 -0.2368 -0.1625 -0.2638
17928SOL    HW165762   0.255   4.165   7.182 -2.3536 -1.0670  1.9699
17928SOL    HW265763   0.259   4.242   7.313  1.8187  1.6217  0.4491
17929SOL     OW65764   7.496   7.270   1.619  0.1789 -0.3939  0.2395
17929SOL    HW165765   7.436   7.219   1.565  0.7106 -1.4546  0.6156
17929SOL    HW265766   7.488   7.360   1.587 -1.3534 -0.5706  0.0744
17930SOL     OW65767   3.161   2.451   8.552 -0.0583  0.0019  0.3015
17930SOL    HW165768   3.132   2.499   8.475 -0.9245  2.7810  2.2051
17930SOL    HW265769   3.241   2.495   8.580  0.7374 -1.5295  0.5266
17931SOL     OW65770   6.775   7.397   0.482  0.1114  0.6042  0.2258
17931SOL    HW165771   6.684   7.401   0.453  0.2106  1.6193  0.0120
17931SOL    HW265772   6.824   7.436   0.410  0.5599  1.4341  0.9702
17932SOL     OW65773   2.086   0.990   6.703  0.4423  0.2625  0.5835
17932SOL    HW165774   2.079   0.908   6.752 -1.2421  0.9943  1.6320
17932SOL    HW265775   2.176   1.020   6.720  1.3528 -1.6953 -0.4326
17933SOL     OW65776   4.753   7.945   8.484  0.1142 -0.4360  0.3977
17933SOL    HW165777   4.774   7.981   8.398  2.4100 -0.1771  0.9787
17933SOL    HW265778   4.719   7.857   8.466  1.6367 -0.8373 -0.7766
17934SOL     OW65779   1.872   0.626   8.103 -0.3977  0.4136  0.1039
17934SOL    HW165780   1.812   0.698   8.083  0.9568  2.2979  2.3237
17934SOL    HW265781   1.815   0.549   8.113 -2.1277  1.5855 -0.3386
17935SOL     OW65782   4.624  10.278   5.837  0.1997  0.1053  0.5031
17935SOL    HW165783   4.627  10.208   5.772  0.8475 -1.3119  2.0057
17935SOL    HW265784   4.534  10.309   5.834  0.2489  0.1986 -1.1569
17936SOL     OW65785   5.442   2.623   4.833 -0.1050  0.4654 -0.3310
17936SOL    HW165786   5.379   2.662   4.893 -1.1625  2.4521 -2.5291
17936SOL    HW265787   5.523   2.672   4.848 -0.5199  1.3410 -0.8274
17937SOL     OW65788   9.224   2.958   9.961  0.3701  0.2184  0.3258
17937SOL    HW165789   9.129   2.968   9.970  0.1933 -1.2569  0.3444
17937SOL    HW265790   9.236   2.919   9.875  0.9585  0.2597  0.3878
17938SOL     OW65791   0.800   9.796   0.717 -0.2104  0.4871  0.1291
17938SOL    HW165792   0.807   9.724   0.779 -4.0181  0.4579  0.7800
17938SOL    HW265793   0.774   9.754   0.635  0.2706  0.9010 -0.2412
17939SOL     OW65794   9.300   0.975   8.058 -0.4229  0.0480 -0.0833
17939SOL    HW165795   9.375   0.915   8.049 -0.8954 -0.4808 -0.5466
17939SOL    HW265796   9.300   1.026   7.977 -0.7823 -0.2021 -0.2402
17940SOL     OW65797   1.848   9.569   4.086  0.8875  0.3184  0.5592
17940SOL    HW165798   1.814   9.659   4.086 -1.7436 -0.5917 -0.7986
17940SOL    HW265799   1.898   9.564   4.168 -1.5576  2.1022  2.3313
17941SOL     OW65800   6.766   2.573   8.815 -0.3899  0.5426  0.5889
17941SOL    HW165801   6.832   2.631   8.776  0.4156  0.0985  1.2386
17941SOL    HW265802   6.765   2.597   8.907 -1.5263  0.8896  0.4934
17942SOL     OW65803   3.356   2.795   3.146 -0.4372  0.0609  0.5993
17942SOL    HW165804   3.313   2.868   3.192 -0.4310  1.3839 -1.3894
17942SOL    HW265805   3.294   2.770   3.078  0.3444 -0.5780  0.1075
17943SOL     OW65806   7.704   1.297   3.129  0.4677  0.4922  0.0112
17943SOL    HW165807   7.618   1.276   3.166  0.1138  2.4738  0.4115
17943SOL    HW265808   7.685   1.362   3.062  1.4958 -0.4412 -1.2270
17944SOL     OW65809   0.500   2.468   3.770  0.2624 -0.0048  0.2276
17944SOL    HW165810   0.578   2.495   3.819  2.3813 -1.9093 -1.8177
17944SOL    HW265811   0.474   2.385   3.811 -0.1772  0.1888  0.3487
17945SOL     OW65812   4.399   3.880   6.857  0.4031 -0.0339 -0.2782
17945SOL    HW165813   4.413   3.800   6.908  1.3088  1.0235  1.2164
17945SOL    HW265814   4.318   3.864   6.809  0.6343 -1.8966 -0.1184
17946SOL     OW65815   0.956   7.673   0.622  0.1363 -0.9863  0.0797
17946SOL    HW165816   1.038   7.720   0.640  0.1770 -1.0280  0.0029
17946SOL    HW265817   0.910   7.729   0.559 -0.6281 -0.1429  1.3273
17947SOL     OW65818   0.536   2.977   1.778  0.8336  0.0001  0.2362
17947SOL    HW165819   0.560   2.982   1.871  0.6263  2.6032  0.2428
17947SOL    HW265820   0.595   2.912   1.741  1.4528 -0.5337  2.0426
17948SOL     OW65821   1.558   3.010   4.672  0.1029 -0.4444 -0.2276
17948SOL    HW165822   1.564   3.014   4.768 -0.4978 -0.1354 -0.1970
17948SOL    HW265823   1.642   3.044   4.641  0.7633 -1.6240  0.1902
17949SOL     OW65824   1.100   4.963   6.153 -0.3083 -0.1123  0.1595
17949SOL    HW165825   1.136   4.944   6.066  0.6656  0.4960  0.4118
17949SOL    HW265826   1.137   5.048   6.176 -0.3573 -0.3717  1.2679
17950SOL     OW65827   2.694   5.677   7.471 -0.0054  0.4837 -0.2543
17950SOL    HW165828   2.683   5.754   7.415  0.4377  0.3233 -0.5657
17950SOL    HW265829   2.732   5.712   7.552 -1.9456  0.9250  0.5252
17951SOL     OW65830   6.975   7.774   6.130  0.3389 -0.0476  0.6563
17951SOL    HW165831   6.958   7.682   6.108  0.5355 -0.2520  1.3492
17951SOL    HW265832   6.892   7.805   6.167 -0.0795  0.3725 -0.5627
17952SOL     OW65833   1.876   9.925   9.091  0.1093 -0.5162 -0.1054
17952SOL    HW165834   1.836  10.009   9.068  0.7081 -0.4953 -1.1156
17952SOL    HW265835   1.844   9.864   9.025  1.4794 -0.5611 -0.7589
17953SOL     OW65836   8.045   5.702   6.495 -0.2132 -0.4818  0.9259
17953SOL    HW165837   7.979   5.666   6.554 -1.3426  0.8120  0.4981
17953SOL    HW265838   8.081   5.777   6.542  0.9564 -1.1484  1.1361
17954SOL     OW65839   5.507   4.199   8.624  0.9506 -0.2432  0.7256
17954SOL    HW165840   5.544   4.273   8.673 -1.8497  1.0755  1.1062
17954SOL    HW265841   5.436   4.167   8.680 -0.5111 -0.5376 -1.1818
17955SOL     OW65842   3.255   0.877   9.681 -0.0359 -0.1313 -0.1104
17955SOL    HW165843   3.311   0.939   9.729 -0.0662  0.1786 -0.4715
17955SOL    HW265844   3.316   0.816   9.640  0.0466  0.2111 -0.5102
17956SOL     OW65845   1.268   1.494   2.470  0.1762  0.4971  0.1223
17956SOL    HW165846   1.310   1.476   2.554 -0.3739 -2.2710 -0.0950
17956SOL    HW265847   1.183   1.449   2.476 -0.6680  1.8122 -1.2641
17957SOL     OW65848   4.159   2.930   4.889  0.4100 -0.0116  0.9521
17957SOL    HW165849   4.064   2.928   4.882  0.4897  0.3128 -0.6506
17957SOL    HW265850   4.180   2.867   4.958 -0.8419 -2.0481 -0.4115
17958SOL     OW65851   9.394   4.936   0.658  0.3401  0.3182 -0.4250
17958SOL    HW165852   9.426   4.922   0.569  0.0837 -0.0605 -0.4588
17958SOL    HW265853   9.472   4.933   0.712  0.3775 -0.5378 -0.5146
17959SOL     OW65854   3.132   2.459   5.015 -0.2005 -0.2228  0.0804
17959SOL    HW165855   3.127   2.376   4.969  2.0874 -0.9146  0.9833
17959SOL    HW265856   3.117   2.437   5.107 -0.1325  0.4474  0.2607
17960SOL     OW65857   2.935   3.490   4.620  0.5582 -0.3390  0.0684
17960SOL    HW165858   2.969   3.453   4.538  0.5556  1.8190 -0.9705
17960SOL    HW265859   2.840   3.483   4.612  0.5448  0.1857 -0.2916
17961SOL     OW65860   5.229   2.534   2.731 -0.1122 -0.1185  0.1146
17961SOL    HW165861   5.259   2.495   2.813 -2.5987 -1.1597  0.6275
17961SOL    HW265862   5.186   2.615   2.757 -2.0676 -1.0767  0.1108
17962SOL     OW65863   9.318   4.471   2.950 -0.3459 -0.1368  0.5255
17962SOL    HW165864   9.391   4.525   2.921 -1.6525  1.8984  0.8245
17962SOL    HW265865   9.317   4.397   2.890  0.2608  1.2433 -1.2673
17963SOL     OW65866   0.306   9.619   4.643 -0.0144  0.4263  0.0261
17963SOL    HW165867   0.267   9.637   4.557  1.0760 -1.0711 -0.8211
17963SOL    HW265868   0.238   9.573   4.691 -0.2731  0.3303 -0.4254
17964SOL     OW65869   2.552   0.516   3.987 -0.1337 -0.7464 -0.1278
17964SOL    HW165870   2.622   0.475   4.036  1.0593 -0.3373 -1.4180
17964SOL    HW265871   2.538   0.459   3.912  0.1376  0.1144 -0.8610
17965SOL     OW65872   7.371   3.387   1.038  0.1376  0.0347 -0.4830
17965SOL    HW165873   7.429   3.436   1.096  0.6336 -0.4583 -0.5558
17965SOL    HW265874   7.429   3.328   0.990 -0.4751 -0.8247 -0.1990
17966SOL     OW65875   9.650   9.299   1.012  0.0689 -0.1079 -0.1301
17966SOL    HW165876   9.682   9.388   1.029 -0.0401  0.7248 -3.5274
17966SOL    HW265877   9.726   9.253   0.976 -0.7217 -0.1818 -1.8362
17967SOL     OW65878   6.939   0.673   0.133  0.5725  0.1408 -0.2741
17967SOL    HW165879   6.907   0.738   0.070  0.0770  0.4219  0.2665
17967SOL    HW265880   6.973   0.724   0.206  0.5825 -0.1956 -0.0391
17968SOL     OW65881   1.961   0.202   5.264  0.0476  0.5198  0.7684
17968SOL    HW165882   1.979   0.168   5.352 -1.4061 -1.4600  0.3627
17968SOL    HW265883   1.916   0.285   5.279 -0.0956  0.2589  1.8947
17969SOL     OW65884   8.319   9.460   9.189  0.1361 -0.2775  0.1483
17969SOL    HW165885   8.238   9.455   9.239 -0.9941  0.1598 -1.5431
17969SOL    HW265886   8.382   9.501   9.248 -1.1732  0.3453  1.1579
17970SOL     OW65887   6.848   9.706   5.433 -0.0463  0.1562 -0.7196
17970SOL    HW165888   6.846   9.611   5.436  0.3415  0.1510 -0.6512
17970SOL    HW265889   6.901   9.732   5.508 -1.9968  0.5047  0.6155
17971SOL     OW65890   1.268   4.926   8.341  0.2267  0.4225 -0.3317
17971SOL    HW165891   1.355   4.908   8.305  0.4805  1.7696 -0.4462
17971SOL    HW265892   1.209   4.869   8.291  0.8669  0.5292 -1.2392
17972SOL     OW65893   7.419   9.781   4.945  0.5467 -0.3420  0.0467
17972SOL    HW165894   7.472   9.858   4.964 -0.5676  0.7252 -1.0167
17972SOL    HW265895   7.454   9.713   5.003  2.6311  0.4825 -0.1669
17973SOL     OW65896   3.843   1.367   7.615 -0.2329  0.0575 -0.2213
17973SOL    HW165897   3.757   1.409   7.608  0.5486  2.0352  0.9968
17973SOL    HW265898   3.903   1.430   7.575  0.8519 -0.5137  0.4821
17974SOL     OW65899   6.430   8.619   8.755  0.4973  0.3111 -0.0725
17974SOL    HW165900   6.462   8.685   8.693 -1.8196  0.2813 -1.3685
17974SOL    HW265901   6.365   8.569   8.707 -1.6693  0.4935  2.4167
17975SOL     OW65902  10.197  10.013   1.282 -0.1946 -0.4374  0.0892
17975SOL    HW165903  10.254   9.979   1.213  1.3047  1.0421  0.5109
17975SOL    HW265904  10.162  10.095   1.246  0.8179  0.4923  1.1036
17976SOL     OW65905   9.555   5.859   9.887 -0.1603 -0.0390  0.6215
17976SOL    HW165906   9.585   5.847   9.797 -1.7169 -0.4945  0.1333
17976SOL    HW265907   9.478   5.914   9.880 -1.1203 -1.2183  1.5280
17977SOL     OW65908   9.937   6.765   1.648  0.2072 -0.2021  0.3588
17977SOL    HW165909   9.892   6.681   1.660 -1.6146  0.4517 -1.3422
17977SOL    HW265910   9.937   6.805   1.735 -0.0156 -1.4036  0.9338
17978SOL     OW65911   7.568   1.080   0.420  0.3481  0.1679  0.4174
17978SOL    HW165912   7.651   1.053   0.459 -0.4102 -1.2296  1.1098
17978SOL    HW265913   7.576   1.175   0.412  2.6380 -0.0797 -1.0270
17979SOL     OW65914   7.431   7.461   4.500 -0.5810  0.3924  0.3373
17979SOL    HW165915   7.383   7.420   4.572  0.0198  0.4118  0.7600
17979SOL    HW265916   7.411   7.555   4.509  0.0422  0.4776  0.9097
17980SOL     OW65917   3.651   5.648   9.675 -0.2614  0.5647  0.2863
17980SOL    HW165918   3.667   5.654   9.581  0.1580 -0.7242  0.2530
17980SOL    HW265919   3.618   5.734   9.700  0.0740  1.0634 -0.9519
17981SOL     OW65920   6.598   6.637   1.041  1.4162 -0.4441  0.4634
17981SOL    HW165921   6.591   6.544   1.020  1.0386 -0.2066 -0.5056
17981SOL    HW265922   6.600   6.639   1.137  3.2034 -1.5607  0.4955
17982SOL     OW65923   1.890   8.697   8.241 -0.4762  0.3839 -0.5661
17982SOL    HW165924   1.881   8.782   8.284  1.2577  0.0795  0.5227
17982SOL    HW265925   1.909   8.718   8.150  1.2380  1.2593 -0.0491
17983SOL     OW65926   9.141   4.893   8.307 -0.1691 -0.1053  0.2593
17983SOL    HW165927   9.216   4.858   8.258  0.7208 -1.1376  2.2569
17983SOL    HW265928   9.148   4.988   8.295 -0.3248 -0.3243 -2.0196
17984SOL     OW65929   9.540   4.386   1.293 -0.2136 -0.3721  0.2692
17984SOL    HW165930   9.547   4.481   1.292 -1.3327 -0.2495  1.5139
17984SOL    HW265931   9.447   4.368   1.306 -0.3265 -1.6883 -1.9285
17985SOL     OW65932   7.710   7.565   2.086 -0.3569  0.2320  0.4221
17985SOL    HW165933   7.635   7.525   2.041 -0.0054  0.3900 -0.3173
17985SOL    HW265934   7.711   7.655   2.054  0.3888  0.1215  0.1189
17986SOL     OW65935   0.274   0.963   4.090 -0.3842 -0.5552 -0.1507
17986SOL    HW165936   0.224   0.923   4.019 -1.4202  0.3230  0.0591
17986SOL    HW265937   0.334   1.024   4.046 -1.1044  0.0726 -0.2861
17987SOL     OW65938   9.199   2.235   1.590  0.5611  0.3729 -0.6629
17987SOL    HW165939   9.166   2.314   1.546 -1.2048  0.1184  0.1133
17987SOL    HW265940   9.249   2.268   1.665  1.3144  0.7651 -1.3286
17988SOL     OW65941   9.378   2.667   1.302  0.0757 -0.6509 -0.3258
17988SOL    HW165942   9.304   2.642   1.247  0.6158 -1.0819 -0.8625
17988SOL    HW265943   9.352   2.752   1.339 -0.6520 -0.7621 -0.5627
17989SOL     OW65944   5.089   2.840   6.444  0.3072 -0.5511  0.2499
17989SOL    HW165945   5.052   2.812   6.360  0.5924  1.0588 -0.4637
17989SOL    HW265946   5.183   2.837   6.431  0.3506  1.1775 -0.0510
17990SOL     OW65947   3.832   5.505   7.002 -0.5918  0.2413  0.7174
17990SOL    HW165948   3.911   5.540   6.961 -0.6413  0.6624  0.9735
17990SOL    HW265949   3.811   5.427   6.951  1.7292 -1.7120  2.4860
17991SOL     OW65950   3.741   9.485   6.343 -0.1452  0.5719  0.6492
17991SOL    HW165951   3.818   9.522   6.384 -0.2261  1.4556  0.0103
17991SOL    HW265952   3.686   9.560   6.321 -0.8697  0.0029  0.4630
17992SOL     OW65953   3.346   9.647   1.039  1.0516 -0.2607  0.1936
17992SOL    HW165954   3.393   9.646   1.122 -0.8605  0.6512  1.3757
17992SOL    HW265955   3.261   9.608   1.060 -0.0776  1.4672 -0.9012
17993SOL     OW65956   8.909  10.367   3.199  0.8290  0.0540  0.1012
17993SOL    HW165957   8.833  10.310   3.210  0.4684  0.0016 -2.1708
17993SOL    HW265958   8.965  10.348   3.275 -0.5798 -1.2069  0.8774
17994SOL     OW65959   5.899   3.203   1.782 -0.5253 -0.6918 -0.5665
17994SOL    HW165960   5.989   3.236   1.776  0.1185 -2.3734 -0.6496
17994SOL    HW265961   5.890   3.175   1.873 -1.0694 -0.2788 -0.4894
17995SOL     OW65962   5.782   6.771   5.391 -0.0408  0.2152  0.0776
17995SOL    HW165963   5.790   6.802   5.481  0.2634  2.1496 -0.5630
17995SOL    HW265964   5.705   6.818   5.357 -0.1756 -0.5205 -0.6734
17996SOL     OW65965   7.548   0.054   0.261 -0.9176  0.1611  0.1238
17996SOL    HW165966   7.538  -0.036   0.231  1.9595  0.2198 -1.4158
17996SOL    HW265967   7.589   0.046   0.347 -1.2000  0.0066  0.2454
17997SOL     OW65968   9.797   0.251  10.355 -0.2938 -0.0596 -0.2817
17997SOL    HW165969   9.853   0.219  10.425 -1.5473  2.4680  2.0912
17997SOL    HW265970   9.790   0.178  10.293  1.0756 -2.3441  2.0814
17998SOL     OW65971   0.228   9.235   1.550  0.2830 -0.3563  0.4969
17998SOL    HW165972   0.154   9.260   1.495 -1.1949 -0.0920  2.4689
17998SOL    HW265973   0.252   9.147   1.521 -0.1112 -0.0262 -0.8679
17999SOL     OW65974   4.765   7.871   8.177 -0.2213  0.0474 -0.0739
17999SOL    HW165975   4.781   7.785   8.215 -1.0287  0.3234  0.9377
17999SOL    HW265976   4.671   7.887   8.191 -0.7287 -0.1149 -2.8040
18000SOL     OW65977   3.128   0.820   4.708  0.1124 -0.0871 -0.2690
18000SOL    HW165978   3.126   0.879   4.784  0.8690  1.5935 -1.4739
18000SOL    HW265979   3.195   0.859   4.650 -0.6683 -1.1195 -1.9341
18001SOL     OW65980   2.523   7.732   9.036  0.1640  0.6692 -0.1690
18001SOL    HW165981   2.581   7.734   9.112  0.4943 -0.7079 -0.3590
18001SOL    HW265982   2.449   7.677   9.063 -0.0654  0.7644 -0.5956
18002SOL     OW65983   0.644   9.009   1.403 -0.0234  0.1409 -0.2640
18002SOL    HW165984   0.644   8.914   1.402 -0.3509  0.0430  2.4078
18002SOL    HW265985   0.731   9.033   1.436  1.2896  0.9983 -3.7803
18003SOL     OW65986   8.642   3.163   9.596 -0.3518 -0.6948  0.0425
18003SOL    HW165987   8.665   3.255   9.586  1.0332 -0.9385  0.7078
18003SOL    HW265988   8.633   3.130   9.507  2.7151 -0.7313 -0.3498
18004SOL     OW65989   8.421   3.172   6.926  0.0976  0.3450 -0.3403
18004SOL    HW165990   8.374   3.191   7.007  2.0321  0.2765  0.8613
18004SOL    HW265991   8.355   3.179   6.857 -2.2345 -2.1505  1.4507
18005SOL     OW65992   7.746   2.597   5.847  0.0608  0.3439  0.3036
18005SOL    HW165993   7.781   2.686   5.840  0.3054  0.2741  0.6255
18005SOL    HW265994   7.823   2.540   5.843 -0.1952  0.0573 -1.4241
18006SOL     OW65995   4.634   3.765   2.690  0.3214 -0.4586  0.4482
18006SOL    HW165996   4.668   3.708   2.758  0.9043 -0.9497 -0.2322
18006SOL    HW265997   4.710   3.814   2.659 -0.0466  0.1884  0.5567
18007SOL     OW65998   9.926   1.829   1.159  0.1091 -0.1092  0.3588
18007SOL    HW165999  10.020   1.823   1.139 -0.3998 -0.6494 -2.2825
18007SOL    HW266000   9.907   1.749   1.208  0.7986 -0.6794 -0.2790
18008SOL     OW66001   1.838   9.363   5.509 -0.2559  0.7101 -0.3137
18008SOL    HW166002   1.921   9.393   5.471  0.6187  1.5973  2.0761
18008SOL    HW266003   1.793   9.444   5.535 -1.1057  0.1819 -0.1001
18009SOL     OW66004   9.740   2.139   7.051  0.2089 -0.0703 -0.2190
18009SOL    HW166005   9.682   2.070   7.082  0.5815 -0.2376  0.1223
18009SOL    HW266006   9.709   2.219   7.095  0.3976 -0.2070  0.1681
18010SOL     OW66007   5.592   3.549   8.809 -0.5174  0.4116 -0.2333
18010SOL    HW166008   5.589   3.644   8.802  0.9584  0.3871 -1.7422
18010SOL    HW266009   5.580   3.517   8.720  0.7664 -0.7306 -0.0305
18011SOL     OW66010   7.739   4.243   7.295 -0.3864 -0.1742  0.8602
18011SOL    HW166011   7.805   4.299   7.254 -0.5295  0.9162  2.0623
18011SOL    HW266012   7.788   4.169   7.329 -0.0593 -0.3063  0.1296
18012SOL     OW66013   5.114   3.871   7.473 -0.0166  0.0938  0.1838
18012SOL    HW166014   5.049   3.879   7.404 -1.3288 -2.7147  0.9667
18012SOL    HW266015   5.198   3.872   7.427 -0.8318 -1.1538 -1.4045
18013SOL     OW66016   6.403   1.877   8.536 -0.8235 -0.2023  0.7676
18013SOL    HW166017   6.333   1.929   8.574 -0.6941 -0.1875  0.9900
18013SOL    HW266018   6.390   1.789   8.571  0.4224  0.2226  2.4046
18014SOL     OW66019   1.568   8.466   3.895 -0.6292 -0.1354 -0.1631
18014SOL    HW166020   1.592   8.377   3.918  1.4277  0.5605  0.6305
18014SOL    HW266021   1.578   8.470   3.800 -0.3912 -0.6643 -0.1624
18015SOL     OW66022   9.267   6.296   4.736  0.0055  0.1543 -0.1560
18015SOL    HW166023   9.186   6.305   4.787 -0.0619  1.0652 -0.4145
18015SOL    HW266024   9.334   6.280   4.802 -0.3488 -0.4042  0.0790
18016SOL     OW66025   2.751   0.969   5.328 -0.0540 -0.5159  0.2913
18016SOL    HW166026   2.737   0.974   5.422 -1.4027  4.5875  0.1129
18016SOL    HW266027   2.666   0.945   5.292 -0.3071  0.3152  0.3165
18017SOL     OW66028   5.381   9.688   2.489  0.3124  0.5327  0.7128
18017SOL    HW166029   5.290   9.692   2.519  0.2709  0.5836  0.5837
18017SOL    HW266030   5.374   9.669   2.395  0.4625 -1.2878  1.0368
18018SOL     OW66031   6.135   5.330   6.417  0.6632  0.3032  0.1009
18018SOL    HW166032   6.193   5.357   6.489  1.7594 -0.3481 -0.5215
18018SOL    HW266033   6.188   5.342   6.338 -0.0324 -0.3530 -0.4737
18019SOL     OW66034   2.043   3.414   1.494 -0.4012 -0.6987  0.0396
18019SOL    HW166035   2.002   3.494   1.527  0.6530 -0.2552  0.2928
18019SOL    HW266036   2.124   3.443   1.454  0.7770 -1.7919  1.5051
18020SOL     OW66037   3.422   6.943   6.177  0.7787 -0.2720  0.0820
18020SOL    HW166038   3.479   6.866   6.187  1.3532  0.0096 -0.9235
18020SOL    HW266039   3.336   6.912   6.205  0.7441 -1.6520 -1.4181
18021SOL     OW66040   9.210   6.641   7.071  0.0048  0.1550  0.3044
18021SOL    HW166041   9.159   6.562   7.054 -2.5873  1.1359  2.7404
18021SOL    HW266042   9.162   6.711   7.026  1.4150  0.6060 -0.5635
18022SOL     OW66043   2.151   7.542  10.198 -0.1526 -0.1638 -0.1638
18022SOL    HW166044   2.217   7.573  10.135 -0.5345 -1.5919 -1.3040
18022SOL    HW266045   2.200   7.485  10.258 -0.0050  0.3004  0.1650
18023SOL     OW66046   0.133   8.503   6.480  0.4563  0.6728  0.1787
18023SOL    HW166047   0.194   8.535   6.546 -0.3993  2.2836  0.2538
18023SOL    HW266048   0.115   8.413   6.504  1.4609  0.7147  1.1457
18024SOL     OW66049   9.431   9.460   1.297 -0.7168 -0.0104 -0.2362
18024SOL    HW166050   9.356   9.494   1.347 -0.7091  0.6828 -0.6822
18024SOL    HW266051   9.406   9.370   1.276 -1.3868  0.1809 -0.2973
18025SOL     OW66052   1.007   1.529   3.324 -0.0278  0.5550  0.3853
18025SOL    HW166053   0.967   1.601   3.372  1.6703  0.4611  2.0465
18025SOL    HW266054   0.934   1.489   3.277 -1.7396  0.9221  2.5476
18026SOL     OW66055   3.406   8.153   4.574  0.2106 -0.2782 -0.0276
18026SOL    HW166056   3.493   8.191   4.574 -0.7653  2.1760 -0.7376
18026SOL    HW266057   3.418   8.064   4.607  2.8818  0.1288  0.2947
18027SOL     OW66058   2.408   0.674   2.507  0.2897 -0.3659 -0.2274
18027SOL    HW166059   2.353   0.668   2.586  0.6698 -0.0632  0.0676
18027SOL    HW266060   2.369   0.612   2.446  1.1498 -2.1133  0.9119
18028SOL     OW66061   5.503   4.286   7.698 -0.2119 -0.5305  0.1440
18028SOL    HW166062   5.457   4.208   7.666 -1.1751  0.3485 -0.6872
18028SOL    HW266063   5.462   4.359   7.651  2.1297  0.3025 -0.7379
18029SOL     OW66064   9.689   5.895   3.478 -0.8889 -0.3342 -0.1698
18029SOL    HW166065   9.701   5.856   3.564 -1.3983 -0.0259  0.0406
18029SOL    HW266066   9.596   5.917   3.473 -0.6154  0.9075 -0.2562
18030SOL     OW66067   4.096   2.841   8.377 -0.6117  0.3450 -0.0171
18030SOL    HW166068   4.096   2.787   8.299 -0.7376  0.7496 -0.3000
18030SOL    HW266069   4.117   2.929   8.346 -1.2245  0.6201  0.3194
18031SOL     OW66070   3.050   6.783   7.628 -0.0880 -0.1757 -0.5188
18031SOL    HW166071   3.112   6.752   7.694 -0.8016 -0.1625  0.1718
18031SOL    HW266072   3.078   6.740   7.547  0.3423 -0.7885 -0.0528
18032SOL     OW66073  10.073   9.939   8.020 -0.1641 -0.2754  0.2964
18032SOL    HW166074  10.050   9.981   8.103  2.2123  1.1433  0.3537
18032SOL    HW266075  10.014   9.978   7.956 -0.9807 -0.2191  1.0698
18033SOL     OW66076   8.556   4.396   4.716 -0.0349 -0.3900 -0.4324
18033SOL    HW166077   8.570   4.482   4.756  0.2182 -0.1769 -0.9610
18033SOL    HW266078   8.631   4.344   4.743 -0.3523 -0.5523  0.1562
18034SOL     OW66079   3.821   3.134   2.058 -0.2876 -0.5402  0.0890
18034SOL    HW166080   3.744   3.167   2.013  0.1201  0.2147 -0.0680
18034SOL    HW266081   3.822   3.040   2.039  0.3391 -0.1310 -2.1855
18035SOL     OW66082   0.593   3.446   7.535 -0.2266  0.7759 -0.1562
18035SOL    HW166083   0.516   3.432   7.481 -1.4359  1.3645  1.3502
18035SOL    HW266084   0.598   3.367   7.590  0.0845  0.8572 -0.0668
18036SOL     OW66085   8.458   0.046   7.291 -0.3810  0.0864 -0.2355
18036SOL    HW166086   8.444   0.063   7.198 -0.5407 -1.8959 -0.6210
18036SOL    HW266087   8.553   0.053   7.302 -0.1312 -1.6345 -1.0210
18037SOL     OW66088   8.880  10.156   9.018 -0.3437  0.5334 -0.2639
18037SOL    HW166089   8.811  10.149   8.953  0.7854 -0.9067 -1.3705
18037SOL    HW266090   8.851  10.099   9.090 -0.8802  0.9386 -0.1487
18038SOL     OW66091   8.461   2.095  10.244  0.3063  0.0599  0.0687
18038SOL    HW166092   8.416   2.146  10.176  1.3500 -1.8846 -2.2430
18038SOL    HW266093   8.461   2.152  10.321 -1.7705  2.0291 -1.2636
18039SOL     OW66094   1.154   0.187   6.857  0.0558  0.1886 -0.2136
18039SOL    HW166095   1.107   0.241   6.793 -1.7936  0.7183  1.4745
18039SOL    HW266096   1.186   0.250   6.921  1.3767 -0.3874 -0.2882
18040SOL     OW66097   9.762   7.470  10.227  0.3445 -0.1397  0.0878
18040SOL    HW166098   9.696   7.432  10.284 -0.5885  0.8390 -0.2916
18040SOL    HW266099   9.840   7.477  10.281  0.0566 -1.0389  0.6409
18041SOL     OW66100   0.599   5.606   0.306 -0.2392  0.1763  0.1667
18041SOL    HW166101   0.596   5.519   0.267  1.8958  0.4965 -0.8858
18041SOL    HW266102   0.511   5.641   0.293 -0.7230 -1.2629 -0.7463
18042SOL     OW66103   0.324   5.650   3.508 -0.3056  0.3234 -0.1643
18042SOL    HW166104   0.410   5.682   3.481 -1.1044  1.6029 -1.2918
18042SOL    HW266105   0.318   5.673   3.601 -0.3842  2.4492 -0.6603
18043SOL     OW66106   8.750   0.451   9.830 -0.0679 -0.4688  0.0744
18043SOL    HW166107   8.808   0.381   9.862 -0.1387 -0.0611  1.1366
18043SOL    HW266108   8.667   0.406   9.813 -1.0998 -0.2527  3.6577
18044SOL     OW66109   1.391   8.148   8.429  0.0415  0.4841 -0.0695
18044SOL    HW166110   1.344   8.071   8.461  0.6617  0.1032 -0.0580
18044SOL    HW266111   1.378   8.146   8.334  1.4817 -0.6365 -0.2871
18045SOL     OW66112   1.579   5.917   7.305  0.2104  0.0184  0.2475
18045SOL    HW166113   1.545   5.939   7.218 -0.8176  2.3451  1.1492
18045SOL    HW266114   1.674   5.918   7.294  0.1004 -0.5317 -1.0013
18046SOL     OW66115   6.167   0.227   9.236  0.2520 -0.0677 -0.5421
18046SOL    HW166116   6.193   0.147   9.282 -0.3279  0.2121  0.3000
18046SOL    HW266117   6.191   0.297   9.297 -1.2159  0.2741 -0.3393
18047SOL     OW66118   9.684   7.243   9.895  0.1553  0.6539 -0.1593
18047SOL    HW166119   9.763   7.238   9.948  0.4831 -0.6637 -0.7427
18047SOL    HW266120   9.654   7.334   9.905 -0.0168  0.3840  2.5561
18048SOL     OW66121   5.278   2.023   7.835 -0.3504 -1.0436  0.6298
18048SOL    HW166122   5.353   2.036   7.778 -1.5461 -1.1430 -1.0606
18048SOL    HW266123   5.309   1.964   7.904  1.5203  0.1844  0.9061
18049SOL     OW66124   1.124   7.673   4.000 -0.0676  1.3099 -0.5112
18049SOL    HW166125   1.212   7.710   4.002 -0.3432  1.9705 -0.3959
18049SOL    HW266126   1.115   7.638   3.911  0.0401  1.9266 -0.7720
18050SOL     OW66127  10.327   5.976   3.795  0.2720 -0.3567 -0.1552
18050SOL    HW166128  10.366   5.918   3.729 -1.6187 -0.3232 -1.3585
18050SOL    HW266129  10.255   6.019   3.749 -0.8704 -0.0550  1.8456
18051SOL     OW66130   3.626   6.747   2.999 -0.3100 -0.5505  0.0344
18051SOL    HW166131   3.626   6.841   2.979  1.3054 -0.3109  0.9807
18051SOL    HW266132   3.707   6.715   2.960 -0.7450 -1.5169 -0.0841
18052SOL     OW66133   2.830   3.858   0.249  0.3825 -0.4703 -0.1817
18052SOL    HW166134   2.790   3.886   0.332  2.6382 -1.5861  1.4007
18052SOL    HW266135   2.765   3.800   0.210 -1.1564  0.8747  0.2625
18053SOL     OW66136   7.651   8.529   8.785  0.1683 -0.2130 -0.4572
18053SOL    HW166137   7.608   8.447   8.808 -1.7073  0.6500 -0.7585
18053SOL    HW266138   7.637   8.586   8.860  1.9294 -0.2803 -0.0208
18054SOL     OW66139   9.238   4.316   9.661 -0.1389 -0.5982 -0.4009
18054SOL    HW166140   9.283   4.398   9.682  1.5451 -0.8099 -2.7642
18054SOL    HW266141   9.303   4.265   9.612 -1.5230 -2.8792  0.0046
18055SOL     OW66142   6.603   6.519   6.065 -0.3189  0.0641 -0.0153
18055SOL    HW166143   6.670   6.451   6.070 -0.2498  0.2063  1.6268
18055SOL    HW266144   6.636   6.580   5.998 -0.0131 -1.0953 -0.9552
18056SOL     OW66145   8.245   7.272   6.377  0.1228 -0.8009 -0.2090
18056SOL    HW166146   8.248   7.314   6.463  0.8541 -3.0793  0.9582
18056SOL    HW266147   8.230   7.344   6.316 -0.4833  0.8855  1.8091
18057SOL     OW66148   7.174   7.269   3.409  0.2478  0.2993  0.0136
18057SOL    HW166149   7.256   7.317   3.400  0.3208 -0.0026 -0.9591
18057SOL    HW266150   7.108   7.337   3.425  0.2367  0.8224 -2.0297
18058SOL     OW66151   1.566   0.167   0.579  0.3586 -0.2763  0.2589
18058SOL    HW166152   1.643   0.122   0.613  0.2944 -1.2315 -0.7649
18058SOL    HW266153   1.499   0.099   0.574 -0.0326  0.1426 -0.4391
18059SOL     OW66154   8.652   2.139   6.784 -0.3260  0.5038 -0.5340
18059SOL    HW166155   8.717   2.147   6.714 -0.4961  2.3944 -0.5213
18059SOL    HW266156   8.591   2.073   6.753  0.8623 -0.3633 -1.1240
18060SOL     OW66157   4.360   7.869   2.053 -0.5947  0.7635  0.3279
18060SOL    HW166158   4.419   7.916   1.994 -0.2404 -1.0744 -0.8814
18060SOL    HW266159   4.408   7.863   2.135  1.2494 -1.1502 -0.7766
18061SOL     OW66160   2.761   7.129   1.506  0.1300 -0.1475 -0.7816
18061SOL    HW166161   2.720   7.096   1.426 -0.0393 -0.5566 -0.5288
18061SOL    HW266162   2.741   7.222   1.506  1.8091  0.2712 -2.2253
18062SOL     OW66163   8.369   8.062  10.161  0.1464 -0.3599  0.5850
18062SOL    HW166164   8.424   8.062  10.239  0.5117 -1.8973  0.3547
18062SOL    HW266165   8.405   8.130  10.105 -0.7533  1.4932  2.1547
18063SOL     OW66166   9.340   6.239   6.919  0.5822 -0.4033 -0.2672
18063SOL    HW166167   9.318   6.261   7.010  1.3162  3.5038 -0.8660
18063SOL    HW266168   9.433   6.215   6.922  0.9007  0.8269 -0.1180
18064SOL     OW66169   7.281   3.213   3.107 -0.2127 -0.0786  0.2497
18064SOL    HW166170   7.191   3.244   3.098  0.5850  1.9297 -1.6030
18064SOL    HW266171   7.299   3.166   3.025 -0.7376 -4.1012  2.1688
18065SOL     OW66172   9.436   7.809   6.163 -0.1858 -0.3725  0.2206
18065SOL    HW166173   9.342   7.798   6.174 -0.3087 -1.6284 -1.6312
18065SOL    HW266174   9.474   7.735   6.211 -0.1641 -0.1287  0.5809
18066SOL     OW66175   8.534   7.197   6.782 -0.1907 -0.2176  0.3951
18066SOL    HW166176   8.462   7.153   6.827 -2.6628  2.3032 -0.7221
18066SOL    HW266177   8.580   7.245   6.851 -1.4870  0.4753  0.8139
18067SOL     OW66178   4.145   6.234   7.626 -0.5247 -0.0565 -0.0289
18067SOL    HW166179   4.205   6.257   7.555 -2.2424 -0.1610 -1.5895
18067SOL    HW266180   4.195   6.251   7.706  1.6085 -0.2656 -1.2356
18068SOL     OW66181   6.020   3.834   7.504  0.1031  0.6651 -0.1485
18068SOL    HW166182   6.031   3.822   7.599  1.7514  0.2491 -0.3543
18068SOL    HW266183   5.989   3.924   7.494 -1.7800  0.1870  0.8546
18069SOL     OW66184   4.389   8.595   9.693  0.0109 -0.1803 -0.2711
18069SOL    HW166185   4.318   8.650   9.660 -2.2900 -2.8551 -0.1468
18069SOL    HW266186   4.401   8.622   9.784 -0.7811  0.3695 -0.3264
18070SOL     OW66187   9.881   0.173   7.533 -0.1741  0.4651 -0.4946
18070SOL    HW166188   9.881   0.268   7.524 -0.7253  0.3441 -1.9701
18070SOL    HW266189   9.803   0.154   7.586  0.3338  0.8643  0.4184
18071SOL     OW66190   0.752   6.086   5.141 -0.2986 -0.0513 -0.0662
18071SOL    HW166191   0.697   6.148   5.189 -0.5853  0.1800 -0.6848
18071SOL    HW266192   0.762   6.125   5.054  0.4124 -0.3476 -0.1207
18072SOL     OW66193   1.915   5.449   8.449 -0.1710 -0.3785  1.1111
18072SOL    HW166194   1.906   5.388   8.523 -0.9987 -0.3856  1.0145
18072SOL    HW266195   1.838   5.432   8.395  0.8328 -0.9559 -0.2037
18073SOL     OW66196   7.082   1.544   5.134  0.5397 -0.0164  0.1277
18073SOL    HW166197   7.079   1.627   5.182 -1.2539 -0.7430  1.3946
18073SOL    HW266198   7.029   1.559   5.056  0.8341  0.2422 -0.0233
18074SOL     OW66199   2.192   9.850   1.359  0.5570 -0.3137 -0.0627
18074SOL    HW166200   2.245   9.797   1.299  0.3909 -1.6515  0.9200
18074SOL    HW266201   2.213   9.815   1.446 -0.3722  0.5365  0.5206
18075SOL     OW66202   1.405   3.268   9.661 -0.3036  0.4882 -0.2757
18075SOL    HW166203   1.475   3.214   9.698 -0.9591  1.0055  1.8414
18075SOL    HW266204   1.324   3.226   9.691 -0.8376  1.7809  0.1419
18076SOL     OW66205   4.875   1.465   9.485 -0.1658  0.3289  0.0649
18076SOL    HW166206   4.888   1.498   9.396 -0.6633 -1.4185 -0.7013
18076SOL    HW266207   4.781   1.475   9.501 -0.3970 -0.9562 -0.3272
18077SOL     OW66208   5.414   0.935   5.566 -0.7416  0.1422 -0.0647
18077SOL    HW166209   5.368   0.869   5.515  2.8464 -1.7572 -1.2232
18077SOL    HW266210   5.438   0.890   5.647  0.3428  0.5229 -0.1623
18078SOL     OW66211   1.543   5.055   4.353  0.0669 -0.0385 -0.2200
18078SOL    HW166212   1.635   5.048   4.325  0.9574  0.6980  2.2587
18078SOL    HW266213   1.545   5.031   4.445 -2.3095 -0.2134 -0.1740
18079SOL     OW66214   3.302   6.224   3.250 -0.0589 -0.1320 -0.5511
18079SOL    HW166215   3.248   6.244   3.173  0.6983  0.4969 -0.9410
18079SOL    HW266216   3.249   6.252   3.324 -1.2539 -1.7334 -0.7413
18080SOL     OW66217   7.229  10.199   4.394  0.1972  0.6760  0.1574
18080SOL    HW166218   7.305  10.219   4.341  0.2875 -1.5307 -0.6232
18080SOL    HW266219   7.155  10.233   4.344  0.5564  2.0500  0.5114
18081SOL     OW66220   2.290   5.868   1.077  0.4335 -0.6080 -0.1203
18081SOL    HW166221   2.258   5.835   0.994 -0.3534  1.2988 -0.6172
18081SOL    HW266222   2.231   5.831   1.143 -2.8530  2.5794 -0.9766
18082SOL     OW66223   6.140   6.924   7.309  0.2201 -0.4623 -0.3687
18082SOL    HW166224   6.082   6.993   7.278 -1.6587 -1.4518  0.7649
18082SOL    HW266225   6.114   6.846   7.260 -0.3892 -1.2317  1.1099
18083SOL     OW66226   1.391   4.942   3.820 -0.3021  0.3817 -0.5269
18083SOL    HW166227   1.297   4.926   3.825  0.0457 -1.9753 -0.3449
18083SOL    HW266228   1.418   4.958   3.911 -0.3656 -0.0712 -0.4264
18084SOL     OW66229   0.469   1.468   7.244 -0.1440 -0.1263 -0.0481
18084SOL    HW166230   0.539   1.426   7.294 -0.9995 -0.7792  0.6341
18084SOL    HW266231   0.508   1.548   7.211  0.6206  0.0479  1.2032
18085SOL     OW66232   4.945   1.551   6.470  0.2327  0.2042  0.3080
18085SOL    HW166233   4.933   1.506   6.386  0.7069 -0.5474  0.6310
18085SOL    HW266234   5.007   1.621   6.451  1.2066 -0.6456  0.2455
18086SOL     OW66235   3.164   4.825   2.648 -0.3953  0.4256  0.2823
18086SOL    HW166236   3.249   4.818   2.692 -0.8088  3.0758  1.6628
18086SOL    HW266237   3.127   4.737   2.655  1.6539 -0.4736  0.7969
18087SOL     OW66238   3.162   3.723   6.813 -0.2936  0.0938 -0.2598
18087SOL    HW166239   3.157   3.639   6.767 -0.4941  0.9988 -2.0096
18087SOL    HW266240   3.224   3.774   6.761 -1.7756  1.7423 -0.4913
18088SOL     OW66241   6.644   5.656   5.021  0.2555  0.1997  0.5134
18088SOL    HW166242   6.735   5.672   5.047 -0.1152 -0.4728  2.3350
18088SOL    HW266243   6.604   5.743   5.023  0.7841  0.4702 -0.0839
18089SOL     OW66244   9.619   5.589   6.789 -0.9380 -0.1774  0.0514
18089SOL    HW166245   9.698   5.547   6.755  0.1158  2.1941 -0.6727
18089SOL    HW266246   9.551   5.523   6.781 -0.0990 -0.8193 -3.8463
18090SOL     OW66247   8.406   8.395   6.383  0.1350 -0.2995 -0.6630
18090SOL    HW166248   8.480   8.338   6.406  0.0053 -0.5146 -0.7797
18090SOL    HW266249   8.328   8.343   6.405 -0.0005  0.5548  1.0940
18091SOL     OW66250   7.378   0.139   1.092 -0.1429 -0.4582 -0.0915
18091SOL    HW166251   7.369   0.045   1.077  0.5707 -0.2554 -2.1138
18091SOL    HW266252   7.462   0.162   1.051 -0.6095  1.1588 -0.2265
18092SOL     OW66253   5.126   0.890   6.610 -0.3081 -0.1851  0.2178
18092SOL    HW166254   5.098   0.981   6.603 -0.2734 -0.0057  1.9885
18092SOL    HW266255   5.220   0.895   6.628 -0.1374 -0.6179 -0.4859
18093SOL     OW66256   7.908   0.613   3.418  0.3157 -0.0490  0.8687
18093SOL    HW166257   7.901   0.517   3.419  1.8122 -0.2547 -1.2584
18093SOL    HW266258   7.985   0.631   3.473 -0.0914 -0.0240  1.4427
18094SOL     OW66259   9.467   0.013   5.540 -0.3733  0.2866  0.2626
18094SOL    HW166260   9.491  -0.009   5.630  0.2403 -0.5204 -0.0864
18094SOL    HW266261   9.510   0.097   5.524 -0.7802  0.6063  0.8409
18095SOL     OW66262   3.075   6.938   6.680 -0.2664  0.4223 -0.1048
18095SOL    HW166263   3.021   7.011   6.648  0.8231  0.1353 -2.8783
18095SOL    HW266264   3.162   6.956   6.646  0.5118 -1.1465  0.9491
18096SOL     OW66265   7.031   0.574   5.719  0.1008  0.3532  0.3211
18096SOL    HW166266   7.030   0.504   5.654 -1.7361  0.6023  0.0215
18096SOL    HW266267   7.098   0.635   5.688 -0.6517  0.4108 -1.3086
18097SOL     OW66268   1.768   9.346   4.809 -0.3664  0.3997  0.2138
18097SOL    HW166269   1.719   9.283   4.860  2.3486 -0.3398  2.1493
18097SOL    HW266270   1.743   9.431   4.846  0.0712  0.0033  1.5020
18098SOL     OW66271  10.169  10.348  10.267 -0.1086 -0.2462 -0.5368
18098SOL    HW166272  10.143  10.273  10.321  0.1558  0.1288  0.1231
18098SOL    HW266273  10.255  10.372  10.300 -1.2048  1.9052  0.9728
18099SOL     OW66274   9.207   8.613   8.586 -0.1407  0.2544 -0.4081
18099SOL    HW166275   9.153   8.549   8.539  0.5864  0.2837 -1.3090
18099SOL    HW266276   9.145   8.681   8.612 -0.6420  0.0033 -0.9100
18100SOL     OW66277   9.991   8.402   3.334 -0.0749  0.4574 -0.5962
18100SOL    HW166278   9.945   8.375   3.413 -1.7068  0.9321 -1.3411
18100SOL    HW266279  10.015   8.320   3.291  1.9003  0.1605  0.9145
18101SOL     OW66280   4.795   1.940   5.720  0.1036 -0.4372  0.2908
18101SOL    HW166281   4.816   1.847   5.725 -0.0938 -0.4150  2.1893
18101SOL    HW266282   4.705   1.944   5.689 -0.1230 -0.9179  0.8799
18102SOL     OW66283   2.277   9.054   0.384 -0.1036 -0.1677  0.2859
18102SOL    HW166284   2.315   9.097   0.460 -1.8239  2.7791 -0.3606
18102SOL    HW266285   2.336   9.075   0.312 -0.4977  0.4394  0.1295
18103SOL     OW66286   9.303   6.625   0.923 -0.2186  0.0790  0.0243
18103SOL    HW166287   9.286   6.663   1.009  1.4389 -1.6627  1.2065
18103SOL    HW266288   9.378   6.675   0.889  0.6317 -0.7255  0.6661
18104SOL     OW66289   8.479   5.925   7.024 -0.1184  0.2127 -0.0173
18104SOL    HW166290   8.467   5.902   7.116 -0.7824 -0.1934 -0.1920
18104SOL    HW266291   8.522   5.849   6.986 -0.3160  0.1655 -0.1473
18105SOL     OW66292  10.219   2.364  10.303  0.1323 -0.4861 -0.1563
18105SOL    HW166293  10.154   2.384  10.371  0.8015 -0.8878  0.6292
18105SOL    HW266294  10.169   2.358  10.222 -0.7668 -0.4948  0.3855
18106SOL     OW66295   7.124   9.359   7.946  0.0219  0.3500  0.0604
18106SOL    HW166296   7.065   9.301   7.994  0.2466  0.8660  0.9852
18106SOL    HW266297   7.122   9.441   7.995  1.2092  0.4960 -0.1127
18107SOL     OW66298  10.272   0.328   0.220  0.5843  0.1968  0.2289
18107SOL    HW166299  10.255   0.255   0.279 -0.3487  0.0278 -0.2390
18107SOL    HW266300  10.367   0.340   0.224  0.6250 -0.3458  1.1205
18108SOL     OW66301   2.780   6.220   6.209 -0.4241 -0.0436 -0.1278
18108SOL    HW166302   2.800   6.134   6.246 -0.6878  0.0971  0.3492
18108SOL    HW266303   2.720   6.202   6.136 -0.6371 -0.2458  0.0974
18109SOL     OW66304   5.707   2.473   2.929  0.5809  0.2627  0.4169
18109SOL    HW166305   5.682   2.508   3.014 -0.1361  1.7797 -0.3694
18109SOL    HW266306   5.740   2.549   2.881  2.1701 -0.7905 -0.2453
18110SOL     OW66307   2.825   2.478   2.240  0.2108  0.7553 -0.0205
18110SOL    HW166308   2.741   2.523   2.230  0.2478  1.0433  0.8486
18110SOL    HW266309   2.883   2.522   2.178 -0.3747  0.2593 -0.9589
18111SOL     OW66310   9.827   4.216   7.908 -0.1815 -0.8907  0.0285
18111SOL    HW166311   9.762   4.233   7.977 -0.3193  1.1243 -0.5187
18111SOL    HW266312   9.893   4.161   7.950 -0.9531 -0.8524  1.3626
18112SOL     OW66313   9.416   8.091   6.270 -0.8706 -0.6019 -0.4318
18112SOL    HW166314   9.484   8.030   6.242 -1.4319 -1.3438 -0.2146
18112SOL    HW266315   9.337   8.037   6.275 -1.3118  0.0832  0.0479
18113SOL     OW66316   1.587   7.416   9.415  0.3231 -0.2004  0.0693
18113SOL    HW166317   1.568   7.410   9.322 -1.5302  2.3960  0.1811
18113SOL    HW266318   1.540   7.343   9.454  3.4455 -3.1370 -1.1550
18114SOL     OW66319   4.307   1.675   4.927  0.5800 -0.3144 -0.5126
18114SOL    HW166320   4.310   1.759   4.880  1.1234 -0.3912 -0.6168
18114SOL    HW266321   4.251   1.692   5.002  1.3639  0.3819 -0.0751
18115SOL     OW66322   5.232   9.741   3.992 -0.3696  0.1018  0.5718
18115SOL    HW166323   5.173   9.731   4.066 -0.5931  0.8638  0.5072
18115SOL    HW266324   5.319   9.749   4.031 -0.5624  1.1927  0.8015
18116SOL     OW66325   6.401   7.093   4.754  1.0434 -0.3534 -0.0959
18116SOL    HW166326   6.376   7.170   4.804  1.6162  0.2096 -0.6578
18116SOL    HW266327   6.378   7.114   4.664  1.5721 -0.6750 -0.3120
18117SOL     OW66328   2.212   7.322   7.546 -0.4545  0.4228 -0.5183
18117SOL    HW166329   2.236   7.360   7.630  0.7605  1.5688 -1.3486
18117SOL    HW266330   2.119   7.341   7.536 -1.2596 -1.7936  1.5825
18118SOL     OW66331   0.389   0.554   8.410  0.3616  0.2357 -0.1237
18118SOL    HW166332   0.433   0.632   8.444 -1.2060  0.3851  1.7522
18118SOL    HW266333   0.330   0.527   8.480 -1.4218 -0.8293 -1.9108
18119SOL     OW66334   9.847   6.839   9.309 -0.0589  0.5044  0.0316
18119SOL    HW166335   9.910   6.770   9.288 -1.0648 -0.7146  0.8577
18119SOL    HW266336   9.878   6.876   9.392  0.1076  0.5666 -0.0600
18120SOL     OW66337   5.539   1.092   5.388 -0.0618  0.1453  0.9322
18120SOL    HW166338   5.625   1.057   5.365 -0.7102 -0.8162 -0.1254
18120SOL    HW266339   5.500   1.025   5.444  0.0016  0.7365  1.6955
18121SOL     OW66340   3.765   5.328   6.266 -0.0556 -0.4547 -0.2012
18121SOL    HW166341   3.779   5.244   6.222  2.2386 -1.3195  1.9529
18121SOL    HW266342   3.847   5.376   6.252  0.0613 -0.0651  1.6130
18122SOL     OW66343   2.904   8.476   9.812  0.2882  0.7877 -0.1304
18122SOL    HW166344   2.816   8.439   9.822  0.2392  0.1532 -2.3812
18122SOL    HW266345   2.958   8.402   9.785  1.3088  1.3750  0.2465
18123SOL     OW66346  10.089   4.431   5.279 -0.3619  0.2528  0.0250
18123SOL    HW166347  10.076   4.522   5.255  0.9634  0.6209  0.6384
18123SOL    HW266348  10.005   4.404   5.317 -0.7794  1.1900 -0.2045
18124SOL     OW66349   0.337   8.139   1.146  0.1121 -0.0713  0.5837
18124SOL    HW166350   0.258   8.166   1.098  1.5251  0.9386 -1.3171
18124SOL    HW266351   0.393   8.216   1.144  1.5879 -1.0972  0.9412
18125SOL     OW66352   1.582   3.170   5.819  0.1627 -0.0513  0.7842
18125SOL    HW166353   1.517   3.193   5.885  1.8776  1.4943  2.0254
18125SOL    HW266354   1.594   3.250   5.768 -0.3126 -0.9041 -0.7272
18126SOL     OW66355   9.640   4.978   5.311 -0.1281 -0.5334 -0.1835
18126SOL    HW166356   9.715   4.921   5.293  1.8251  1.7168  0.1868
18126SOL    HW266357   9.648   4.997   5.405 -0.7789  0.2564 -0.2812
18127SOL     OW66358   6.215   8.169   2.221 -0.7337 -0.1747  0.0589
18127SOL    HW166359   6.266   8.094   2.253 -1.4711 -0.3720  0.8294
18127SOL    HW266360   6.187   8.214   2.301  1.7296  2.3807 -0.3680
18128SOL     OW66361   5.412   5.333   2.827  0.5710  0.2875 -0.4896
18128SOL    HW166362   5.385   5.425   2.824  1.2751  0.4935 -1.0261
18128SOL    HW266363   5.409   5.304   2.736  0.6021 -0.1479 -0.3566
18129SOL     OW66364   4.288   5.124   1.366  0.0743  0.4495  0.3329
18129SOL    HW166365   4.322   5.036   1.356  0.1643  0.2447  2.0770
18129SOL    HW266366   4.282   5.137   1.461 -2.2631  1.4198  0.1238
18130SOL     OW66367   2.759  10.357   9.162 -0.3145  0.1283 -0.0101
18130SOL    HW166368   2.732  10.337   9.252  0.7061  1.0091  0.5115
18130SOL    HW266369   2.813  10.283   9.136  0.7972  0.6387  0.7460
18131SOL     OW66370   5.398   0.156   6.897  0.3602  0.2906 -0.1173
18131SOL    HW166371   5.460   0.217   6.936 -0.2381 -0.6718  2.5091
18131SOL    HW266372   5.342   0.211   6.842  0.9585  1.8197  0.7507
18132SOL     OW66373   0.356   3.542   3.943  0.0429  0.3960 -0.2060
18132SOL    HW166374   0.444   3.575   3.960  0.4460 -0.7690  0.0177
18132SOL    HW266375   0.352   3.531   3.848  0.4060 -0.2793 -0.1435
18133SOL     OW66376   0.545   2.602   5.704 -0.3972 -0.5787 -0.5049
18133SOL    HW166377   0.467   2.638   5.661 -0.5961 -0.6370 -0.1924
18133SOL    HW266378   0.512   2.563   5.785  0.0829  0.1971  0.0742
18134SOL     OW66379   7.323   3.741   8.408  0.0465  0.0068 -0.3365
18134SOL    HW166380   7.355   3.828   8.383 -0.7219  0.4805  0.2858
18134SOL    HW266381   7.267   3.714   8.335 -0.3533  0.3909 -0.1793
18135SOL     OW66382   2.076   6.767   4.468 -0.1124 -0.1750  0.2018
18135SOL    HW166383   2.053   6.808   4.385  1.0177  0.3199  0.1192
18135SOL    HW266384   2.004   6.705   4.485 -0.0162 -0.7970 -1.4830
18136SOL     OW66385   4.348   4.955   7.844  0.1448 -0.3486 -0.1885
18136SOL    HW166386   4.313   4.883   7.791  0.1641  1.0808 -2.2759
18136SOL    HW266387   4.305   4.946   7.929 -2.0629 -1.1316 -1.3198
18137SOL     OW66388   0.769   4.603   1.496  0.6401 -0.2434 -0.1901
18137SOL    HW166389   0.679   4.574   1.508  0.2855  0.6073 -0.7089
18137SOL    HW266390   0.820   4.522   1.494 -0.3624 -0.8855 -2.0326
18138SOL     OW66391   3.053   4.326   7.474  0.1374 -0.0390  0.3100
18138SOL    HW166392   3.129   4.362   7.427  0.6969  1.7405  2.4193
18138SOL    HW266393   3.091   4.280   7.549 -0.8070 -1.5049 -0.0572
18139SOL     OW66394   7.769   2.727   3.877  0.7069 -0.1967 -0.0252
18139SOL    HW166395   7.823   2.651   3.854  0.1144 -1.1989  1.7017
18139SOL    HW266396   7.733   2.706   3.963 -0.8961  1.2890 -0.2693
18140SOL     OW66397   7.681   2.419   4.489  0.2163 -0.0314 -0.3538
18140SOL    HW166398   7.634   2.490   4.533  0.9647  0.5777 -0.4974
18140SOL    HW266399   7.656   2.427   4.397 -1.1331 -1.1304 -0.1035
18141SOL     OW66400   3.701   9.392   7.274 -0.6436  0.0605 -0.1370
18141SOL    HW166401   3.748   9.310   7.262 -0.7364 -0.0738  0.3929
18141SOL    HW266402   3.732   9.425   7.359 -1.9058 -0.2996  0.4765
18142SOL     OW66403  10.165   8.268   6.905  0.0796  0.4207 -0.0677
18142SOL    HW166404  10.247   8.234   6.941  0.7952  1.1021 -1.0063
18142SOL    HW266405  10.165   8.242   6.813 -1.4514 -0.7969  0.2302
18143SOL     OW66406   0.442   2.677   9.949  0.2216 -0.4086  0.5224
18143SOL    HW166407   0.431   2.727  10.030  1.2473  2.2799 -0.8870
18143SOL    HW266408   0.529   2.638   9.957  0.3971  0.0005  0.6537
18144SOL     OW66409   9.212   6.233   0.348  0.0608  0.0646  0.2055
18144SOL    HW166410   9.219   6.329   0.350 -1.0449  0.1678  2.2610
18144SOL    HW266411   9.287   6.203   0.400  0.3035 -0.1893 -0.2844
18145SOL     OW66412   2.219   7.968   7.773 -0.5534 -0.2360 -0.3349
18145SOL    HW166413   2.189   8.059   7.765 -0.2879 -0.1844 -0.7400
18145SOL    HW266414   2.154   7.918   7.724 -1.5201 -0.4406  1.0780
18146SOL     OW66415   3.711   2.976   9.646 -0.3788 -0.3185  0.0723
18146SOL    HW166416   3.747   2.911   9.586  1.4350 -0.4380  1.2146
18146SOL    HW266417   3.718   2.936   9.733  0.9117  1.3870  0.8206
18147SOL     OW66418  10.269   7.568   9.562 -0.2765 -0.6113  0.3181
18147SOL    HW166419  10.316   7.626   9.622 -0.0407 -0.9709  0.4878
18147SOL    HW266420  10.271   7.613   9.478  0.8762 -0.8687  0.1846
18148SOL     OW66421   2.007   0.938   7.960 -0.5514  0.4614 -0.3981
18148SOL    HW166422   1.969   0.872   7.902  1.2915  0.1159 -1.2669
18148SOL    HW266423   2.049   1.001   7.902  0.6327  0.5542  0.5209
18149SOL     OW66424   7.669   9.699   4.259 -0.4780 -0.2155  0.0649
18149SOL    HW166425   7.725   9.738   4.326  0.2538 -1.0356 -0.0544
18149SOL    HW266426   7.619   9.633   4.307  1.0819 -1.8204 -0.4184
18150SOL     OW66427   3.990   7.409   7.961  0.2390  0.1911  0.4004
18150SOL    HW166428   3.955   7.463   7.890 -0.8530  1.3411  1.7495
18150SOL    HW266429   4.067   7.458   7.991  0.1879  0.1621  0.5753
18151SOL     OW66430   9.183   9.788   0.433  0.1509  0.4096  0.0181
18151SOL    HW166431   9.181   9.880   0.410 -0.4692  0.6094  0.8250
18151SOL    HW266432   9.268   9.775   0.475 -0.6597  1.1712  2.0199
18152SOL     OW66433   2.979   0.033   8.983 -0.1037 -0.3502  0.2931
18152SOL    HW166434   3.060   0.018   9.031 -0.7199 -0.5832  1.2747
18152SOL    HW266435   2.909   0.019   9.047 -0.8877  1.6373 -0.0563
18153SOL     OW66436   8.942   4.132   6.591  0.3224  0.8230 -0.5299
18153SOL    HW166437   8.946   4.037   6.597 -0.5047  0.7935 -0.3304
18153SOL    HW266438   9.027   4.158   6.555 -0.0712 -0.1245 -2.2664
18154SOL     OW66439   8.498   5.793   6.271 -0.3695 -0.3077 -0.0880
18154SOL    HW166440   8.516   5.771   6.180  0.9386 -0.6942  0.2316
18154SOL    HW266441   8.427   5.735   6.297 -2.0097  1.0587 -1.3511
18155SOL     OW66442   5.933   2.824   9.737 -0.0397 -0.2251 -0.3593
18155SOL    HW166443   5.889   2.779   9.666 -2.1244  1.8476 -0.4902
18155SOL    HW266444   5.927   2.917   9.714 -0.9538  0.5482  2.5596
18156SOL     OW66445   9.589   0.762   9.822 -0.4036 -0.4915  0.1632
18156SOL    HW166446   9.606   0.668   9.820 -0.1064 -0.4523 -2.5591
18156SOL    HW266447   9.674   0.802   9.842 -0.5569 -0.7593  1.4513
18157SOL     OW66448   8.343   5.011   5.946  0.2582 -0.3045 -0.3766
18157SOL    HW166449   8.276   5.078   5.933  0.0494 -0.2783  0.7786
18157SOL    HW266450   8.426   5.056   5.931  0.1303  0.2797  0.6352
18158SOL     OW66451   9.435   9.896   8.150 -0.2326  0.5237 -0.3712
18158SOL    HW166452   9.418   9.838   8.225 -1.2450 -1.2557 -1.8797
18158SOL    HW266453   9.351   9.938   8.133  0.0752  1.1632 -0.3183
18159SOL     OW66454   2.146   6.648   9.054 -0.1545  0.8265  0.1586
18159SOL    HW166455   2.094   6.583   9.102 -0.8545  0.1751 -1.4280
18159SOL    HW266456   2.093   6.670   8.977  1.6576  0.5462 -1.2455
18160SOL     OW66457   6.718   3.639   2.998 -0.5972  0.1702  0.4102
18160SOL    HW166458   6.633   3.603   2.973  0.0288 -0.7728 -0.4360
18160SOL    HW266459   6.782   3.579   2.959  0.4568  0.2559  1.9320
18161SOL     OW66460   7.887   6.924   5.458 -0.0118  0.1404  0.4126
18161SOL    HW166461   7.952   6.962   5.517 -1.1847  1.1407  1.1248
18161SOL    HW266462   7.820   6.889   5.516 -1.0219  0.8270 -0.3072
18162SOL     OW66463   7.175   4.575   7.344  0.5878 -0.5556 -0.0700
18162SOL    HW166464   7.098   4.585   7.400 -0.8526  1.2505 -2.1738
18162SOL    HW266465   7.201   4.484   7.355 -1.4980 -1.0802  1.1891
18163SOL     OW66466   1.792   6.053   8.450  0.2047 -0.0118 -0.3356
18163SOL    HW166467   1.774   6.147   8.448  0.6353  0.0632 -0.9106
18163SOL    HW266468   1.779   6.028   8.542 -2.4529  0.1037 -0.5886
18164SOL     OW66469   9.450   4.845   5.623  0.0915 -0.1025  0.1076
18164SOL    HW166470   9.473   4.888   5.705 -0.1008  0.5168 -0.1501
18164SOL    HW266471   9.425   4.918   5.565  1.2168 -0.4282 -0.8224
18165SOL     OW66472   7.847   5.199   9.653 -0.3676 -0.0937  0.4869
18165SOL    HW166473   7.805   5.280   9.624  1.4414  0.8128  0.2413
18165SOL    HW266474   7.933   5.227   9.685  0.3852 -1.9520  0.2089
18166SOL     OW66475   6.430   9.076   8.845 -0.0967 -0.3098 -0.1912
18166SOL    HW166476   6.413   9.150   8.788  0.9561  0.6025  0.6185
18166SOL    HW266477   6.387   9.098   8.927 -2.3457 -2.0018 -0.8273
18167SOL     OW66478   2.752   0.237   1.117 -0.5723  0.1734  0.0110
18167SOL    HW166479   2.749   0.333   1.109  1.0248  0.2959  0.5306
18167SOL    HW266480   2.663   0.209   1.095 -0.9105  1.7192 -0.7892
18168SOL     OW66481   8.144   2.365  10.119 -0.0913  0.3594  0.4130
18168SOL    HW166482   8.187   2.450  10.113 -1.3548  1.1615  1.9770
18168SOL    HW266483   8.121   2.356  10.211 -2.7135 -0.2670 -0.2139
18169SOL     OW66484   4.763   4.849   4.529  0.2331  0.0919 -0.3568
18169SOL    HW166485   4.708   4.915   4.487  0.5316 -0.3710 -1.5204
18169SOL    HW266486   4.707   4.809   4.595  0.3951  2.3082  1.2383
18170SOL     OW66487   7.331   5.012   4.120  0.6595  0.2732  0.4545
18170SOL    HW166488   7.246   5.050   4.144  0.6245  1.6248 -1.5126
18170SOL    HW266489   7.309   4.928   4.080  0.1619  0.8146 -0.4601
18171SOL     OW66490   3.573   9.857   5.134  0.7691  0.0759 -0.3313
18171SOL    HW166491   3.665   9.876   5.117  1.1171  0.6534  1.8655
18171SOL    HW266492   3.544   9.928   5.191 -1.0014 -0.2031 -0.8227
18172SOL     OW66493   7.874   3.151   8.406 -0.3607 -0.0946 -0.0471
18172SOL    HW166494   7.919   3.129   8.487 -1.5326 -1.2812  0.3250
18172SOL    HW266495   7.784   3.169   8.432 -0.5686  0.3309 -0.9904
18173SOL     OW66496   1.473   1.731   3.829  0.1038  0.2472 -0.3078
18173SOL    HW166497   1.382   1.758   3.837  0.0798 -0.2658  1.8633
18173SOL    HW266498   1.512   1.794   3.769 -1.6330  0.5370 -1.2026
18174SOL     OW66499   7.822   4.264   3.890  0.2466  0.4366  0.1966
18174SOL    HW166500   7.737   4.287   3.850 -0.8399 -0.9974  1.5684
18174SOL    HW266501   7.886   4.285   3.822 -1.1453  1.9426 -0.7496
18175SOL     OW66502   3.144   0.150   0.305 -0.7758 -0.4354 -0.0467
18175SOL    HW166503   3.129   0.245   0.298  1.4574 -0.0047  0.3563
18175SOL    HW266504   3.215   0.133   0.244 -1.6437 -2.0273 -0.6661
18176SOL     OW66505   0.824   3.820   4.617 -0.4841 -0.0806 -0.3991
18176SOL    HW166506   0.862   3.908   4.611 -0.1438 -0.2346 -0.5207
18176SOL    HW266507   0.894   3.767   4.654 -1.4097  0.1611  1.8733
18177SOL     OW66508   9.716   5.664  10.331 -0.4104  0.2552  0.3772
18177SOL    HW166509   9.735   5.722  10.405 -0.3974 -1.4079  1.7144
18177SOL    HW266510   9.651   5.602  10.364  1.4997 -2.1555 -0.1073
18178SOL     OW66511   4.934   7.022   5.556  0.1004  0.0473 -0.6042
18178SOL    HW166512   4.853   6.981   5.587  0.5317 -0.3147  0.0672
18178SOL    HW266513   5.003   6.964   5.586  0.6949  1.0281 -0.0188
18179SOL     OW66514   1.556   0.896   5.359 -0.5402 -0.3213  0.1816
18179SOL    HW166515   1.517   0.967   5.410 -1.4570  0.8436 -1.9892
18179SOL    HW266516   1.491   0.878   5.291  1.5323 -0.2324 -1.9233
18180SOL     OW66517   2.643   5.205   7.952 -0.0941 -0.2530 -0.0214
18180SOL    HW166518   2.729   5.203   7.994  0.5836 -0.7548 -1.3737
18180SOL    HW266519   2.581   5.208   8.025  1.0327 -0.8202  0.9976
18181SOL     OW66520   9.261   3.198   9.001  0.2533  0.1527  0.0955
18181SOL    HW166521   9.353   3.173   9.012  0.2589  0.5747  1.1595
18181SOL    HW266522   9.218   3.163   9.079 -0.3703  0.5271 -0.0737
18182SOL     OW66523   6.688   0.641   5.582  0.4409 -0.6309 -0.3053
18182SOL    HW166524   6.652   0.728   5.599  0.1902 -0.9307  0.7316
18182SOL    HW266525   6.690   0.598   5.667  1.3083 -1.3677 -0.6741
18183SOL     OW66526   4.918   2.661   7.134 -0.0647  0.1955  0.3717
18183SOL    HW166527   4.858   2.644   7.062  0.7036 -1.4547  0.0636
18183SOL    HW266528   4.927   2.576   7.177  3.1288  0.0016 -0.4624
18184SOL     OW66529   8.316   2.443   7.932  0.4224 -0.3547  0.0699
18184SOL    HW166530   8.257   2.393   7.987 -0.3723  0.4239 -0.0546
18184SOL    HW266531   8.270   2.526   7.915  0.8789 -0.3441 -1.2927
18185SOL     OW66532   5.833   1.279   6.648  0.0098 -0.1585 -0.7841
18185SOL    HW166533   5.928   1.290   6.644 -0.0471  0.2296 -1.3079
18185SOL    HW266534   5.799   1.368   6.654 -0.2659 -0.3707  1.3483
18186SOL     OW66535   5.470   9.004   3.271  0.1605  0.1019  0.5156
18186SOL    HW166536   5.531   9.056   3.323 -0.4803 -0.4778  1.9041
18186SOL    HW266537   5.405   9.066   3.240  0.2238  0.3753  0.9207
18187SOL     OW66538   9.255   0.235   7.316  0.1057  0.3316  0.1212
18187SOL    HW166539   9.187   0.200   7.258 -0.5443 -0.6221  1.4263
18187SOL    HW266540   9.336   0.197   7.283 -0.1321  0.5510 -0.7367
18188SOL     OW66541   1.131   6.653   3.124 -0.0361 -0.4769  0.2153
18188SOL    HW166542   1.081   6.580   3.160  0.6081 -0.9991  0.0822
18188SOL    HW266543   1.129   6.640   3.029 -0.4096  0.0107  0.1524
18189SOL     OW66544   9.898   6.760   3.467 -0.0768  0.1550 -0.3205
18189SOL    HW166545   9.804   6.757   3.447 -0.2024 -1.9587  0.3298
18189SOL    HW266546   9.912   6.848   3.501 -1.1411  1.6537 -3.3878
18190SOL     OW66547   1.142   5.681   5.111 -0.0256 -0.7057 -0.0596
18190SOL    HW166548   1.087   5.700   5.187 -0.5595  2.3798 -1.1051
18190SOL    HW266549   1.225   5.723   5.131  0.1329 -0.6683 -0.7896
18191SOL     OW66550   6.132   1.318   8.230  0.5816  0.5127 -0.5833
18191SOL    HW166551   6.177   1.261   8.292  1.1665  0.5382 -0.9743
18191SOL    HW266552   6.202   1.354   8.176 -0.1096 -2.2185 -3.5972
18192SOL     OW66553   3.172   3.642   8.860  0.3259 -0.3054  0.6455
18192SOL    HW166554   3.193   3.684   8.777 -1.6590 -0.3326  0.0871
18192SOL    HW266555   3.149   3.715   8.919 -0.4740 -0.4047  0.4734
18193SOL     OW66556   4.871   4.080   3.139  0.1526  0.3448  0.1290
18193SOL    HW166557   4.786   4.122   3.129  0.5785  1.0727 -0.5007
18193SOL    HW266558   4.885   4.076   3.233 -0.6516  0.0437  0.2489
18194SOL     OW66559   9.233   0.063   4.026  0.0107  0.4101 -0.3651
18194SOL    HW166560   9.190  -0.021   4.009  1.9003 -0.3180 -1.9447
18194SOL    HW266561   9.322   0.039   4.054  0.2410  1.8852  0.2619
18195SOL     OW66562   1.518   0.937   8.309 -0.2299  0.1370  0.2633
18195SOL    HW166563   1.474   0.931   8.394 -0.3952  1.1668  0.2709
18195SOL    HW266564   1.470   1.006   8.263 -0.6109 -0.9077 -0.9619
18196SOL     OW66565   8.675   6.308   2.438  0.1857 -0.1884  0.2824
18196SOL    HW166566   8.657   6.225   2.393  1.0768 -0.2017 -0.0702
18196SOL    HW266567   8.754   6.340   2.396  0.5223  0.2548  1.2460
18197SOL     OW66568   1.210   4.931   5.924 -0.1639  0.3552  0.1683
18197SOL    HW166569   1.299   4.959   5.949  0.4428 -0.9575 -0.4175
18197SOL    HW266570   1.224   4.854   5.869 -1.6028  1.1038 -1.3339
18198SOL     OW66571   2.362   2.959   7.836  0.5640 -0.2908 -0.3677
18198SOL    HW166572   2.370   3.055   7.831 -1.6460  0.0171  0.6069
18198SOL    HW266573   2.417   2.927   7.765  2.4958  1.6086  0.1300
18199SOL     OW66574   4.625   7.115   2.131 -0.0360 -0.0867  0.0957
18199SOL    HW166575   4.538   7.080   2.150 -0.4221  1.6578  1.8593
18199SOL    HW266576   4.640   7.182   2.198  2.6632 -0.2916 -0.1771
18200SOL     OW66577   5.318   4.782   8.892 -0.5956 -0.5027  0.6142
18200SOL    HW166578   5.362   4.831   8.823 -1.4128 -0.0855  0.3659
18200SOL    HW266579   5.319   4.842   8.967  3.0354 -2.0622  2.0602
18201SOL     OW66580   1.944   5.871   9.552 -0.2424  0.3842 -0.5381
18201SOL    HW166581   2.010   5.941   9.555 -0.9680  1.0790 -0.3262
18201SOL    HW266582   1.893   5.884   9.632 -0.3874 -0.4009 -0.4946
18202SOL     OW66583   7.474   0.551   3.607  0.2037 -0.4587  0.0113
18202SOL    HW166584   7.394   0.599   3.584  0.1388 -1.5415 -2.3297
18202SOL    HW266585   7.543   0.595   3.558  0.3307 -1.9980 -1.2578
18203SOL     OW66586  10.254   1.770   9.464 -0.3846  0.3117 -0.0150
18203SOL    HW166587  10.258   1.675   9.474  2.8040  0.4580  1.2943
18203SOL    HW266588  10.168   1.795   9.499 -1.8277 -2.1058 -1.5057
18204SOL     OW66589   8.542   5.703   5.519 -0.0395 -0.7824 -0.0404
18204SOL    HW166590   8.468   5.687   5.577  0.3276 -0.2714  0.5802
18204SOL    HW266591   8.608   5.744   5.574  0.8357 -1.5153 -0.5180
18205SOL     OW66592   4.844   7.675   4.718  0.4622  0.4122  0.0714
18205SOL    HW166593   4.765   7.638   4.758  0.5063 -0.0358 -0.2419
18205SOL    HW266594   4.909   7.604   4.724  0.3341  0.1567 -1.2071
18206SOL     OW66595   3.393   0.261   2.338  0.1007 -0.8389  0.1819
18206SOL    HW166596   3.433   0.176   2.321 -0.4693 -0.9817 -0.4827
18206SOL    HW266597   3.411   0.313   2.259 -1.8993 -1.2553 -0.6375
18207SOL     OW66598   0.548  10.165   3.080 -0.2423  0.0176  0.3073
18207SOL    HW166599   0.572  10.094   3.140 -0.7796 -0.2696  0.1961
18207SOL    HW266600   0.527  10.239   3.137 -1.5774 -0.5096  0.5324
18208SOL     OW66601   0.255   0.122   2.449  0.2906 -0.3359 -0.4418
18208SOL    HW166602   0.293   0.201   2.411  1.5746  0.6338  2.4922
18208SOL    HW266603   0.169   0.113   2.408  0.4699  2.0974 -1.4759
18209SOL     OW66604   9.169  10.030   9.421 -0.5581  0.7439 -0.4040
18209SOL    HW166605   9.160  10.080   9.502  1.0949  0.3940  0.0155
18209SOL    HW266606   9.079  10.001   9.401 -0.8648 -0.0013  1.8320
18210SOL     OW66607   6.182   7.805   1.656  0.4135  0.4049  0.3290
18210SOL    HW166608   6.269   7.845   1.661  1.2518 -1.3554  0.4804
18210SOL    HW266609   6.196   7.714   1.681 -1.2728 -0.2143 -0.8020
18211SOL     OW66610   1.311   8.139   9.414  0.4333 -0.8011 -0.5817
18211SOL    HW166611   1.311   8.051   9.452 -0.3366 -0.2110  0.8176
18211SOL    HW266612   1.308   8.198   9.488  2.2148  0.4728 -1.4553
18212SOL     OW66613   1.456   6.496   1.511  0.0711  0.1271 -0.2343
18212SOL    HW166614   1.417   6.509   1.597 -0.8041 -1.4750 -0.3472
18212SOL    HW266615   1.396   6.538   1.450 -1.0650 -1.5442 -0.3239
18213SOL     OW66616   4.280   8.765   7.221  0.0693 -0.4679  0.4267
18213SOL    HW166617   4.207   8.825   7.206 -0.5955 -0.8857  1.8312
18213SOL    HW266618   4.358   8.820   7.215 -0.4462  0.2724  0.3832
18214SOL     OW66619   0.524   5.037   3.867  0.2844 -0.3639 -0.4280
18214SOL    HW166620   0.539   4.946   3.841 -0.1239 -0.4686 -0.3125
18214SOL    HW266621   0.490   5.079   3.788 -0.2584 -0.5041 -0.2777
18215SOL     OW66622   1.022   5.479   3.433  0.2467 -0.5167 -0.4884
18215SOL    HW166623   1.081   5.547   3.464 -0.8393  0.2077  0.0537
18215SOL    HW266624   1.023   5.413   3.503 -0.0006 -0.2541 -0.2396
18216SOL     OW66625   7.916   1.423   4.246  0.3027 -0.2800  0.3774
18216SOL    HW166626   7.962   1.498   4.208 -0.6399 -0.6067 -1.5640
18216SOL    HW266627   7.845   1.405   4.184 -1.1509 -1.1095  2.1746
18217SOL     OW66628   3.039   6.243   2.112  0.2934 -0.1821 -0.4483
18217SOL    HW166629   2.999   6.183   2.176 -0.2632 -0.0893 -0.7060
18217SOL    HW266630   3.071   6.316   2.165  0.3356 -0.3729 -0.2108
18218SOL     OW66631   8.479   8.163   4.240  0.2947 -0.3291 -0.1950
18218SOL    HW166632   8.492   8.249   4.278  0.6934 -0.6329  0.3691
18218SOL    HW266633   8.384   8.156   4.227  0.2431  0.1207 -0.0835
18219SOL     OW66634   2.438   8.108   8.186  0.4876  0.4253 -0.5164
18219SOL    HW166635   2.354   8.133   8.224  0.1921  0.7505 -1.3543
18219SOL    HW266636   2.504   8.145   8.244  0.1148 -1.9904  1.6161
18220SOL     OW66637   7.658   6.438   5.765 -0.3116 -0.1345  0.1202
18220SOL    HW166638   7.664   6.359   5.818 -0.0842  1.8229  3.2350
18220SOL    HW266639   7.617   6.409   5.683 -1.6833 -3.1778  1.7336
18221SOL     OW66640   2.423   2.657   3.690  0.0241  0.6673 -0.5074
18221SOL    HW166641   2.361   2.628   3.757 -0.5065 -3.3774 -2.4276
18221SOL    HW266642   2.368   2.702   3.625 -0.9069 -1.8938 -1.6409
18222SOL     OW66643   1.383   9.829   3.244  0.1706 -0.0063  0.7888
18222SOL    HW166644   1.380   9.891   3.316 -1.7258  0.1757  0.5988
18222SOL    HW266645   1.456   9.771   3.265  0.6587  1.0122  2.0177
18223SOL     OW66646   1.532   2.426   6.893  0.5056  0.8235  0.5963
18223SOL    HW166647   1.493   2.438   6.806  0.0486  0.8724  0.8074
18223SOL    HW266648   1.538   2.331   6.904  1.2051  0.8217  0.2271
18224SOL     OW66649   9.253   7.127   3.387  0.0110 -0.3691 -0.2065
18224SOL    HW166650   9.241   7.129   3.292  0.7913  1.1273 -0.3018
18224SOL    HW266651   9.329   7.070   3.399 -0.2947 -0.8345 -0.4556
18225SOL     OW66652   1.116   1.889   0.769  0.6409  0.0052  0.6817
18225SOL    HW166653   1.160   1.895   0.684 -0.7604 -1.3382 -0.1919
18225SOL    HW266654   1.038   1.944   0.760  0.4348 -0.2166  1.0754
18226SOL     OW66655   9.592   0.199   2.845  0.8845 -0.1971  0.0630
18226SOL    HW166656   9.584   0.183   2.939  1.4454  0.5197  0.2470
18226SOL    HW266657   9.681   0.171   2.823  0.7026 -0.5085 -0.2823
18227SOL     OW66658   4.805   9.124   2.743 -0.1140  1.2016  0.4342
18227SOL    HW166659   4.890   9.088   2.718 -0.8827  0.6025 -1.4778
18227SOL    HW266660   4.751   9.047   2.761 -0.0702  1.5920  2.4493
18228SOL     OW66661   5.824   5.258   1.928 -0.1246  0.5594  0.1490
18228SOL    HW166662   5.767   5.224   1.860 -0.2115  0.0091  0.4878
18228SOL    HW266663   5.896   5.300   1.881  0.7844 -1.3917 -0.3268
18229SOL     OW66664   7.298   8.812   2.009 -0.8955  0.4459 -0.4455
18229SOL    HW166665   7.367   8.749   1.989 -0.7817  0.6266 -0.6144
18229SOL    HW266666   7.311   8.832   2.102 -1.1618 -0.0633 -0.2978
18230SOL     OW66667   7.394   8.557   4.915 -0.0396 -0.2578  0.0277
18230SOL    HW166668   7.320   8.598   4.960 -0.1826 -0.1011 -0.3500
18230SOL    HW266669   7.461   8.626   4.912  0.8412 -0.9425  2.0222
18231SOL     OW66670   7.808   8.961   4.280  0.1670 -0.2068 -0.1509
18231SOL    HW166671   7.775   8.987   4.194  0.8153 -0.2579 -0.4182
18231SOL    HW266672   7.801   8.865   4.280 -0.1857 -0.1844  0.0024
18232SOL     OW66673   3.188   1.676   6.435  0.1165  0.4084 -0.4701
18232SOL    HW166674   3.183   1.766   6.467  0.0833  1.3068 -2.7813
18232SOL    HW266675   3.099   1.642   6.445  0.1201  0.6210  0.3691
18233SOL     OW66676   9.798   2.710   3.817 -0.2696 -0.3627  0.1815
18233SOL    HW166677   9.857   2.781   3.844 -0.2282  0.3482 -1.6476
18233SOL    HW266678   9.744   2.694   3.894  0.4127  0.9478  0.9735
18234SOL     OW66679   8.500   6.818   7.911 -0.3595  0.2404  0.1742
18234SOL    HW166680   8.494   6.723   7.913 -1.2343  0.2865  0.3268
18234SOL    HW266681   8.555   6.841   7.985 -0.0565 -0.1563  0.0702
18235SOL     OW66682   9.320   7.926   5.539  0.3332 -0.1500 -0.2442
18235SOL    HW166683   9.240   7.882   5.569  0.1320 -1.1256 -2.0749
18235SOL    HW266684   9.390   7.884   5.588 -0.2495  1.0558  1.7588
18236SOL     OW66685   2.118   2.562   5.864 -0.2039  0.1269  0.1556
18236SOL    HW166686   2.135   2.468   5.863  0.5700  0.1965 -2.6664
18236SOL    HW266687   2.205   2.602   5.862 -0.5364  0.8360 -0.5518
18237SOL     OW66688   9.663   6.383   5.545 -0.4127 -0.2402 -0.1424
18237SOL    HW166689   9.626   6.298   5.567 -1.3809  0.3510  0.5848
18237SOL    HW266690   9.755   6.364   5.526 -1.0096 -1.7098 -1.8311
18238SOL     OW66691  10.319   5.905   1.126 -0.2276 -0.6286 -0.4257
18238SOL    HW166692  10.337   5.999   1.118 -1.7819 -0.3468 -1.1072
18238SOL    HW266693  10.318   5.873   1.036 -1.4720 -0.9227 -0.3211
18239SOL     OW66694   5.585   2.741   9.618  0.0460 -0.3030  0.1871
18239SOL    HW166695   5.543   2.731   9.703  1.3523  0.3571  0.9279
18239SOL    HW266696   5.674   2.708   9.631  0.9174  1.7161 -0.3482
18240SOL     OW66697  10.023   4.684   9.469  0.0234  0.4021  0.0657
18240SOL    HW166698   9.998   4.652   9.556  1.7610 -0.6151  0.2460
18240SOL    HW266699  10.112   4.717   9.481  0.8192 -0.9672 -1.5526
18241SOL     OW66700   0.661   6.872   6.962 -0.0709 -0.2814  0.4050
18241SOL    HW166701   0.628   6.957   6.993  1.6626  0.3492  0.6682
18241SOL    HW266702   0.676   6.822   7.042 -0.9237 -0.7777  0.2577
18242SOL     OW66703  10.215   2.613   6.546  0.3617  0.0651 -0.2954
18242SOL    HW166704  10.224   2.652   6.633  3.1113 -1.9317  0.4390
18242SOL    HW266705  10.234   2.684   6.485 -0.7853  1.2819  0.6973
18243SOL     OW66706   5.051   7.638   3.475 -0.1453  0.3323  0.4084
18243SOL    HW166707   5.068   7.706   3.540 -2.1147  0.7024  0.5742
18243SOL    HW266708   4.996   7.575   3.521  0.7871 -0.8788 -0.0726
18244SOL     OW66709   1.814   0.401   0.451 -0.3234  0.4696 -0.1020
18244SOL    HW166710   1.777   0.399   0.540 -3.0826  2.5668 -1.0341
18244SOL    HW266711   1.775   0.325   0.408  1.2513 -0.7200  0.5087
18245SOL     OW66712   6.134   4.841   2.130  0.3303  0.0520 -0.1458
18245SOL    HW166713   6.220   4.824   2.168  0.4702  0.0064 -0.4792
18245SOL    HW266714   6.120   4.768   2.069  0.7369  0.8646 -1.2496
18246SOL     OW66715   6.040   0.188   6.380 -0.0166 -0.2273 -0.5918
18246SOL    HW166716   6.082   0.116   6.333  0.6193 -1.2154  1.3603
18246SOL    HW266717   5.957   0.151   6.411 -0.4731  0.4402 -0.9776
18247SOL     OW66718   5.614   5.093   1.772  0.1340 -0.0974 -0.4519
18247SOL    HW166719   5.549   5.136   1.715 -1.6175  0.6884  1.9641
18247SOL    HW266720   5.599   4.999   1.757 -0.2966  0.0858 -1.2737
18248SOL     OW66721   8.021   0.471   2.143 -0.0821  0.4750  0.1001
18248SOL    HW166722   8.036   0.509   2.229  0.9466  0.2332  0.0297
18248SOL    HW266723   8.040   0.543   2.082 -1.1424  0.7525  0.0631
18249SOL     OW66724   9.472   8.589   9.456  0.1465  0.0875  0.3398
18249SOL    HW166725   9.539   8.561   9.518  0.4275 -1.1500 -0.4789
18249SOL    HW266726   9.393   8.541   9.483 -0.0341  0.4368  0.4370
18250SOL     OW66727   4.569   9.968   7.672  0.2623 -0.3749  0.3610
18250SOL    HW166728   4.660   9.995   7.668 -0.1200  0.9178 -0.4222
18250SOL    HW266729   4.520  10.049   7.688 -0.8391 -0.7969 -0.6678
18251SOL     OW66730   3.475   9.334  10.368  0.1570  0.3194  0.5034
18251SOL    HW166731   3.523   9.311  10.447  0.1022  1.1501  0.7877
18251SOL    HW266732   3.543   9.354  10.303  0.2087 -0.8751  0.1694
18252SOL     OW66733  10.206   4.572   0.972  0.0159  0.2847 -0.1994
18252SOL    HW166734  10.267   4.645   0.979  0.4267 -0.1433  0.9370
18252SOL    HW266735  10.138   4.591   1.037 -1.7160  1.3056 -2.1828
18253SOL     OW66736   8.786   1.763   7.310  0.2442 -0.1351 -0.4709
18253SOL    HW166737   8.881   1.776   7.307  0.3301 -0.2597  0.7970
18253SOL    HW266738   8.752   1.814   7.237  1.1365  1.4707  0.1704
18254SOL     OW66739   2.473   1.093   0.959 -0.1180  0.2504  0.1049
18254SOL    HW166740   2.551   1.121   1.007  0.9518 -1.4237 -0.5726
18254SOL    HW266741   2.434   1.175   0.927  1.6388  1.1076  0.0400
18255SOL     OW66742   5.746   3.672   1.717 -0.3561  0.5025  0.8734
18255SOL    HW166743   5.693   3.608   1.669  1.0369 -0.2331  0.2581
18255SOL    HW266744   5.801   3.619   1.775  2.0479  0.9347 -0.8588
18256SOL     OW66745   6.957   3.968   0.029  0.1457  0.3072 -0.0782
18256SOL    HW166746   7.027   3.948   0.091  0.6230  1.6449 -0.1595
18256SOL    HW266747   6.919   4.051   0.060 -1.5511 -0.4759  0.0845
18257SOL     OW66748   5.251   6.401   6.309 -0.6963 -0.0941 -0.0200
18257SOL    HW166749   5.167   6.446   6.312 -0.9999 -0.6556 -0.1317
18257SOL    HW266750   5.258   6.367   6.220 -0.1690  0.2928 -0.1322
18258SOL     OW66751   7.757   0.902   8.439 -0.3081  0.1904 -0.0362
18258SOL    HW166752   7.724   0.842   8.372 -2.3026  2.3850 -1.1913
18258SOL    HW266753   7.835   0.941   8.399 -0.8182  0.6349 -0.6169
18259SOL     OW66754   2.674   2.175   8.017 -0.4689  0.5666 -0.1506
18259SOL    HW166755   2.594   2.164   7.964 -0.4283 -0.7753  0.0182
18259SOL    HW266756   2.713   2.088   8.019 -0.8992  0.3244  2.7755
18260SOL     OW66757   0.024   4.022   2.679 -0.6082  0.6864 -0.4500
18260SOL    HW166758   0.110   4.058   2.700 -0.3830 -0.3084  0.4460
18260SOL    HW266759   0.043   3.935   2.644 -1.2607  0.0814  0.6303
18261SOL     OW66760   9.552   2.444   1.238  0.3732  0.0660  0.0676
18261SOL    HW166761   9.574   2.398   1.320 -0.7860 -0.4490  0.0953
18261SOL    HW266762   9.468   2.485   1.256  1.8587  3.2695  0.4727
18262SOL     OW66763   2.312   0.156   4.437  0.2566  0.1183  0.3863
18262SOL    HW166764   2.286   0.234   4.487 -1.0529  0.0175 -0.0816
18262SOL    HW266765   2.402   0.140   4.463  0.2392  1.2194  1.2323
18263SOL     OW66766   5.757   6.719   8.357  0.0975 -0.5613  0.3863
18263SOL    HW166767   5.740   6.640   8.409  2.1883  1.0722  3.9684
18263SOL    HW266768   5.845   6.706   8.321 -0.4900 -0.7707 -1.0377
18264SOL     OW66769   8.212   9.739   6.941 -0.4892  0.2536  0.5536
18264SOL    HW166770   8.272   9.793   6.890  0.3600  1.6041  2.8329
18264SOL    HW266771   8.266   9.669   6.977 -0.9394 -0.3157  0.1307
18265SOL     OW66772   9.273   3.291   7.341  0.9771  0.0657 -0.1821
18265SOL    HW166773   9.301   3.202   7.363 -0.2763 -0.1932  0.4424
18265SOL    HW266774   9.259   3.334   7.425 -1.5991 -0.2048 -0.3791
18266SOL     OW66775   4.139   9.031   1.874 -0.0220  0.3975 -0.1822
18266SOL    HW166776   4.221   9.003   1.913 -0.0439  0.8180  0.1823
18266SOL    HW266777   4.147   9.009   1.781  0.5704  0.5919 -0.1803
18267SOL     OW66778   0.191   9.213   9.304  0.0603 -0.1699  0.1442
18267SOL    HW166779   0.139   9.204   9.384  1.4428 -0.8534  1.0025
18267SOL    HW266780   0.241   9.132   9.298  1.8060  0.8602 -0.0639
18268SOL     OW66781   7.085   7.532   0.257  0.2320  0.2456 -0.1209
18268SOL    HW166782   7.141   7.587   0.313 -1.8695  1.9425  0.4669
18268SOL    HW266783   7.096   7.569   0.170  0.3117  0.3189 -0.0812
18269SOL     OW66784   8.130  10.049   5.770  0.2828 -0.6636 -0.1222
18269SOL    HW166785   8.173  10.106   5.705 -0.0752 -0.4206 -0.1518
18269SOL    HW266786   8.199   9.988   5.798  0.6935 -0.1696 -0.0380
18270SOL     OW66787   8.233   8.808   8.138  0.5190 -0.4515  0.1303
18270SOL    HW166788   8.251   8.862   8.215  1.0503 -0.8658  0.3083
18270SOL    HW266789   8.319   8.796   8.097  0.7966 -2.9089  1.2693
18271SOL     OW66790   0.158   0.250   2.025  0.0778 -0.0260 -0.7770
18271SOL    HW166791   0.214   0.205   1.962  0.7108  0.1694 -0.3630
18271SOL    HW266792   0.093   0.185   2.050  0.1800 -0.2887 -1.1907
18272SOL     OW66793   1.310   4.710   5.344 -0.7843  0.6004  0.1087
18272SOL    HW166794   1.219   4.738   5.333 -1.5201 -1.4746  0.3268
18272SOL    HW266795   1.356   4.788   5.372 -2.5540  1.6676  0.2167
18273SOL     OW66796   7.576   4.900   5.159  0.4771 -0.2338  0.3685
18273SOL    HW166797   7.582   4.989   5.191 -1.6793  0.5831 -1.2166
18273SOL    HW266798   7.485   4.874   5.177  0.1769 -0.9576 -1.8302
18274SOL     OW66799   4.514   8.366   5.467  0.0803  0.1134  0.0984
18274SOL    HW166800   4.435   8.389   5.517 -0.4398  0.1817 -0.7497
18274SOL    HW266801   4.530   8.275   5.491 -0.0222  0.2189  0.5862
18275SOL     OW66802   5.370   5.319   7.304 -0.1542 -0.4721  0.1148
18275SOL    HW166803   5.417   5.368   7.236  1.1665  0.4997  1.6561
18275SOL    HW266804   5.422   5.240   7.315  0.0001 -0.3287  0.4278
18276SOL     OW66805   4.673   0.242  10.224 -0.5570  0.3048 -0.0993
18276SOL    HW166806   4.727   0.318  10.203  0.2287  0.0368  0.8740
18276SOL    HW266807   4.653   0.202  10.140 -0.8931  1.5179 -0.6223
18277SOL     OW66808   9.659  10.044   7.315 -0.1809  0.2571  0.0978
18277SOL    HW166809   9.574  10.007   7.291 -0.5416  0.8271  0.4568
18277SOL    HW266810   9.707   9.972   7.354  0.6439 -0.8685 -2.7705
18278SOL     OW66811   5.277   9.989   9.025 -0.3927  0.1080 -0.6366
18278SOL    HW166812   5.187  10.020   9.021 -0.7898 -1.0841 -1.8378
18278SOL    HW266813   5.328  10.056   8.978 -0.7010  0.6140 -0.2544
18279SOL     OW66814   5.202   2.887   5.310 -0.4132  0.4087  0.2192
18279SOL    HW166815   5.203   2.801   5.352  0.7524  0.7860  1.0183
18279SOL    HW266816   5.180   2.869   5.218 -0.2490 -0.7392  0.3901
18280SOL     OW66817   5.930   9.881   6.220 -0.3648 -0.1631 -0.0314
18280SOL    HW166818   5.982   9.863   6.142 -0.2701 -1.2073  0.2584
18280SOL    HW266819   5.873   9.954   6.195  0.3905  0.2041 -0.7355
18281SOL     OW66820   5.349   0.856   1.624  0.0570  0.0149 -0.1466
18281SOL    HW166821   5.305   0.823   1.702  1.6089  1.4432  1.4358
18281SOL    HW266822   5.314   0.945   1.614  0.2921  0.0391 -0.7527
18282SOL     OW66823   8.337   8.028   8.137  1.0082 -0.2957 -0.6329
18282SOL    HW166824   8.352   7.998   8.048  1.7916  1.7887 -1.2697
18282SOL    HW266825   8.421   8.063   8.166  0.3687  0.5778  0.2697
18283SOL     OW66826   8.271   0.254   5.745 -0.0124  0.1692 -0.1362
18283SOL    HW166827   8.309   0.295   5.823 -0.3065  0.6639 -0.2512
18283SOL    HW266828   8.321   0.290   5.672 -2.1857  2.6800 -0.5109
18284SOL     OW66829  10.004   0.720   0.130  0.0266  0.0364  0.3776
18284SOL    HW166830  10.025   0.628   0.144  0.6902  0.1292  0.0020
18284SOL    HW266831  10.059   0.747   0.056 -1.3228  0.3104 -0.5727
18285SOL     OW66832   6.888   0.680   5.271  0.1183  0.2152  0.5088
18285SOL    HW166833   6.880   0.776   5.266  0.5508  0.3801  2.3994
18285SOL    HW266834   6.971   0.661   5.228 -0.4824  0.5435 -0.8676
18286SOL     OW66835   9.962   4.077   8.830  0.3822  0.1049  0.4875
18286SOL    HW166836  10.026   4.109   8.893  1.1281  0.6546 -0.5198
18286SOL    HW266837   9.969   4.138   8.756 -1.4650  0.3215  0.4371
18287SOL     OW66838   3.081   8.559   0.958 -0.1644  0.1823  0.3848
18287SOL    HW166839   3.119   8.487   0.908 -0.3846  0.7271 -0.5786
18287SOL    HW266840   3.132   8.636   0.933 -0.6827  0.5751  0.5229
18288SOL     OW66841   7.408   9.057  10.068  0.2371  0.3667  0.9614
18288SOL    HW166842   7.487   9.033  10.118  2.2922  1.0268 -1.6993
18288SOL    HW266843   7.419   9.151  10.050  0.4840 -0.1249 -1.9724
18289SOL     OW66844   1.272   3.447   8.002  0.0464 -0.9852  0.4699
18289SOL    HW166845   1.226   3.363   7.999  0.3790 -1.1593  0.2267
18289SOL    HW266846   1.218   3.502   8.060 -0.0267 -1.4506  0.8475
18290SOL     OW66847   3.603   7.991   9.569  0.6153  0.0676 -0.4960
18290SOL    HW166848   3.581   7.984   9.661 -0.2802  1.5831 -0.5604
18290SOL    HW266849   3.666   7.920   9.553  0.7828 -0.2052  1.2583
18291SOL     OW66850   8.858   9.041   6.097 -0.3849 -0.0706  0.1901
18291SOL    HW166851   8.844   8.951   6.067 -0.4263  0.2927 -0.9321
18291SOL    HW266852   8.799   9.094   6.044  0.6821  0.7742 -0.2057
18292SOL     OW66853   2.491   1.713   0.224 -0.0879  0.2376 -0.2778
18292SOL    HW166854   2.407   1.669   0.238  1.0079 -1.9018 -0.1878
18292SOL    HW266855   2.544   1.651   0.175  1.2750  1.7792 -0.8543
18293SOL     OW66856   0.714   9.420   9.409  0.4002 -0.4189  0.0993
18293SOL    HW166857   0.701   9.515   9.412 -0.3977 -0.4453 -1.7385
18293SOL    HW266858   0.634   9.384   9.448  0.9727 -0.3625  1.3880
18294SOL     OW66859   3.993   9.509   1.056 -0.4601 -0.7252  0.0705
18294SOL    HW166860   3.917   9.539   1.105 -0.8196 -0.9255 -0.3618
18294SOL    HW266861   3.996   9.415   1.071  0.7612 -0.4803  1.5578
18295SOL     OW66862   4.928   7.069   4.352  0.2080 -0.4483  0.3272
18295SOL    HW166863   4.875   7.093   4.428 -0.2906  0.2734 -0.2371
18295SOL    HW266864   4.903   6.978   4.333 -0.0709 -0.4489  0.6804
18296SOL     OW66865   0.876  10.218   8.223 -0.0610  1.1592 -0.0687
18296SOL    HW166866   0.862  10.280   8.151 -0.7781 -0.8382 -1.7438
18296SOL    HW266867   0.945  10.160   8.191 -1.0134 -0.3067  0.4800
18297SOL     OW66868  10.101   9.323   0.207 -0.1768 -0.2668  0.0941
18297SOL    HW166869  10.150   9.368   0.276  0.6723 -2.2411  0.8696
18297SOL    HW266870  10.053   9.254   0.253 -1.0059 -0.4990 -1.0854
18298SOL     OW66871   8.108   7.941   4.981 -0.0560 -0.1509  0.5096
18298SOL    HW166872   8.189   7.982   4.951  0.0849 -0.6855  0.1519
18298SOL    HW266873   8.135   7.854   5.011 -0.4449 -0.2065  0.6996
18299SOL     OW66874   7.775   5.222   8.267  0.4095 -0.0480 -0.1421
18299SOL    HW166875   7.714   5.281   8.312 -0.6366 -0.5175 -0.9000
18299SOL    HW266876   7.828   5.185   8.338 -2.2622 -2.0173  1.0085
18300SOL     OW66877   8.152   2.490   6.829  0.3358 -0.3249  0.5586
18300SOL    HW166878   8.068   2.509   6.788  1.5806  1.8257 -1.1976
18300SOL    HW266879   8.146   2.531   6.915 -0.1771  0.3823  0.1943
18301SOL     OW66880   0.661   5.996   0.778 -0.4595 -0.3398 -0.3360
18301SOL    HW166881   0.655   6.090   0.796  0.9487 -0.4165  0.7506
18301SOL    HW266882   0.593   5.979   0.714 -1.9881  1.0790  0.8337
18302SOL     OW66883   4.404   1.802   2.606  0.3910  0.6070  0.2229
18302SOL    HW166884   4.419   1.779   2.698  0.6892 -0.1172 -0.0014
18302SOL    HW266885   4.445   1.731   2.557 -0.3312  0.6555 -0.4587
18303SOL     OW66886   8.121   2.687   4.507 -0.3631  0.4139 -0.1707
18303SOL    HW166887   8.176   2.687   4.585  0.6225 -1.4589 -0.7903
18303SOL    HW266888   8.057   2.618   4.523 -1.1736  1.0950 -0.3868
18304SOL     OW66889   8.766   9.523   2.881 -0.1826  0.3896 -0.5094
18304SOL    HW166890   8.699   9.456   2.896 -1.0264  1.2082 -0.5572
18304SOL    HW266891   8.749   9.554   2.793 -0.4677  1.4050 -0.1059
18305SOL     OW66892   9.256   4.873   8.843 -0.1921  0.1911 -0.4267
18305SOL    HW166893   9.248   4.794   8.895 -0.5621  0.0693 -0.6581
18305SOL    HW266894   9.346   4.902   8.855 -0.9949  1.8759  2.7276
18306SOL     OW66895   9.305   0.251   2.961 -1.0801  0.2648 -0.4725
18306SOL    HW166896   9.374   0.234   3.025 -0.1590  1.7411 -1.0356
18306SOL    HW266897   9.297   0.169   2.912  0.4347  0.1396 -0.5532
18307SOL     OW66898   0.387   9.039   1.434 -0.6325 -0.0609 -0.0892
18307SOL    HW166899   0.376   8.951   1.398  0.5390  0.3470 -1.5251
18307SOL    HW266900   0.481   9.056   1.429 -0.3853  0.1316  3.0266
18308SOL     OW66901   3.188   8.553   9.023  0.2372 -0.2022  0.0850
18308SOL    HW166902   3.252   8.490   9.056 -0.3496 -1.4950 -1.1775
18308SOL    HW266903   3.241   8.626   8.991  0.8995  0.2126  2.0130
18309SOL     OW66904   0.873   6.144   1.906 -0.2231  0.2048 -0.3431
18309SOL    HW166905   0.926   6.135   1.985 -1.3838 -0.8064  0.3582
18309SOL    HW266906   0.786   6.167   1.938 -0.7305 -0.2824 -1.3186
18310SOL     OW66907   2.382   0.477   7.602 -0.3421  0.6247  0.1870
18310SOL    HW166908   2.413   0.539   7.536 -1.6220 -0.6338 -1.7099
18310SOL    HW266909   2.438   0.400   7.590 -1.3762 -0.0658 -0.3149
18311SOL     OW66910   1.493   7.516   4.427  0.1073 -0.4422  0.2508
18311SOL    HW166911   1.575   7.506   4.378  0.3385  0.2524  0.4914
18311SOL    HW266912   1.467   7.426   4.449  1.2526 -0.6168  0.9243
18312SOL     OW66913   1.642   4.114   6.395  0.4697 -0.9958 -0.4220
18312SOL    HW166914   1.670   4.133   6.306  0.4157  0.8605 -0.0729
18312SOL    HW266915   1.722   4.085   6.440  1.6540  2.6930  0.1391
18313SOL     OW66916   9.750   1.094   9.688 -0.2247 -0.1689 -0.7163
18313SOL    HW166917   9.657   1.081   9.705 -0.0333 -0.7969 -0.1023
18313SOL    HW266918   9.794   1.039   9.753  0.5767  0.3092 -0.8394
18314SOL     OW66919   1.049  10.132   6.600 -0.2738 -0.2839 -0.7567
18314SOL    HW166920   1.113  10.078   6.646 -0.2113  0.6050  0.2290
18314SOL    HW266921   0.987  10.158   6.667  0.7118  2.3820 -0.7676
18315SOL     OW66922   5.582   1.612   4.952 -0.4356  0.1128 -0.1188
18315SOL    HW166923   5.529   1.691   4.963  0.5056  0.8607 -0.8012
18315SOL    HW266924   5.518   1.542   4.939 -1.2692  0.9254 -0.4945
18316SOL     OW66925   7.816   6.524   9.533  0.2704 -0.0914 -0.0993
18316SOL    HW166926   7.817   6.491   9.623  1.0586 -0.1453 -0.1163
18316SOL    HW266927   7.806   6.619   9.542  0.5375 -0.0772  0.0547
18317SOL     OW66928  10.388   1.618   0.808 -0.0934 -0.3043 -0.2705
18317SOL    HW166929  10.434   1.657   0.882 -2.3215 -1.4517  1.8884
18317SOL    HW266930  10.435   1.537   0.790 -0.4596 -0.8644  1.1059
18318SOL     OW66931   3.767   2.269   0.304  0.0653 -0.3862 -0.2888
18318SOL    HW166932   3.680   2.298   0.276 -0.2843 -0.2172  0.9386
18318SOL    HW266933   3.822   2.347   0.296 -0.4586  0.1675  1.2482
18319SOL     OW66934   7.335   4.251   6.747  0.2277 -0.3531 -0.0688
18319SOL    HW166935   7.372   4.192   6.681 -0.5419 -0.6673 -0.2280
18319SOL    HW266936   7.404   4.260   6.812  0.5348 -1.0386 -0.2899
18320SOL     OW66937   7.956   2.160   7.445  0.1215 -0.4051  0.5546
18320SOL    HW166938   8.018   2.093   7.416 -0.0853 -0.8506  1.1034
18320SOL    HW266939   7.881   2.150   7.387 -0.4598 -1.5647  1.4416
18321SOL     OW66940   8.846   0.514   8.083 -0.2607 -0.6398  0.3326
18321SOL    HW166941   8.915   0.578   8.064  0.4732 -1.1830  1.0773
18321SOL    HW266942   8.807   0.495   7.998  0.9850 -0.8518 -0.2238
18322SOL     OW66943   9.402   7.704  10.073  0.6265  0.1885  0.3049
18322SOL    HW166944   9.366   7.788  10.103  1.6095  0.9582 -0.5849
18322SOL    HW266945   9.353   7.684   9.993  1.0467  0.4105 -0.0112
18323SOL     OW66946   6.584   5.431   0.650  0.0309  0.1292  0.1510
18323SOL    HW166947   6.678   5.429   0.664 -0.0682 -1.3404  0.7503
18323SOL    HW266948   6.554   5.506   0.701  1.0050  1.4682 -1.1509
18324SOL     OW66949   4.515   8.076   1.996  0.3780  0.1852  0.2990
18324SOL    HW166950   4.546   8.125   2.072 -0.6418  0.4622  0.5462
18324SOL    HW266951   4.460   8.138   1.948 -0.7626 -0.6392  0.5025
18325SOL     OW66952   4.078   1.418   6.902  0.2768  0.0241  0.2618
18325SOL    HW166953   4.128   1.451   6.827 -1.7990  2.2951 -0.2434
18325SOL    HW266954   4.094   1.481   6.971 -0.3868 -0.2605  0.6869
18326SOL     OW66955   5.583   1.863   7.447  0.0679 -0.1537 -0.1106
18326SOL    HW166956   5.565   1.771   7.430 -1.0096  0.3396 -1.8911
18326SOL    HW266957   5.606   1.900   7.362  1.0230  1.1367  0.6541
18327SOL     OW66958  10.167   9.500   9.094 -0.0985 -0.0787  0.0303
18327SOL    HW166959  10.188   9.592   9.112  0.3662  0.1068 -1.3579
18327SOL    HW266960  10.092   9.504   9.034 -2.6247 -0.7039  2.8656
18328SOL     OW66961   1.351   3.064   2.426  0.4440 -0.1079 -0.2226
18328SOL    HW166962   1.436   3.103   2.404  0.3830 -0.8498 -1.9113
18328SOL    HW266963   1.290   3.138   2.425  0.6129  0.0323 -1.7208
18329SOL     OW66964   2.795   6.450   8.923 -0.4419 -0.2792  0.0240
18329SOL    HW166965   2.728   6.472   8.859 -0.6363 -0.9170 -0.0028
18329SOL    HW266966   2.794   6.354   8.927 -0.1335 -0.2643  0.6622
18330SOL     OW66967   4.103   2.309   9.807  0.3436 -0.0228  0.4331
18330SOL    HW166968   4.122   2.216   9.816  2.1292  0.2366 -0.2311
18330SOL    HW266969   4.058   2.317   9.723  2.7706 -0.0198 -0.9647
18331SOL     OW66970   0.459   8.602   3.919  0.2069  0.1682  0.1919
18331SOL    HW166971   0.505   8.633   3.996 -0.3794  1.6643 -0.0160
18331SOL    HW266972   0.517   8.622   3.846  1.4595 -2.6455  0.2838
18332SOL     OW66973   3.426   7.764   2.958  0.2230  0.3860 -0.6251
18332SOL    HW166974   3.460   7.788   3.044  1.1432  1.7868 -1.3239
18332SOL    HW266975   3.504   7.738   2.909 -0.4087 -1.2947 -0.7809
18333SOL     OW66976  10.078   4.318   9.408 -0.6687  0.1100 -0.1122
18333SOL    HW166977  10.078   4.227   9.378 -0.9022 -0.1675  0.7059
18333SOL    HW266978   9.986   4.337   9.423 -0.4760 -0.1149  1.4681
18334SOL     OW66979   6.441   8.050   1.163  0.3797 -0.3900 -0.1966
18334SOL    HW166980   6.490   8.075   1.085  0.6775 -0.7020 -0.1098
18334SOL    HW266981   6.497   7.987   1.208  1.4390  1.7315  1.6656
18335SOL     OW66982   6.978   2.191   0.783  0.2317 -0.1308 -0.0684
18335SOL    HW166983   6.965   2.110   0.733 -0.7987 -0.5001  0.7529
18335SOL    HW266984   6.890   2.228   0.790  0.6061  0.7279  0.1304
18336SOL     OW66985   6.843   4.114   5.736  0.2762 -0.8908 -0.2628
18336SOL    HW166986   6.796   4.037   5.704  1.0969 -0.9562 -1.3810
18336SOL    HW266987   6.783   4.187   5.719 -0.4639 -1.2505  0.7177
18337SOL     OW66988   4.266   5.263   8.126 -0.0097  0.0293 -0.1445
18337SOL    HW166989   4.179   5.294   8.151 -0.9188 -1.7790 -0.8774
18337SOL    HW266990   4.252   5.173   8.097  2.0660 -0.1978 -0.6088
18338SOL     OW66991   5.063   8.764   9.467  0.4173 -0.6043 -0.2544
18338SOL    HW166992   5.018   8.694   9.418 -1.0871 -0.7589  1.2754
18338SOL    HW266993   5.156   8.744   9.456  0.2283 -0.2840 -3.5151
18339SOL     OW66994   0.946   9.953   0.096 -0.0267  0.3251  0.2899
18339SOL    HW166995   1.007   9.879   0.094  1.0257  1.1553  0.5615
18339SOL    HW266996   0.888   9.935   0.171  0.8169  0.2315  0.9337
18340SOL     OW66997   3.472   6.031   8.677  0.3307 -0.9183  0.2568
18340SOL    HW166998   3.468   5.965   8.607  0.0849  0.1620 -0.7838
18340SOL    HW266999   3.529   6.099   8.642 -2.9996  1.6497 -0.7183
18341SOL     OW67000   4.386  10.155   5.629 -0.4096  0.3205  0.3113
18341SOL    HW167001   4.338  10.218   5.574  1.1368  2.1138  0.8785
18341SOL    HW267002   4.320  10.118   5.687 -1.4635  1.0472 -0.3785
18342SOL     OW67003   4.940   1.280   9.904  0.5244 -0.1168 -0.7173
18342SOL    HW167004   4.955   1.354   9.963  1.0774  0.3641 -1.4320
18342SOL    HW267005   5.024   1.233   9.903 -0.1387 -1.3908  0.5618
18343SOL     OW67006   2.029   2.533   5.562  0.2679 -0.2323  0.5276
18343SOL    HW167007   2.062   2.534   5.652  0.0554  0.1190  0.6049
18343SOL    HW267008   2.087   2.472   5.516  0.8555  0.1673  0.7224
18344SOL     OW67009   4.227   1.994   4.112  0.5819 -0.3787 -0.0479
18344SOL    HW167010   4.174   2.067   4.144  1.2173 -0.2355  0.6955
18344SOL    HW267011   4.164   1.922   4.102 -0.1434  0.3645 -1.2208
18345SOL     OW67012  10.237   0.039   1.783  0.0167  0.1941 -0.3670
18345SOL    HW167013  10.251   0.132   1.803 -2.8597  1.4115 -3.1019
18345SOL    HW267014  10.177   0.009   1.852  0.3844  0.5645  0.1217
18346SOL     OW67015   2.897  10.327   2.134 -0.0231 -0.4593  0.2366
18346SOL    HW167016   2.975  10.382   2.127  0.8065 -1.5174  0.7281
18346SOL    HW267017   2.827  10.377   2.092  1.1989  0.0096 -1.3242
18347SOL     OW67018   8.844   3.255   5.836 -0.3628 -0.3929  0.3243
18347SOL    HW167019   8.886   3.197   5.772 -1.2682 -0.1476 -0.5163
18347SOL    HW267020   8.912   3.270   5.902  0.5572 -0.7676 -0.4985
18348SOL     OW67021   0.741   0.587   9.577 -0.2360 -0.1625 -0.1953
18348SOL    HW167022   0.646   0.596   9.588 -0.2041 -0.7143  0.5799
18348SOL    HW267023   0.761   0.639   9.499 -1.1518  0.0878 -0.2724
18349SOL     OW67024   2.597   2.385   4.977 -0.0529 -0.1119 -0.0900
18349SOL    HW167025   2.609   2.290   4.978  2.4701  0.1636  0.0434
18349SOL    HW267026   2.509   2.398   5.014 -0.3856 -2.3562  0.0478
18350SOL     OW67027   6.666   5.594   6.516  0.0730 -0.2114 -0.9279
18350SOL    HW167028   6.699   5.665   6.570 -0.2219 -0.5305 -0.3188
18350SOL    HW267029   6.649   5.523   6.578  1.6879 -1.3122 -1.6614
18351SOL     OW67030   2.609   5.367   4.248 -0.2631 -0.0677  0.0280
18351SOL    HW167031   2.524   5.409   4.262  0.5499  1.4307  0.7919
18351SOL    HW267032   2.650   5.367   4.335  0.4316 -0.9727 -0.2816
18352SOL     OW67033   2.134  10.030   3.120  0.0257  0.3565  0.2082
18352SOL    HW167034   2.220  10.033   3.163 -0.8217  0.1415  2.0015
18352SOL    HW267035   2.091   9.954   3.160 -0.7425  0.0384 -1.1871
18353SOL     OW67036   7.711   4.043   6.306  0.3000  0.1042 -0.2203
18353SOL    HW167037   7.792   4.081   6.340 -0.2579  1.0078  0.1302
18353SOL    HW267038   7.673   4.111   6.251 -0.6575  0.0369  0.3290
18354SOL     OW67039   9.998   1.790   9.566 -0.7385  0.1872  0.5739
18354SOL    HW167040   9.997   1.722   9.633 -0.7848  0.2529  0.6402
18354SOL    HW267041   9.914   1.836   9.578 -0.5129  0.5368  0.8178
18355SOL     OW67042   9.261   9.292   4.412  0.2464 -0.4966  0.2017
18355SOL    HW167043   9.242   9.380   4.378  0.2986 -0.0902  1.1985
18355SOL    HW267044   9.235   9.233   4.341 -0.1627  0.2998 -0.3269
18356SOL     OW67045   5.445   6.759   6.397 -0.4428  0.3843  0.0656
18356SOL    HW167046   5.390   6.826   6.357  2.1058  1.6344 -1.6325
18356SOL    HW267047   5.469   6.797   6.482 -1.7755  0.0128  0.6379
18357SOL     OW67048   0.829   8.523   5.641  0.1416 -0.2886  0.0817
18357SOL    HW167049   0.841   8.432   5.670 -0.1352 -1.5786 -3.3791
18357SOL    HW267050   0.755   8.519   5.580 -0.1627  2.3826  0.1564
18358SOL     OW67051   1.236   7.357   8.650 -0.1235  0.2709  0.1204
18358SOL    HW167052   1.244   7.270   8.611 -1.2978  0.2745 -0.1484
18358SOL    HW267053   1.145   7.382   8.635 -0.9880 -0.1233  3.6376
18359SOL     OW67054  10.332   3.185   2.306 -0.0850 -0.0634 -0.2636
18359SOL    HW167055  10.403   3.227   2.257 -0.7522 -1.2305 -2.3514
18359SOL    HW267056  10.322   3.099   2.265 -3.5437  0.5097 -0.8997
18360SOL     OW67057   5.652   8.772   3.186 -0.1374  0.2493  0.1828
18360SOL    HW167058   5.596   8.848   3.203 -1.4021 -0.4219 -0.7691
18360SOL    HW267059   5.654   8.764   3.091 -0.9937 -1.5550  0.2693
18361SOL     OW67060   6.636   2.474   7.958 -0.3943 -0.0953  0.5376
18361SOL    HW167061   6.718   2.443   7.919 -0.5135  1.1720 -0.7938
18361SOL    HW267062   6.658   2.492   8.049  0.5576 -0.6577  0.4321
18362SOL     OW67063   1.898  10.325   0.434  0.4097  0.3252 -0.5593
18362SOL    HW167064   1.906  10.270   0.512 -0.9197  0.8815  0.0021
18362SOL    HW267065   1.891  10.263   0.361  0.4055 -0.2205 -0.1040
18363SOL     OW67066   7.113   1.379   9.870  0.1525 -0.1668 -0.0866
18363SOL    HW167067   7.104   1.469   9.840  0.7619  0.2067  0.8340
18363SOL    HW267068   7.077   1.327   9.798 -0.0400  0.7914 -0.7051
18364SOL     OW67069   0.032   5.596   9.723  0.0139 -0.4496 -0.4089
18364SOL    HW167070   0.030   5.583   9.628 -0.3592  0.9904 -0.6101
18364SOL    HW267071   0.124   5.612   9.743  0.1615 -1.1925 -0.4471
18365SOL     OW67072   5.447   6.930   7.524 -0.3377  0.8387 -0.9691
18365SOL    HW167073   5.397   6.921   7.443  0.3530 -0.1734 -1.2988
18365SOL    HW267074   5.416   6.859   7.580  0.8079  0.1094 -1.2334
18366SOL     OW67075   1.358   8.713   4.304 -0.1730  0.7296 -0.4360
18366SOL    HW167076   1.364   8.735   4.397 -0.6539 -1.4840  0.1843
18366SOL    HW267077   1.424   8.768   4.262  1.4855  0.3847  1.5155
18367SOL     OW67078   9.187   5.841   1.346 -0.3326 -0.8569 -0.1075
18367SOL    HW167079   9.136   5.922   1.345  2.0671  0.7629  0.5437
18367SOL    HW267080   9.277   5.869   1.361  0.7923 -3.5733 -1.1023
18368SOL     OW67081   3.624   0.322   0.110 -0.1475  0.2817 -0.2358
18368SOL    HW167082   3.577   0.327   0.026  0.0311  0.5205 -0.3219
18368SOL    HW267083   3.682   0.398   0.110 -0.0658  0.2216  0.0579
18369SOL     OW67084   8.968   7.051   6.770 -0.1501 -0.4156  0.8558
18369SOL    HW167085   8.945   7.075   6.681 -1.0412  0.0192  1.1870
18369SOL    HW267086   8.885   7.025   6.810 -0.3898  2.4131  2.4816
18370SOL     OW67087   4.752   5.129   8.496  0.3621 -0.4604  0.1672
18370SOL    HW167088   4.714   5.211   8.465 -0.8882 -1.0280  0.1238
18370SOL    HW267089   4.676   5.074   8.515  1.1613 -1.1350  1.4807
18371SOL     OW67090   4.916   1.305   8.660 -0.7074  0.1998 -0.4824
18371SOL    HW167091   4.907   1.253   8.580 -0.0351 -0.1510 -0.3386
18371SOL    HW267092   4.875   1.389   8.639  0.1318  0.3842 -1.4595
18372SOL     OW67093   4.942   0.019   8.600  0.5847  0.1172 -0.3325
18372SOL    HW167094   4.997  -0.025   8.664  0.1890 -0.0116 -0.0725
18372SOL    HW267095   4.941  -0.040   8.525  1.7720  0.6866 -0.8099
18373SOL     OW67096   0.464   4.252   0.593  0.1520  0.0805 -0.2816
18373SOL    HW167097   0.463   4.263   0.688  0.2735  0.3552 -0.3119
18373SOL    HW267098   0.374   4.228   0.570  0.4868 -1.7458  0.1086
18374SOL     OW67099   2.946   8.661   3.274 -0.3255  0.6099  0.4107
18374SOL    HW167100   2.866   8.707   3.296 -1.1310 -1.5224  2.3495
18374SOL    HW267101   3.003   8.674   3.350  1.5682  2.7431 -1.2462
18375SOL     OW67102   4.642   1.220   7.664 -0.2746  0.2172 -0.1473
18375SOL    HW167103   4.578   1.150   7.651  0.6254 -0.1286 -3.5876
18375SOL    HW267104   4.689   1.195   7.744 -2.1879 -1.2817  0.5760
18376SOL     OW67105   9.950   1.586  10.385  0.1948 -0.2971  0.0623
18376SOL    HW167106   9.927   1.577  10.478  0.2209  0.2969  0.1305
18376SOL    HW267107  10.037   1.626  10.386 -0.3194  0.8799 -0.2182
18377SOL     OW67108  10.300   2.169   4.494  0.5958  0.1794 -0.1844
18377SOL    HW167109  10.355   2.145   4.569  0.1467 -1.6454 -0.4045
18377SOL    HW267110  10.337   2.252   4.463  0.4768  1.2661  2.3472
18378SOL     OW67111   1.050  10.007   7.074 -0.2972 -0.1457 -0.6327
18378SOL    HW167112   1.088  10.039   7.156 -3.4910  1.3603  0.4287
18378SOL    HW267113   1.126   9.982   7.021  2.0311  1.0996  1.8269
18379SOL     OW67114   2.322   7.538   1.890 -0.3480 -0.7117  0.1304
18379SOL    HW167115   2.277   7.485   1.824  0.8342  1.7923 -2.9198
18379SOL    HW267116   2.253   7.595   1.924 -0.3878  0.1944 -1.3863
18380SOL     OW67117   1.229   7.637   5.713 -0.0610 -0.4079 -0.0284
18380SOL    HW167118   1.194   7.633   5.624  0.6849  1.1810 -0.4339
18380SOL    HW267119   1.250   7.730   5.726  1.7851 -0.9364  1.0483
18381SOL     OW67120   4.987   4.442   0.251 -0.5213 -0.0579 -0.2205
18381SOL    HW167121   5.063   4.460   0.195 -0.2558 -1.0707 -0.2175
18381SOL    HW267122   4.936   4.379   0.200 -0.6233 -0.4724  0.3870
18382SOL     OW67123   2.754   9.868   8.763  0.4859  0.2492  0.1341
18382SOL    HW167124   2.832   9.906   8.723  0.6356 -0.5855 -0.3728
18382SOL    HW267125   2.760   9.774   8.744  0.1308 -0.0459  1.3845
18383SOL     OW67126   6.412   9.939   9.059 -0.3366 -0.1456  0.2938
18383SOL    HW167127   6.481   9.876   9.039  0.2086 -0.0454  1.7880
18383SOL    HW267128   6.456  10.025   9.056 -1.0367  0.2094 -1.5613
18384SOL     OW67129   7.291   1.255   6.075  0.1408 -0.4052 -0.0781
18384SOL    HW167130   7.356   1.265   6.144  0.3901  2.2514 -0.5766
18384SOL    HW267131   7.208   1.282   6.115  0.5090  2.5598 -1.0205
18385SOL     OW67132   2.487   7.081   0.329 -0.4299  0.3470 -0.1409
18385SOL    HW167133   2.408   7.034   0.305 -1.1589  1.5117 -0.0670
18385SOL    HW267134   2.507   7.050   0.417 -0.0973 -0.8450 -0.6156
18386SOL     OW67135   1.288   2.455   3.032 -0.5287  0.4640  0.4423
18386SOL    HW167136   1.291   2.523   2.965  2.2674  0.0048 -0.0096
18386SOL    HW267137   1.293   2.503   3.115  0.8302  0.8575  0.1478
18387SOL     OW67138   7.505   6.000   2.632 -0.5114  0.5154  0.4326
18387SOL    HW167139   7.488   5.975   2.723 -0.4307  0.8305  0.5358
18387SOL    HW267140   7.427   5.971   2.585 -0.0157 -0.7662  0.3894
18388SOL     OW67141   2.863   3.643   7.720  0.2097 -0.1781 -0.0034
18388SOL    HW167142   2.940   3.699   7.707  0.7410 -0.4784  1.5936
18388SOL    HW267143   2.790   3.694   7.686  0.9870  0.4955 -0.7090
18389SOL     OW67144   8.859   1.465   4.544  0.4053 -0.1653 -0.8083
18389SOL    HW167145   8.772   1.484   4.580  0.0921 -1.8711 -0.5907
18389SOL    HW267146   8.919   1.480   4.617  0.2458  0.5176 -0.8125
18390SOL     OW67147   4.331   3.683   7.443 -0.2107  0.3334 -0.0679
18390SOL    HW167148   4.376   3.759   7.480 -0.3956  0.3277  0.1660
18390SOL    HW267149   4.348   3.689   7.349  0.7088  0.0565  0.0633
18391SOL     OW67150   0.312   8.504   8.276 -0.5563  0.2696 -0.0615
18391SOL    HW167151   0.372   8.479   8.346 -0.6513  0.9671  0.2707
18391SOL    HW267152   0.369   8.529   8.203 -0.4150  1.6670  0.5061
18392SOL     OW67153   5.406   2.409   5.467  0.3054 -0.3205 -0.2211
18392SOL    HW167154   5.429   2.482   5.525 -1.0005  0.2697 -0.3866
18392SOL    HW267155   5.489   2.366   5.447  1.3625  2.0870 -1.4112
18393SOL     OW67156   0.746   9.862   7.416 -0.1984 -0.1010 -0.2791
18393SOL    HW167157   0.673   9.894   7.467  0.4315 -0.8649  1.1483
18393SOL    HW267158   0.761   9.930   7.350  0.4267  2.0598  1.9686
18394SOL     OW67159  10.168   6.241   4.034 -0.0979 -0.2937 -0.7161
18394SOL    HW167160  10.201   6.157   4.065  0.6250  0.0709 -0.4869
18394SOL    HW267161  10.185   6.302   4.106  0.1869  0.2354 -1.2280
18395SOL     OW67162   9.717   3.621   3.345  0.2878  0.4148  0.0541
18395SOL    HW167163   9.794   3.600   3.292  0.2322 -0.5889  0.3466
18395SOL    HW267164   9.652   3.653   3.282  0.6226  0.3579 -0.3219
18396SOL     OW67165   6.752   0.080   6.853 -0.7051 -0.4909  0.5411
18396SOL    HW167166   6.735   0.171   6.828 -0.2328 -0.4740  0.2725
18396SOL    HW267167   6.709   0.070   6.938  0.7231  0.4986  1.4256
18397SOL     OW67168   5.942   2.479   8.491  0.1511  0.2319  0.4401
18397SOL    HW167169   5.855   2.515   8.480 -0.0760 -0.8827 -2.0017
18397SOL    HW267170   5.939   2.434   8.576 -1.2746  1.0977  0.8744
18398SOL     OW67171   8.055   7.579   1.759  0.0202  0.2247 -0.5242
18398SOL    HW167172   8.137   7.584   1.710  1.0582 -1.2088  1.0062
18398SOL    HW267173   8.008   7.506   1.719  1.3258 -1.6386  1.1788
18399SOL     OW67174   7.465   4.034   2.178 -0.4920 -0.2280 -0.1534
18399SOL    HW167175   7.400   4.100   2.201 -0.5784 -1.1453  2.5342
18399SOL    HW267176   7.548   4.082   2.176 -0.7958  0.3047 -0.0946
18400SOL     OW67177   2.171   4.162   7.113  0.3755  0.5427  0.5066
18400SOL    HW167178   2.160   4.175   7.207  0.4096  0.4880  0.5184
18400SOL    HW267179   2.266   4.153   7.101  0.3403  0.1423  0.5220
18401SOL     OW67180   6.979   4.856   8.160 -0.0410  0.1377  0.5948
18401SOL    HW167181   7.008   4.945   8.141  1.1623 -0.2475  0.5105
18401SOL    HW267182   7.060   4.808   8.181 -0.6624 -0.9236  0.6651
18402SOL     OW67183   5.296   0.481   9.239  0.1949  0.2753 -0.0463
18402SOL    HW167184   5.381   0.453   9.273  0.7656 -0.7636 -2.1115
18402SOL    HW267185   5.315   0.515   9.152 -1.2900  1.9016  0.1967
18403SOL     OW67186   3.320   9.727   7.954 -0.0971  0.1052  0.2960
18403SOL    HW167187   3.411   9.709   7.930 -0.4865 -1.5710 -0.0746
18403SOL    HW267188   3.324   9.755   8.045  0.6963 -1.1107  0.6532
18404SOL     OW67189   2.660   1.497   0.132  0.1704  0.4408 -0.1515
18404SOL    HW167190   2.662   1.450   0.215 -0.2628  1.0228  0.1879
18404SOL    HW267191   2.747   1.536   0.124  1.1080 -1.6529 -1.1747
18405SOL     OW67192   7.683   6.944   4.352  0.2856  0.7195  0.2346
18405SOL    HW167193   7.710   6.956   4.261 -1.3855  1.5784 -0.1864
18405SOL    HW267194   7.648   7.029   4.378 -2.7790 -0.4471  0.4010
18406SOL     OW67195   6.815   7.185   4.694  0.5184  0.2701 -0.0938
18406SOL    HW167196   6.857   7.271   4.707 -0.4850  0.9231 -0.9911
18406SOL    HW267197   6.838   7.161   4.604 -0.4362  0.3033 -0.3518
18407SOL     OW67198   8.828   8.241   5.331  0.0427 -0.0578  0.0289
18407SOL    HW167199   8.908   8.244   5.383  0.0935 -1.3100  0.0546
18407SOL    HW267200   8.849   8.288   5.251  0.0401  1.6989  0.9966
18408SOL     OW67201   6.318   6.362   7.612  0.7851 -0.0319  0.3271
18408SOL    HW167202   6.318   6.346   7.518  0.3461 -1.7366  0.5764
18408SOL    HW267203   6.394   6.314   7.645  0.8281  0.3935  0.8606
18409SOL     OW67204   8.806   9.970   2.908  0.2774 -0.6880 -0.2636
18409SOL    HW167205   8.876  10.020   2.867  0.4165 -0.3338  0.4081
18409SOL    HW267206   8.848   9.924   2.981 -0.5433  1.0744  1.3935
18410SOL     OW67207   2.650   8.757   2.208  0.0797 -0.6416 -0.1290
18410SOL    HW167208   2.703   8.800   2.275 -0.0809 -0.8167  0.1141
18410SOL    HW267209   2.679   8.665   2.210 -1.1829 -1.0515  0.9787
18411SOL     OW67210   5.837   9.096   0.929 -0.2504 -0.7623  0.2310
18411SOL    HW167211   5.844   9.019   0.873 -0.4668 -1.5490  1.2452
18411SOL    HW267212   5.911   9.152   0.903  0.3255 -1.6301 -0.0458
18412SOL     OW67213   0.498   5.334   3.928  0.1424  0.7373 -0.5770
18412SOL    HW167214   0.521   5.327   4.021 -1.9678  2.2092  0.1186
18412SOL    HW267215   0.461   5.249   3.906  0.3750  0.4790  0.0065
18413SOL     OW67216   2.423   2.083   2.168 -0.0967  0.7823  0.2887
18413SOL    HW167217   2.442   2.150   2.103 -0.5301  1.5212  0.9128
18413SOL    HW267218   2.383   2.012   2.118  0.7838  0.7906 -0.4451
18414SOL     OW67219   6.448   8.779   1.701 -0.0450 -0.3418 -0.1550
18414SOL    HW167220   6.420   8.765   1.791 -0.3007  3.5378  0.5505
18414SOL    HW267221   6.368   8.770   1.649 -0.6119  0.6618  0.5091
18415SOL     OW67222   3.685   1.296   0.222  0.0197 -0.0126 -0.3320
18415SOL    HW167223   3.729   1.211   0.210  0.5012  0.3467 -1.2140
18415SOL    HW267224   3.628   1.304   0.146  0.3530  0.6777 -0.5132
18416SOL     OW67225   5.644   9.264   6.791  0.3451 -0.1892 -0.0026
18416SOL    HW167226   5.620   9.324   6.862  2.9114 -0.3640  1.1299
18416SOL    HW267227   5.646   9.178   6.833  0.4461 -0.5017 -0.6472
18417SOL     OW67228   2.090   9.793   6.989 -0.5306  0.1046  0.1060
18417SOL    HW167229   2.048   9.765   7.070 -0.5694  1.0632  0.4330
18417SOL    HW267230   2.153   9.724   6.970 -0.6995 -0.2592  0.8169
18418SOL     OW67231   5.168   9.946   8.262  0.2761 -0.7300 -0.0186
18418SOL    HW167232   5.240   9.893   8.295  0.4356 -0.5210 -0.0363
18418SOL    HW267233   5.174  10.029   8.309  0.2938 -0.5603 -0.3146
18419SOL     OW67234   4.036   6.363   4.308  0.1777  0.3330 -0.6245
18419SOL    HW167235   3.954   6.359   4.357 -0.0257  1.6966 -0.8108
18419SOL    HW267236   4.074   6.276   4.317  0.0615  0.4655  1.7834
18420SOL     OW67237   3.029   0.259   8.813 -0.5360  0.3313 -0.5395
18420SOL    HW167238   2.943   0.294   8.839 -0.1210  1.5808 -0.8133
18420SOL    HW267239   3.042   0.183   8.871 -0.1864  2.3031  2.1382
18421SOL     OW67240   4.660   1.230   2.129 -0.4654 -0.7400 -0.2119
18421SOL    HW167241   4.641   1.238   2.223 -1.5161 -1.1270 -0.3885
18421SOL    HW267242   4.717   1.154   2.123 -0.0274 -0.4532  0.1516
18422SOL     OW67243   1.232   3.520   4.959  0.2774  0.3338  0.0484
18422SOL    HW167244   1.260   3.565   5.039  2.0743 -0.0866 -0.3069
18422SOL    HW267245   1.146   3.557   4.940 -0.2576  0.3625  2.2293
18423SOL     OW67246   9.185   7.457   2.410  0.2741  0.4036 -0.5287
18423SOL    HW167247   9.106   7.407   2.390 -0.7032  1.6807  0.0555
18423SOL    HW267248   9.186   7.528   2.346 -0.8791  2.3319  1.4695
18424SOL     OW67249   7.665   0.594   9.994 -0.1840  0.6272 -0.8610
18424SOL    HW167250   7.598   0.662   9.986 -1.7754 -0.9405 -1.4949
18424SOL    HW267251   7.721   0.607   9.917 -0.2064  1.4864 -0.7389
18425SOL     OW67252   9.068   0.008   0.368 -0.2637  0.6345 -0.1638
18425SOL    HW167253   9.161   0.029   0.359 -0.3659  1.4224  0.4644
18425SOL    HW267254   9.023   0.081   0.324 -0.6295  1.8065  2.0366
18426SOL     OW67255   5.103   1.112   9.396 -0.1777  0.3573 -0.0417
18426SOL    HW167256   5.028   1.087   9.341 -0.7027 -0.8469  1.1558
18426SOL    HW267257   5.064   1.162   9.467  0.2282  0.2294  0.2723
18427SOL     OW67258   1.808   1.676   9.939 -0.1372  0.7267  0.0726
18427SOL    HW167259   1.854   1.735   9.879 -1.4034  2.1693  0.4670
18427SOL    HW267260   1.857   1.594   9.934 -0.1721  0.7871 -2.9275
18428SOL     OW67261   9.341   7.936   8.914  0.0192  0.0924  0.2563
18428SOL    HW167262   9.352   7.985   8.833 -0.6177  0.3016  0.2841
18428SOL    HW267263   9.246   7.930   8.925  0.0881 -0.8201  0.4531
18429SOL     OW67264   6.541   6.539   1.937  0.5153  0.1930 -0.1582
18429SOL    HW167265   6.626   6.583   1.941  1.8560 -2.1965 -0.6392
18429SOL    HW267266   6.518   6.538   1.843  0.8615 -0.7428 -0.2421
18430SOL     OW67267   0.456   2.676   1.198 -0.7543 -0.3945 -0.0545
18430SOL    HW167268   0.469   2.707   1.108 -0.3255 -0.2629  0.0535
18430SOL    HW267269   0.448   2.756   1.250 -2.0701 -0.4548 -0.1172
18431SOL     OW67270   1.611   9.805   3.590  0.0486 -0.0875 -0.3332
18431SOL    HW167271   1.679   9.770   3.648  2.2169  2.5224 -1.1640
18431SOL    HW267272   1.615   9.900   3.601 -2.6162  0.2585 -1.4136
18432SOL     OW67273   6.809   2.270   1.083  0.6984  0.3586  0.3250
18432SOL    HW167274   6.790   2.176   1.088  1.2389  0.2118 -0.1934
18432SOL    HW267275   6.766   2.299   1.002  0.3854  0.5948  0.5765
18433SOL     OW67276   7.222   8.281   8.512  0.4612  0.0107 -0.2005
18433SOL    HW167277   7.231   8.201   8.460  1.5411 -0.3227  0.4446
18433SOL    HW267278   7.305   8.287   8.561 -1.1034 -0.6344  2.7654
18434SOL     OW67279   8.104   7.293   8.866  0.0350 -0.1909 -0.4697
18434SOL    HW167280   8.184   7.335   8.897  0.4149 -0.1861 -1.4130
18434SOL    HW267281   8.087   7.333   8.781 -0.2066 -1.1736 -0.8931
18435SOL     OW67282   7.716   0.091   7.653 -0.2255  0.1671 -0.4048
18435SOL    HW167283   7.716  -0.004   7.668  0.5361  0.1229 -0.6644
18435SOL    HW267284   7.648   0.104   7.587  0.6898 -0.3953 -1.4979
18436SOL     OW67285   4.141   6.159   1.722  0.3649  0.7163 -0.0045
18436SOL    HW167286   4.138   6.140   1.628  0.6306 -0.9638  0.2888
18436SOL    HW267287   4.234   6.172   1.741  0.7088 -1.9420  0.5042
18437SOL     OW67288   0.207   3.361   1.507 -0.3782 -0.6216  0.1858
18437SOL    HW167289   0.202   3.345   1.413  1.1799 -0.4100  0.0318
18437SOL    HW267290   0.141   3.427   1.524 -1.5677 -1.5838 -0.5195
18438SOL     OW67291   8.011   2.859   7.736 -0.2126 -0.7055 -0.0590
18438SOL    HW167292   7.996   2.947   7.703  1.0514 -0.4202  0.0799
18438SOL    HW267293   7.927   2.815   7.725 -1.1431  0.7947  0.7977
18439SOL     OW67294   3.984   1.644   4.972  0.1284  0.0855 -0.1013
18439SOL    HW167295   3.945   1.562   4.943 -1.2141  0.6859 -0.0460
18439SOL    HW267296   4.003   1.629   5.065 -1.7939  0.4180  0.3816
18440SOL     OW67297   0.635   6.184   7.368 -0.4828 -0.3204  0.6659
18440SOL    HW167298   0.670   6.227   7.446  2.3047 -0.5959 -0.2953
18440SOL    HW267299   0.666   6.238   7.295  0.4095 -2.1603 -0.4105
18441SOL     OW67300   9.810   9.364   6.943  0.5005  0.2887  0.7263
18441SOL    HW167301   9.756   9.286   6.929  0.0550  0.2413  2.4331
18441SOL    HW267302   9.799   9.416   6.864  1.9024 -1.9805 -1.0931
18442SOL     OW67303   3.500   6.640   4.202  0.3593  0.2589  0.4301
18442SOL    HW167304   3.522   6.595   4.284  0.7892 -0.7156 -0.2026
18442SOL    HW267305   3.406   6.657   4.208  0.1403 -0.9432  0.5834
18443SOL     OW67306   7.095   7.815   1.547 -0.4182  0.0995  0.4223
18443SOL    HW167307   7.115   7.908   1.561  0.7658  0.0606 -0.8449
18443SOL    HW267308   7.138   7.770   1.621  0.3302  0.4329  0.1961
18444SOL     OW67309   7.821   6.874   0.352 -0.2634 -0.2003 -0.2939
18444SOL    HW167310   7.836   6.960   0.313 -0.5486  0.0033  0.0338
18444SOL    HW267311   7.782   6.893   0.438 -0.6051 -0.6638 -0.3413
18445SOL     OW67312   3.888   2.965   7.598  0.1037  0.6386 -0.0865
18445SOL    HW167313   3.958   3.012   7.642  0.7214 -0.3086 -0.0183
18445SOL    HW267314   3.909   2.872   7.612 -1.8623  0.3162  1.0479
18446SOL     OW67315   5.199   5.205   7.110 -0.5092 -0.2284 -0.5049
18446SOL    HW167316   5.263   5.241   7.172  0.1378 -0.8029 -0.8250
18446SOL    HW267317   5.228   5.237   7.025 -1.0860  0.1178 -0.5749
18447SOL     OW67318   3.125   8.899   7.380 -0.1772 -0.2191  0.2105
18447SOL    HW167319   3.176   8.935   7.452  0.9844 -1.3946  0.0217
18447SOL    HW267320   3.049   8.859   7.422 -0.4021  0.5921  0.6029
18448SOL     OW67321   2.899   3.927   3.034 -0.0100  0.4428  0.5359
18448SOL    HW167322   2.983   3.920   2.990  0.4122  2.2997  0.9232
18448SOL    HW267323   2.899   3.856   3.098  1.0245  0.0858  0.1621
18449SOL     OW67324   1.122   5.542   2.743 -0.0440  0.1535  0.0632
18449SOL    HW167325   1.043   5.535   2.796  0.2066 -0.2712  0.3924
18449SOL    HW267326   1.140   5.452   2.716  1.8573 -0.2241  2.2847
18450SOL     OW67327   0.683   9.197   0.794 -0.1913 -0.0865 -0.3793
18450SOL    HW167328   0.638   9.122   0.832 -0.8298  0.5664  0.1763
18450SOL    HW267329   0.661   9.270   0.851 -1.0881  0.8993 -1.9186
18451SOL     OW67330   9.854   7.880   1.432  0.0743  0.5854 -0.0210
18451SOL    HW167331   9.805   7.961   1.449  0.7231  0.8313  0.7340
18451SOL    HW267332   9.914   7.873   1.506  0.4043 -0.3044 -0.3686
18452SOL     OW67333   1.655   6.775   9.936 -0.4799 -0.4306 -0.3018
18452SOL    HW167334   1.745   6.795   9.913  0.2746 -2.9667  0.1650
18452SOL    HW267335   1.610   6.860   9.935  1.9337  0.9182 -0.3001
18453SOL     OW67336   5.920   4.459   2.560  0.3338  0.5524 -0.0493
18453SOL    HW167337   5.974   4.382   2.544  0.6826  0.0465  2.9168
18453SOL    HW267338   5.831   4.425   2.571  0.0092  0.9397 -1.3157
18454SOL     OW67339   8.910  10.255   4.167 -0.0439 -0.3254  0.0853
18454SOL    HW167340   8.842  10.199   4.204 -0.3743  0.3382  0.5121
18454SOL    HW267341   8.867  10.340   4.153  0.7398  0.1693  0.5629
18455SOL     OW67342   4.865   8.333   8.186  0.4817  0.1905 -0.6157
18455SOL    HW167343   4.851   8.422   8.153  0.5089 -0.3595 -2.1894
18455SOL    HW267344   4.825   8.276   8.120  0.4379 -0.9772  0.3770
18456SOL     OW67345   1.836   0.609   9.508  0.2199 -0.1795  0.2038
18456SOL    HW167346   1.928   0.634   9.503  1.1687 -3.3576 -0.3038
18456SOL    HW267347   1.816   0.574   9.422 -0.8774 -1.3211  0.8933
18457SOL     OW67348   4.042   0.705   9.212 -0.3815  0.2351  0.0617
18457SOL    HW167349   4.109   0.766   9.244  0.1167 -0.2244 -0.0817
18457SOL    HW267350   3.970   0.712   9.274 -0.3396  0.9812  0.0393
18458SOL     OW67351   6.769   3.978   0.479 -0.0421  0.2600 -0.1254
18458SOL    HW167352   6.719   3.959   0.399  1.8464 -0.5886 -1.1970
18458SOL    HW267353   6.854   4.009   0.447  0.9337 -0.5493  1.5347
18459SOL     OW67354   1.482   8.173   0.670 -0.2049 -0.3615 -0.2184
18459SOL    HW167355   1.444   8.158   0.583 -0.6488  0.0974 -0.1055
18459SOL    HW267356   1.528   8.091   0.690 -0.8030 -0.7768 -0.5212
18460SOL     OW67357   1.540   4.815   8.717  0.5019  0.2506 -0.1719
18460SOL    HW167358   1.460   4.863   8.694  0.7610  0.0723 -1.5339
18460SOL    HW267359   1.611   4.877   8.701  0.7905 -0.3438 -1.2749
18461SOL     OW67360   4.512   2.231   0.218 -0.0449  0.1605  0.4242
18461SOL    HW167361   4.547   2.320   0.229 -0.1028  0.1806  0.4475
18461SOL    HW267362   4.490   2.226   0.125  0.2234  0.0726  0.3658
18462SOL     OW67363   4.557   5.713   0.196  0.3810 -0.0714 -0.2089
18462SOL    HW167364   4.495   5.720   0.269 -0.6887 -2.5444 -0.7830
18462SOL    HW267365   4.601   5.629   0.211  2.4732  0.8769 -0.7188
18463SOL     OW67366   9.018   9.293  10.260  0.0656 -0.3600 -0.0981
18463SOL    HW167367   9.090   9.353  10.242  1.9394 -2.7038 -0.9315
18463SOL    HW267368   9.043   9.249  10.341 -1.1927 -0.2191  0.4066
18464SOL     OW67369   0.123   5.167   4.710  0.4129  0.0110 -0.4444
18464SOL    HW167370   0.130   5.249   4.663  0.6099 -0.8527 -1.9965
18464SOL    HW267371   0.204   5.120   4.691  0.1819 -0.6712  0.1626
18465SOL     OW67372   2.057   8.162   6.353  0.3528 -0.0612  0.6975
18465SOL    HW167373   1.963   8.147   6.339  0.0546  0.0793  2.3981
18465SOL    HW267374   2.076   8.119   6.436  1.4191  1.4235  1.2587
18466SOL     OW67375   9.948   7.730   8.669  0.3866  0.1459 -0.2379
18466SOL    HW167376   9.996   7.657   8.708  2.1769  2.1899  1.6351
18466SOL    HW267377   9.856   7.705   8.678  0.8732 -1.1170  1.9574
18467SOL     OW67378   1.992   9.659   7.886 -0.1044  0.6764 -0.4479
18467SOL    HW167379   1.919   9.677   7.945 -0.7545  0.8894 -1.2884
18467SOL    HW267380   2.038   9.743   7.878 -0.6369  0.9257 -1.0449
18468SOL     OW67381   6.787   7.281   9.725 -0.1913  0.1762  0.0497
18468SOL    HW167382   6.728   7.242   9.789  0.1813  0.7988  0.8009
18468SOL    HW267383   6.811   7.366   9.763  0.1163  0.5260 -0.8760
18469SOL     OW67384   7.131   9.979   8.639  0.0755  0.9297  0.2740
18469SOL    HW167385   7.105  10.050   8.697 -2.6542 -0.1060  0.4310
18469SOL    HW267386   7.131   9.901   8.694  0.0166  0.3363 -0.5426
18470SOL     OW67387   0.921   4.005   3.883 -0.3279  0.1117  0.5673
18470SOL    HW167388   0.990   3.968   3.938  0.2403 -0.2963 -0.3976
18470SOL    HW267389   0.967   4.063   3.822 -0.7784 -0.3778 -0.2703
18471SOL     OW67390   6.167   8.436   2.705 -0.1128  0.2174  0.3160
18471SOL    HW167391   6.205   8.437   2.793  0.7132  2.0258 -0.0050
18471SOL    HW267392   6.112   8.514   2.702 -2.1828 -1.1783  0.0263
18472SOL     OW67393   4.999   9.444   6.410 -0.1067 -0.0572 -0.1279
18472SOL    HW167394   4.987   9.539   6.416 -1.4965 -0.2892  1.6299
18472SOL    HW267395   5.059   9.432   6.336  0.9540  2.2493  0.2652
18473SOL     OW67396   9.095   5.415   9.095 -0.2162 -0.5895 -0.2001
18473SOL    HW167397   9.139   5.497   9.118 -0.6823 -0.9578  2.3472
18473SOL    HW267398   9.109   5.405   9.001  0.9266  1.7572 -0.3402
18474SOL     OW67399   6.557   0.457   4.716 -0.7465 -0.0630 -0.1104
18474SOL    HW167400   6.490   0.390   4.702 -1.1306  0.0467  1.1428
18474SOL    HW267401   6.510   0.540   4.706 -1.4253  0.0580  3.2192
18475SOL     OW67402   4.716   2.090   6.008 -0.3752  0.2958  0.4247
18475SOL    HW167403   4.699   2.181   6.033 -0.7450  0.7313 -1.2944
18475SOL    HW267404   4.766   2.096   5.927  0.1545 -1.0419  0.6302
18476SOL     OW67405   8.107   2.897   8.001 -0.3264 -0.0022  0.2408
18476SOL    HW167406   8.043   2.937   8.061  0.1218 -0.2316  0.8839
18476SOL    HW267407   8.073   2.917   7.914 -1.4406 -0.3652  0.5657
18477SOL     OW67408   9.087   0.474   3.974  0.1697 -0.3004 -0.0724
18477SOL    HW167409   9.129   0.418   4.040  0.6725 -1.2060 -1.1346
18477SOL    HW267410   9.158   0.503   3.918 -0.2299  0.6325 -0.1198
18478SOL     OW67411   6.811   1.704   1.164 -0.2485 -0.2810 -0.2092
18478SOL    HW167412   6.740   1.644   1.140  1.0312 -2.6989  1.5485
18478SOL    HW267413   6.877   1.690   1.096 -0.9052  1.0728 -1.1738
18479SOL     OW67414   8.150   8.374   3.350  0.1530  0.6927 -0.1565
18479SOL    HW167415   8.073   8.396   3.402  1.1751  0.7913  1.3853
18479SOL    HW267416   8.166   8.282   3.369  1.3242  1.0715  0.8239
18480SOL     OW67417  10.240   0.375   8.167  0.2817 -0.0796 -0.1372
18480SOL    HW167418  10.191   0.414   8.239  1.0609  0.1048  0.2967
18480SOL    HW267419  10.172   0.343   8.107 -0.3988 -1.1487  1.1484
18481SOL     OW67420   6.624   0.602   7.377 -0.1375  0.5210 -0.3506
18481SOL    HW167421   6.614   0.577   7.469  2.4362  0.3540 -0.0444
18481SOL    HW267422   6.537   0.589   7.339 -0.7422 -1.5689  1.5368
18482SOL     OW67423   8.740   7.846   7.566 -0.0198  0.0727  0.1629
18482SOL    HW167424   8.770   7.770   7.517 -1.3394  0.5299 -1.4492
18482SOL    HW267425   8.647   7.853   7.544 -0.7275  0.2387  2.8836
18483SOL     OW67426   1.786   8.880   8.730 -0.3919  0.7044 -0.0405
18483SOL    HW167427   1.713   8.869   8.668 -1.9660 -1.4240  1.9993
18483SOL    HW267428   1.810   8.790   8.754  0.5424  1.4526  1.9817
18484SOL     OW67429   3.597   0.422   2.819 -0.3642  0.0038 -0.0544
18484SOL    HW167430   3.528   0.439   2.883 -0.7520  0.7241 -0.6596
18484SOL    HW267431   3.551   0.397   2.739  0.0951 -0.0598 -0.3049
18485SOL     OW67432   0.021   4.833   6.440 -0.0660  0.0942 -0.3992
18485SOL    HW167433  -0.044   4.868   6.500  0.9324  0.7223  0.3324
18485SOL    HW267434   0.010   4.885   6.360 -0.6562 -0.0105 -0.3943
18486SOL     OW67435   6.553   4.939   7.089  0.0136 -0.7311  0.1607
18486SOL    HW167436   6.639   4.971   7.060 -0.1920 -0.3215 -0.0012
18486SOL    HW267437   6.523   4.884   7.017 -0.7852  0.8035 -0.7235
18487SOL     OW67438   6.355   9.690  10.343 -0.0415 -0.5943 -0.0843
18487SOL    HW167439   6.428   9.738  10.302  0.9835 -1.1448  1.0374
18487SOL    HW267440   6.394   9.648  10.420 -1.8351  0.1285  1.2775
18488SOL     OW67441   8.963   4.931   7.041  0.1567  0.1511 -0.2292
18488SOL    HW167442   8.915   5.001   6.998 -0.1166 -0.7949 -1.5056
18488SOL    HW267443   9.047   4.928   6.995 -0.5663 -1.6189 -1.5491
18489SOL     OW67444   7.694   5.247  10.311  0.1378  0.4762 -0.5751
18489SOL    HW167445   7.700   5.249  10.406 -0.9800 -0.4302 -0.4562
18489SOL    HW267446   7.694   5.153  10.289  3.2375  0.6442 -1.7018
18490SOL     OW67447   2.237   9.004   6.644 -0.2825  0.0055 -0.1339
18490SOL    HW167448   2.327   8.998   6.612 -0.2213 -0.6902  0.1548
18490SOL    HW267449   2.197   8.921   6.620 -1.0978  0.6084 -0.9578
18491SOL     OW67450   7.727   9.236   7.738  0.0773 -0.6340  0.2001
18491SOL    HW167451   7.644   9.191   7.725  0.1271 -0.9232  0.8439
18491SOL    HW267452   7.778   9.176   7.793  1.1796 -1.0197 -1.1935
18492SOL     OW67453   4.662   2.537   8.367 -0.2899  0.1585 -0.6523
18492SOL    HW167454   4.644   2.606   8.431  1.3279  0.9135 -0.9521
18492SOL    HW267455   4.588   2.540   8.307 -0.0794  1.9236 -0.8843
18493SOL     OW67456   9.206   8.360   9.440 -0.2731  0.4457 -0.1592
18493SOL    HW167457   9.263   8.312   9.500 -1.2947 -2.0737 -1.0981
18493SOL    HW267458   9.141   8.401   9.497 -0.3291 -0.6222  0.5671
18494SOL     OW67459   7.742   8.848   3.928 -0.9897  0.3067 -0.3337
18494SOL    HW167460   7.794   8.836   3.849  0.9142  1.2489  0.7042
18494SOL    HW267461   7.757   8.939   3.954 -0.9524 -0.1741  1.5072
18495SOL     OW67462   7.558   6.350   9.098 -0.6615 -0.0179 -0.1601
18495SOL    HW167463   7.627   6.357   9.032 -1.9843 -1.0191 -1.6967
18495SOL    HW267464   7.573   6.264   9.139 -1.8062 -0.9056 -1.5102
18496SOL     OW67465  10.024   0.505   4.711 -0.3107  0.2559  0.6852
18496SOL    HW167466  10.020   0.412   4.730  1.0860  0.2866  1.2007
18496SOL    HW267467  10.019   0.548   4.796 -2.2626  0.7472  0.3863
18497SOL     OW67468   4.331   8.583   3.973 -0.2338  0.0557 -0.2362
18497SOL    HW167469   4.314   8.657   3.915  0.8588  1.3418  1.0003
18497SOL    HW267470   4.255   8.580   4.031  1.4458  3.0336  2.4697
18498SOL     OW67471   4.478   2.867   1.472  0.1832  0.0494 -0.5698
18498SOL    HW167472   4.407   2.805   1.490 -0.9526  0.9950 -1.5544
18498SOL    HW267473   4.491   2.860   1.377  1.9571 -0.6512 -0.3008
18499SOL     OW67474   8.406   0.771   6.746 -0.5066 -0.3327  0.0140
18499SOL    HW167475   8.488   0.763   6.795  0.2540  0.1276 -1.1262
18499SOL    HW267476   8.341   0.728   6.801  0.5496 -0.9587  0.8247
18500SOL     OW67477   8.422   9.270   8.838  0.1646 -0.3982  0.1514
18500SOL    HW167478   8.384   9.187   8.809  1.2839 -0.9548  0.2116
18500SOL    HW267479   8.494   9.285   8.777 -0.6840  1.0828 -0.5127
18501SOL     OW67480   4.530   9.177   5.009 -0.4035 -0.0475 -0.4270
18501SOL    HW167481   4.475   9.250   4.984  0.0970  0.8839  1.0654
18501SOL    HW267482   4.583   9.159   4.931 -0.6868  1.0330 -0.8867
18502SOL     OW67483   2.636   4.376   7.988 -0.0259  0.6403  0.3447
18502SOL    HW167484   2.633   4.303   8.051 -0.8541  1.8670  1.8015
18502SOL    HW267485   2.575   4.350   7.919 -1.2871  0.4343  1.4694
18503SOL     OW67486   4.002   9.599   9.443  0.6647  0.1798  0.2327
18503SOL    HW167487   3.941   9.566   9.377  0.5300 -1.9176  1.3088
18503SOL    HW267488   3.958   9.675   9.481 -0.5005 -0.2583 -0.1929
18504SOL     OW67489   6.160   4.399   8.518 -0.2209  0.5869  0.6195
18504SOL    HW167490   6.190   4.477   8.564  2.2759  0.2590 -0.3188
18504SOL    HW267491   6.163   4.330   8.583  0.2195  0.7443  0.7706
18505SOL     OW67492   9.055   0.301   7.489 -0.2158  0.3270  0.8160
18505SOL    HW167493   9.065   0.396   7.476  2.2576  0.3046  2.0322
18505SOL    HW267494   9.123   0.262   7.434  0.4990 -0.5663  2.2910
18506SOL     OW67495   9.664   3.686  10.143  0.3282 -0.5698  0.2062
18506SOL    HW167496   9.716   3.712  10.067  1.2449 -0.2790  0.9194
18506SOL    HW267497   9.598   3.626  10.107  0.0335  0.4181 -0.9962
18507SOL     OW67498   2.510  10.135   0.377  0.1308  0.1095  0.6427
18507SOL    HW167499   2.552  10.142   0.292  0.5069  1.1139  0.9008
18507SOL    HW267500   2.573  10.088   0.432  0.4211  0.5853  0.7137
18508SOL     OW67501   7.569   9.850   4.036  0.5333 -0.2057 -0.4809
18508SOL    HW167502   7.592   9.766   4.076  0.1995 -0.2221 -0.3250
18508SOL    HW267503   7.604   9.916   4.095 -0.7506 -0.2188  0.3201
18509SOL     OW67504   0.429   6.960   8.112 -0.2202 -0.9451 -0.1367
18509SOL    HW167505   0.342   6.929   8.133 -0.2639 -0.4304  0.4772
18509SOL    HW267506   0.448   7.026   8.179 -0.7278  1.4412 -2.2012
18510SOL     OW67507   4.064   2.334   5.762 -0.5511 -0.5123 -0.0895
18510SOL    HW167508   4.071   2.429   5.773  2.7051 -0.8149  1.9174
18510SOL    HW267509   3.976   2.313   5.792 -1.4588  1.8481 -0.8124
18511SOL     OW67510   2.099   2.738   0.811  0.0886  0.4018  0.0547
18511SOL    HW167511   2.072   2.727   0.720  0.8660  0.2631 -0.1583
18511SOL    HW267512   2.106   2.833   0.823  1.2757  0.3751 -0.4080
18512SOL     OW67513   8.909   2.116   5.710  0.3433 -0.4517  0.6714
18512SOL    HW167514   8.852   2.178   5.755 -0.0595 -1.2681  1.3300
18512SOL    HW267515   8.959   2.169   5.649 -2.4082  0.0962 -1.2943
18513SOL     OW67516   7.660   8.654   7.375  0.4778  0.2457 -0.1160
18513SOL    HW167517   7.586   8.636   7.432 -1.5137  2.1736 -1.9045
18513SOL    HW267518   7.734   8.666   7.435 -0.8719 -0.5818  1.8141
18514SOL     OW67519   2.212   3.907   6.199  0.2319 -0.2177  0.0846
18514SOL    HW167520   2.273   3.902   6.272  0.3647 -1.1811 -0.0739
18514SOL    HW267521   2.126   3.900   6.238  0.3320 -1.7631  0.0939
18515SOL     OW67522   1.164   7.839   9.204 -0.3679  0.2955  0.1819
18515SOL    HW167523   1.253   7.817   9.229  0.0460  1.0341 -0.5921
18515SOL    HW267524   1.109   7.776   9.251  0.6202 -0.8798 -0.2056
18516SOL     OW67525   4.982   0.960   5.494  0.4628  0.2661 -0.4945
18516SOL    HW167526   4.910   0.988   5.551  0.9543 -0.3017  0.4440
18516SOL    HW267527   4.942   0.899   5.433  0.1583 -0.1533  0.1054
18517SOL     OW67528   1.843   2.559   5.927 -0.1301 -0.2542 -0.0430
18517SOL    HW167529   1.934   2.586   5.912 -0.5173  1.6723  0.7773
18517SOL    HW267530   1.795   2.597   5.854 -0.6957  1.4321  1.1551
18518SOL     OW67531   5.422   0.126   7.592 -0.1215 -0.2307 -0.4145
18518SOL    HW167532   5.366   0.175   7.652 -0.4833 -1.6922  0.5083
18518SOL    HW267533   5.410   0.168   7.507 -1.9464  0.0435 -0.0663
18519SOL     OW67534   8.518   5.119   3.996  0.4652 -0.6109 -0.1808
18519SOL    HW167535   8.586   5.171   4.040 -1.1340  0.7926  0.7613
18519SOL    HW267536   8.555   5.030   3.992  2.1301 -0.0177  0.7720
18520SOL     OW67537   7.841   7.213   8.159  0.1613  0.3714 -0.1325
18520SOL    HW167538   7.876   7.125   8.173 -1.4044 -0.4239 -0.9489
18520SOL    HW267539   7.802   7.210   8.072 -2.3316  1.0201  0.8632
18521SOL     OW67540   3.133   9.226   6.752 -0.8259 -0.0885  0.1787
18521SOL    HW167541   3.159   9.243   6.842  1.2527 -0.1852 -0.3480
18521SOL    HW267542   3.162   9.304   6.703 -1.5329 -0.2181 -0.4669
18522SOL     OW67543   8.633   1.880   8.543 -0.0198 -0.0363 -0.4141
18522SOL    HW167544   8.714   1.931   8.539  0.1975 -0.4592 -1.8341
18522SOL    HW267545   8.662   1.789   8.546 -0.4282 -0.1397  0.9644
18523SOL     OW67546   5.121   3.453   5.579 -0.7956  0.0393  0.1169
18523SOL    HW167547   5.144   3.413   5.663 -1.3980  0.8899  0.7124
18523SOL    HW267548   5.086   3.539   5.603 -0.4557  0.5175 -1.0520
18524SOL     OW67549   0.045   7.526   1.385 -0.0816 -0.8375  0.2539
18524SOL    HW167550   0.051   7.431   1.399  0.7742 -0.7946  0.2428
18524SOL    HW267551   0.005   7.535   1.299 -1.2477 -1.1634  0.7372
18525SOL     OW67552   8.776   6.293   7.857  0.2070  0.4314  0.0407
18525SOL    HW167553   8.732   6.350   7.794  1.2338  2.1912  0.8169
18525SOL    HW267554   8.772   6.342   7.940  0.6735 -0.8902  0.8797
18526SOL     OW67555   3.124  10.040   2.278  0.2190 -0.5090 -0.1598
18526SOL    HW167556   3.080  10.037   2.193  2.9935  1.9871 -1.8752
18526SOL    HW267557   3.080  10.111   2.326  1.2650  0.9458 -1.2620
18527SOL     OW67558   9.053   4.918   3.172  0.5325 -0.4500  0.1570
18527SOL    HW167559   9.029   4.975   3.245 -0.0267  0.7566 -0.9306
18527SOL    HW267560   9.089   4.839   3.214 -2.5205 -1.1099  1.8554
18528SOL     OW67561   1.878   9.537   6.870  0.0253 -0.3160 -0.3451
18528SOL    HW167562   1.827   9.467   6.830  2.0643 -2.9613  1.3129
18528SOL    HW267563   1.818   9.577   6.933 -0.5528 -2.1838  0.3590
18529SOL     OW67564   1.972   2.438   0.601 -0.1658  0.3187  0.1560
18529SOL    HW167565   1.878   2.451   0.612 -0.0156  0.7242  1.0499
18529SOL    HW267566   2.005   2.524   0.575  0.0154  0.2729  0.2365
18530SOL     OW67567   1.964   4.952   3.907  0.0580 -0.4696  0.0334
18530SOL    HW167568   1.921   4.881   3.954  0.3144 -1.6353 -1.3980
18530SOL    HW267569   1.929   5.032   3.946 -1.1794 -1.3767  0.8589
18531SOL     OW67570   2.933   2.485   4.773 -0.5179  0.3529  0.0612
18531SOL    HW167571   3.009   2.537   4.748 -0.1411 -0.5835 -0.7661
18531SOL    HW267572   2.943   2.472   4.868 -0.4204  1.4459  0.2153
18532SOL     OW67573   4.386   9.779   4.352 -0.2868 -0.1836  0.0573
18532SOL    HW167574   4.383   9.690   4.386  0.9110 -0.4703 -0.5317
18532SOL    HW267575   4.399   9.834   4.429  1.1676 -0.7232  0.2324
18533SOL     OW67576  10.303   5.239   8.037 -0.3142  0.3094 -0.0985
18533SOL    HW167577  10.253   5.158   8.050  0.2343 -0.0007  0.0931
18533SOL    HW267578  10.394   5.214   8.051  0.0955  0.4861 -2.0896
18534SOL     OW67579   0.392   8.221   6.116 -0.5185  0.0387  0.3170
18534SOL    HW167580   0.351   8.297   6.156 -0.7494  0.5604 -0.8917
18534SOL    HW267581   0.476   8.254   6.083 -0.8498 -0.0973 -0.6780
18535SOL     OW67582   3.430   0.534   4.967 -0.1046 -0.2989 -0.0653
18535SOL    HW167583   3.483   0.566   4.893  0.2308 -2.5664 -0.8853
18535SOL    HW267584   3.354   0.593   4.968  1.4275  1.8215 -0.0948
18536SOL     OW67585   5.898   4.404   3.981  0.7258  0.7447  0.3165
18536SOL    HW167586   5.842   4.482   3.976  2.2034  1.7757 -1.1524
18536SOL    HW267587   5.908   4.376   3.890  1.0505 -0.5544  0.7385
18537SOL     OW67588   0.417   0.745   4.188  0.3170 -0.3292  0.1612
18537SOL    HW167589   0.506   0.736   4.153 -0.4543 -2.6197 -1.4067
18537SOL    HW267590   0.398   0.839   4.181  2.8113  0.3473  1.2079
18538SOL     OW67591   7.180   9.137   6.152 -0.0746 -0.0933  0.2128
18538SOL    HW167592   7.269   9.169   6.168  0.3160  0.8164 -3.1659
18538SOL    HW267593   7.125   9.215   6.156 -0.2657 -0.1840 -0.6128
18539SOL     OW67594   6.236   6.054   6.282  0.9147  0.2260 -0.2074
18539SOL    HW167595   6.330   6.074   6.283  0.4705  2.6399  0.4182
18539SOL    HW267596   6.203   6.092   6.363 -0.5285 -1.1540 -0.1162
18540SOL     OW67597   1.082   1.932   8.146 -0.1649 -0.2521 -0.1517
18540SOL    HW167598   1.097   1.858   8.086  0.6841  1.4298 -2.1365
18540SOL    HW267599   1.170   1.962   8.168 -0.4939 -0.2275  1.2102
18541SOL     OW67600  10.230   8.243   6.638 -0.2953  0.7569  0.0400
18541SOL    HW167601  10.187   8.315   6.591 -0.8669 -1.0548 -2.4642
18541SOL    HW267602  10.322   8.267   6.639 -0.2163  0.8620 -2.3245
18542SOL     OW67603   1.620   1.144   9.597 -0.5553 -0.9681 -0.0199
18542SOL    HW167604   1.631   1.130   9.503 -0.3948 -0.4891 -0.0768
18542SOL    HW267605   1.708   1.162   9.629 -0.6112 -1.1260  0.2181
18543SOL     OW67606   7.675   0.733   1.436 -0.1801 -0.5261  0.3009
18543SOL    HW167607   7.682   0.719   1.530  0.2456 -1.1119  0.1866
18543SOL    HW267608   7.676   0.645   1.398 -1.0037 -0.3218 -0.2107
18544SOL     OW67609   2.892   3.377   3.447 -0.0161 -0.5997  0.0508
18544SOL    HW167610   2.960   3.314   3.473  0.3371 -0.1911  0.1254
18544SOL    HW267611   2.813   3.323   3.437 -0.0432 -0.8654  1.4590
18545SOL     OW67612   2.478   8.538   9.987  0.3291  0.1859 -0.3636
18545SOL    HW167613   2.456   8.593  10.063  1.4197 -1.0288  0.8903
18545SOL    HW267614   2.408   8.473   9.983 -0.6604  1.2789 -1.5039
18546SOL     OW67615   0.861  10.073   6.875  0.0128  0.1039 -0.6687
18546SOL    HW167616   0.840   9.997   6.821  3.0072  0.3672 -2.4129
18546SOL    HW267617   0.921  10.039   6.942  0.1115  0.6330 -0.4838
18547SOL     OW67618   7.322  10.254   8.251  0.1444 -0.7856 -0.1324
18547SOL    HW167619   7.398  10.240   8.308 -0.1643 -0.3286  0.3971
18547SOL    HW267620   7.265  10.179   8.268 -0.2067 -0.3676  0.5939
18548SOL     OW67621   8.212   8.417   5.305  0.9172  0.6522  0.4506
18548SOL    HW167622   8.241   8.383   5.389  3.0444  1.3579  0.0791
18548SOL    HW267623   8.291   8.455   5.266 -0.4454  2.2446 -0.9412
18549SOL     OW67624   6.822   5.648   2.849 -0.3671 -0.9293 -0.0651
18549SOL    HW167625   6.842   5.554   2.855 -1.5885 -1.3675 -1.9596
18549SOL    HW267626   6.789   5.671   2.936 -1.1155 -2.5464  0.1287
18550SOL     OW67627   7.677   7.869   8.217  0.6893  0.0663 -0.5159
18550SOL    HW167628   7.686   7.909   8.130 -2.6382 -2.9690 -2.5083
18550SOL    HW267629   7.713   7.781   8.206  0.1693 -0.3867  1.1933
18551SOL     OW67630   1.675   7.333   0.969  0.0282 -0.3946  0.0013
18551SOL    HW167631   1.761   7.295   0.987  0.1608  0.4306  1.2885
18551SOL    HW267632   1.614   7.279   1.019  0.1527  0.6447  1.3573
18552SOL     OW67633   8.081   9.363   4.787 -0.5038  0.3302 -0.8371
18552SOL    HW167634   8.100   9.411   4.868 -0.8396  1.5151 -1.4395
18552SOL    HW267635   8.129   9.281   4.796  2.0536  1.7124 -0.7758
18553SOL     OW67636   6.686   0.184   7.959 -1.0402  0.1192 -0.4061
18553SOL    HW167637   6.663   0.152   8.046 -0.0568  0.4867 -0.0009
18553SOL    HW267638   6.608   0.232   7.930 -0.5137  2.1436  1.3227
18554SOL     OW67639   9.746   7.079   5.162  0.3670  0.4956  0.2486
18554SOL    HW167640   9.741   7.056   5.069  0.5429  1.0496  0.1003
18554SOL    HW267641   9.712   7.168   5.166 -0.0665  0.3108  0.7820
18555SOL     OW67642   2.925   4.513  10.272 -0.4831 -0.3935 -0.0952
18555SOL    HW167643   2.962   4.541  10.356 -0.5639  0.6951 -0.4133
18555SOL    HW267644   2.842   4.472  10.295 -0.3264 -0.4582  0.3848
18556SOL     OW67645   6.389   9.189  10.098  0.3224 -0.1868 -0.1881
18556SOL    HW167646   6.464   9.149  10.055  0.5748 -0.8533  0.8497
18556SOL    HW267647   6.420   9.276  10.123 -0.1614  0.6387 -2.2517
18557SOL     OW67648   6.895   7.411   1.735 -0.4636  0.0649 -0.0852
18557SOL    HW167649   6.895   7.436   1.642 -0.0550  3.1501  0.6472
18557SOL    HW267650   6.981   7.372   1.749  0.1121  1.0844 -0.6673
18558SOL     OW67651   9.270   2.818   2.340  0.4989  1.0233 -0.2418
18558SOL    HW167652   9.324   2.743   2.316  0.9723  0.8729  1.2146
18558SOL    HW267653   9.312   2.893   2.297 -0.0830  0.4750 -1.8565
18559SOL     OW67654   2.958   7.763   2.162  0.5587 -0.4143  0.5749
18559SOL    HW167655   2.916   7.721   2.087 -4.2985  0.9726  2.1082
18559SOL    HW267656   2.999   7.841   2.125 -0.4461 -0.5316 -0.8937
18560SOL     OW67657   1.313   2.653   2.860  0.0331 -0.4414 -0.4198
18560SOL    HW167658   1.375   2.685   2.794  2.0598 -1.0882  1.0855
18560SOL    HW267659   1.281   2.732   2.903  0.7512 -0.1373 -0.4225
18561SOL     OW67660   4.550   5.528   5.389  0.3738 -0.6427  0.4745
18561SOL    HW167661   4.511   5.464   5.448 -1.0109 -1.7184 -1.4873
18561SOL    HW267662   4.484   5.598   5.383  0.2726 -0.7822 -0.1451
18562SOL     OW67663   7.056  10.142   4.871 -0.5685 -0.2777 -0.1287
18562SOL    HW167664   7.103  10.061   4.887 -0.4248 -0.2902 -0.5768
18562SOL    HW267665   7.111  10.189   4.807 -0.9126 -0.0704 -0.2766
18563SOL     OW67666   3.850   1.420   9.532 -0.3141 -0.0296  0.2308
18563SOL    HW167667   3.845   1.512   9.560 -0.0166 -0.0092  0.2244
18563SOL    HW267668   3.863   1.425   9.437  2.6107  0.0200  0.5286
18564SOL     OW67669   2.332  10.228   9.815  0.7012 -0.5148  0.1685
18564SOL    HW167670   2.249  10.266   9.787 -0.1943 -0.8676  2.1693
18564SOL    HW267671   2.322  10.134   9.800  1.3433 -0.4271 -0.9519
18565SOL     OW67672   2.254   3.280   3.470  0.2330  0.0805  0.0166
18565SOL    HW167673   2.174   3.312   3.512  2.3091  3.1279  1.9874
18565SOL    HW267674   2.271   3.195   3.511 -1.6562 -0.4004 -0.0978
18566SOL     OW67675   1.449   2.801   4.534  0.5633  0.1137  0.4647
18566SOL    HW167676   1.368   2.791   4.584 -0.2769  0.9795 -0.6773
18566SOL    HW267677   1.490   2.879   4.569 -0.3421  1.0864 -0.5778
18567SOL     OW67678   0.822   5.370   2.207 -0.0604 -0.2222  0.0185
18567SOL    HW167679   0.789   5.313   2.137 -1.6671 -0.4529  0.9098
18567SOL    HW267680   0.768   5.449   2.202  1.6813  0.9634 -0.7492
18568SOL     OW67681   9.691   5.309   4.586  0.6184  0.3815 -0.5007
18568SOL    HW167682   9.773   5.269   4.612  0.5430  1.1185  0.9506
18568SOL    HW267683   9.651   5.339   4.668 -1.5999 -0.8867 -1.0219
18569SOL     OW67684   4.228  10.074   6.701 -0.2697 -0.7497 -0.1142
18569SOL    HW167685   4.186   9.992   6.673  0.0155 -1.4872  1.5252
18569SOL    HW267686   4.310  10.046   6.742 -0.7791  0.2394  1.6482
18570SOL     OW67687   8.843   3.066   2.676 -0.1359 -0.1919 -0.0107
18570SOL    HW167688   8.903   2.992   2.677  0.1326 -0.0105 -1.3658
18570SOL    HW267689   8.877   3.125   2.609  1.3155  2.6074  2.8905
18571SOL     OW67690   5.248   6.784   4.752  0.1259 -0.5697  0.4515
18571SOL    HW167691   5.169   6.817   4.794  0.3867  1.3140 -0.4128
18571SOL    HW267692   5.319   6.837   4.788  0.4676  0.4658 -1.5504
18572SOL     OW67693   1.473   5.340   7.762 -0.2853 -0.3210  0.0323
18572SOL    HW167694   1.562   5.303   7.765 -0.4874 -1.0951 -2.2561
18572SOL    HW267695   1.487   5.432   7.741  0.0398  0.1365  2.0501
18573SOL     OW67696   3.055   4.874   1.453  0.3292 -0.2815  0.4961
18573SOL    HW167697   3.040   4.919   1.370 -0.5487 -0.3684  0.5993
18573SOL    HW267698   3.077   4.945   1.514 -1.0682  0.0458  0.6633
18574SOL     OW67699   8.161   6.417   0.014 -0.1871 -0.8486  0.3934
18574SOL    HW167700   8.096   6.480   0.046  0.3899  0.1732 -0.3950
18574SOL    HW267701   8.131   6.394  -0.074 -0.7535 -2.2079  0.9191
18575SOL     OW67702   5.746   8.436   6.591 -0.0769 -0.4373 -0.6426
18575SOL    HW167703   5.727   8.509   6.532  1.2164 -0.4081 -1.0506
18575SOL    HW267704   5.755   8.360   6.533  1.9121 -0.2814 -0.6101
18576SOL     OW67705   9.861   3.358   8.571  0.4990  0.2857 -0.0792
18576SOL    HW167706   9.941   3.382   8.524 -0.3641  1.5305 -0.9901
18576SOL    HW267707   9.850   3.265   8.553  1.6949  0.1035  0.0086
18577SOL     OW67708   8.853   6.472   2.303  0.3922 -0.0126  0.5517
18577SOL    HW167709   8.849   6.567   2.311 -1.4171 -0.1863  2.5346
18577SOL    HW267710   8.943   6.454   2.275  1.4122  2.1648  2.1679
18578SOL     OW67711   7.121   0.923   5.546  0.1140 -0.6840  0.1366
18578SOL    HW167712   7.107   0.985   5.475  0.9299 -1.5588 -0.8205
18578SOL    HW267713   7.036   0.879   5.556 -0.3140  0.1894  0.4651
18579SOL     OW67714   9.066   8.087   2.995 -0.1943  0.3546 -0.5752
18579SOL    HW167715   9.105   8.088   2.907  0.1874 -1.5687 -0.4731
18579SOL    HW267716   9.069   8.178   3.023 -0.5098  1.0655 -2.6313
18580SOL     OW67717   0.374   8.618   4.312 -0.2928 -0.6301 -0.5825
18580SOL    HW167718   0.398   8.528   4.293 -0.7492 -0.7738 -0.4795
18580SOL    HW267719   0.281   8.615   4.331  0.1565 -0.5579  1.9659
18581SOL     OW67720   6.428   3.437  10.097  0.0297 -0.1010 -0.2184
18581SOL    HW167721   6.429   3.417  10.190  0.3412 -0.3352 -0.2695
18581SOL    HW267722   6.340   3.471  10.081 -0.4919 -1.3453 -0.0943
18582SOL     OW67723   3.742   6.871   6.428  0.2181 -0.2839  0.0411
18582SOL    HW167724   3.716   6.802   6.488  0.2179 -1.2022 -0.9704
18582SOL    HW267725   3.837   6.860   6.417  0.1365 -0.4859 -0.5341
18583SOL     OW67726   3.179   6.236   4.006 -0.2931 -0.1222 -0.0153
18583SOL    HW167727   3.233   6.211   4.081 -1.0648 -1.5706  0.0887
18583SOL    HW267728   3.190   6.331   4.000  1.0131 -0.1808  0.9568
18584SOL     OW67729   0.434   3.099   7.139 -0.2430 -0.4175  0.3263
18584SOL    HW167730   0.346   3.131   7.119 -0.9931 -2.2318  0.5363
18584SOL    HW267731   0.440   3.104   7.235  0.8227  1.9249  0.2082
18585SOL     OW67732   5.316   5.633   0.887 -0.1863 -0.2509  0.8295
18585SOL    HW167733   5.305   5.714   0.938  2.2389 -0.6828  2.1744
18585SOL    HW267734   5.227   5.599   0.878 -1.3922  2.8564 -0.3764
18586SOL     OW67735   5.668   7.306   4.804  0.4970 -0.6142 -0.1932
18586SOL    HW167736   5.623   7.345   4.729 -0.4840 -1.5418 -0.1075
18586SOL    HW267737   5.653   7.211   4.794  2.0026 -0.9026  0.1237
18587SOL     OW67738   3.567   8.791   5.490  0.0077  0.1371  0.1197
18587SOL    HW167739   3.660   8.771   5.494  0.1074  0.1914 -1.2912
18587SOL    HW267740   3.562   8.875   5.444 -0.6653  1.0197  1.6988
18588SOL     OW67741   6.207   1.562   0.318 -0.5846  0.0820  1.0254
18588SOL    HW167742   6.273   1.535   0.382  1.1109  0.6331 -0.3939
18588SOL    HW267743   6.151   1.623   0.366  0.1026 -0.1878  2.2233
18589SOL     OW67744   2.163   5.573   7.001 -0.4368  0.0555 -0.3998
18589SOL    HW167745   2.081   5.526   7.018  0.4770 -1.0860  1.0181
18589SOL    HW267746   2.199   5.530   6.923  0.0106 -1.1102  0.4300
18590SOL     OW67747   8.212   8.599   9.545 -0.6440 -0.0468 -0.0854
18590SOL    HW167748   8.187   8.506   9.537 -0.9755  0.1358 -1.3656
18590SOL    HW267749   8.201   8.618   9.638  0.7153 -1.6476  0.4668
18591SOL     OW67750   0.839   2.910   3.879  0.3713 -0.2416 -0.1160
18591SOL    HW167751   0.753   2.949   3.893  0.1479 -0.7105 -0.1603
18591SOL    HW267752   0.884   2.919   3.963 -0.5033 -1.8972  0.5859
18592SOL     OW67753   7.828  10.325  10.371 -0.3396  0.1375  0.2664
18592SOL    HW167754   7.791  10.371  10.446  0.7467 -0.6214  1.3014
18592SOL    HW267755   7.758  10.325  10.306 -1.7308 -0.1982  1.7062
18593SOL     OW67756   8.280   5.259  10.211 -0.3169 -0.5999 -0.3016
18593SOL    HW167757   8.241   5.191  10.157 -1.3913  1.5729 -2.4917
18593SOL    HW267758   8.213   5.281  10.275 -0.8870 -0.1214 -1.0379
18594SOL     OW67759   9.244   2.514   4.356 -0.1386  0.5619  0.2660
18594SOL    HW167760   9.308   2.450   4.324 -1.7285 -1.3983  0.7904
18594SOL    HW267761   9.272   2.533   4.445  0.2467  0.4565  0.1707
18595SOL     OW67762  10.249   2.233   1.650 -0.0620 -0.0019  0.0575
18595SOL    HW167763  10.217   2.307   1.701  0.3451 -0.5563  1.1378
18595SOL    HW267764  10.317   2.194   1.704 -0.1321 -1.0526 -0.5937
18596SOL     OW67765   7.355   2.886   4.643  0.4134  0.0820 -0.6191
18596SOL    HW167766   7.268   2.853   4.621  1.0681 -2.1952 -0.0005
18596SOL    HW267767   7.351   2.904   4.737  0.8598 -0.9096 -0.4012
18597SOL     OW67768   4.111   6.730   9.354  0.5209 -0.4377 -0.0884
18597SOL    HW167769   4.075   6.649   9.318  0.1881 -0.1072 -0.5097
18597SOL    HW267770   4.041   6.795   9.341 -0.7387 -0.8500  3.5150
18598SOL     OW67771   4.965   3.216   7.474  0.5948  0.0310  0.5905
18598SOL    HW167772   4.988   3.226   7.382  2.6888 -0.9057  0.9370
18598SOL    HW267773   4.872   3.240   7.479  0.0607 -1.1586 -1.9746
18599SOL     OW67774   8.808   7.030   9.774 -0.6454 -0.4245  0.0811
18599SOL    HW167775   8.840   7.097   9.713 -1.8911  0.7726  0.6803
18599SOL    HW267776   8.774   6.961   9.718 -2.2096  0.8642 -0.6557
18600SOL     OW67777   1.543   5.502   4.932 -0.0307 -0.0225  0.3357
18600SOL    HW167778   1.476   5.460   4.877  0.6074 -0.1863 -0.3326
18600SOL    HW267779   1.506   5.500   5.020 -0.4882 -0.9940  0.1349
18601SOL     OW67780   8.083   8.510   1.172  0.4461 -0.2156  0.0374
18601SOL    HW167781   8.125   8.468   1.247 -0.0208  0.0744  0.4695
18601SOL    HW267782   8.132   8.478   1.096 -1.3532 -3.4327  0.0805
18602SOL     OW67783  10.349   8.295   3.753  0.1176 -0.1638 -0.2484
18602SOL    HW167784  10.281   8.290   3.686  0.0335 -1.2392 -0.1070
18602SOL    HW267785  10.345   8.210   3.796  1.4339 -0.1628 -0.1121
18603SOL     OW67786   5.624   8.224   1.445 -0.1628 -0.0283 -0.0893
18603SOL    HW167787   5.635   8.152   1.506 -1.7510  0.8877  1.3738
18603SOL    HW267788   5.666   8.299   1.488  0.2626  0.2459 -0.9516
18604SOL     OW67789   7.493   3.734   8.677  0.2038  0.4504 -0.5239
18604SOL    HW167790   7.458   3.816   8.713  1.3520  2.5503 -3.7138
18604SOL    HW267791   7.448   3.723   8.593  0.2030 -2.1829 -0.2691
18605SOL     OW67792   9.325   8.427   3.917 -0.3016 -0.4503  0.3425
18605SOL    HW167793   9.389   8.412   3.848 -0.4753  0.1707  0.0395
18605SOL    HW267794   9.325   8.346   3.967 -1.3700 -1.5725 -1.3566
18606SOL     OW67795   7.822   0.358   9.363  0.3511 -0.6368 -0.8311
18606SOL    HW167796   7.741   0.344   9.314 -0.2007 -2.6953  0.4972
18606SOL    HW267797   7.875   0.281   9.344  1.0127 -0.4300  0.1093
18607SOL     OW67798   6.443   5.581   1.388 -0.5262 -0.1807 -0.0693
18607SOL    HW167799   6.475   5.616   1.471 -1.1582  0.2617  0.0019
18607SOL    HW267800   6.510   5.603   1.324 -0.2706 -0.0730  0.2360
18608SOL     OW67801   5.492   0.613  10.100 -0.2317  0.0981  0.1264
18608SOL    HW167802   5.566   0.559  10.126 -1.2449 -1.5073 -0.1930
18608SOL    HW267803   5.524   0.664  10.026  1.0514  0.7517  1.0824
18609SOL     OW67804   1.674   8.473   2.054  0.1416  0.8255  0.3836
18609SOL    HW167805   1.736   8.489   1.983  0.9265 -0.0153  0.8579
18609SOL    HW267806   1.727   8.432   2.123 -1.1194 -0.8035  0.4344
18610SOL     OW67807   8.597   9.088   1.788  0.0118  0.2333  0.4409
18610SOL    HW167808   8.574   9.095   1.881 -2.9479 -1.4213 -0.0623
18610SOL    HW267809   8.518   9.057   1.745  1.7300 -0.5715 -2.4592
18611SOL     OW67810   6.288   0.518   5.649  0.3712  0.3363 -0.0636
18611SOL    HW167811   6.300   0.431   5.611  1.2530  1.2199 -1.9171
18611SOL    HW267812   6.211   0.509   5.705  0.6226 -1.7040  0.0372
18612SOL     OW67813   6.696   9.312   5.854  0.3090 -0.8207 -0.4521
18612SOL    HW167814   6.684   9.405   5.835 -1.9954 -1.4215 -2.2888
18612SOL    HW267815   6.763   9.283   5.792  1.4814 -0.3282  0.5284
18613SOL     OW67816   8.538   0.216   3.598  0.5015 -0.2886  0.3517
18613SOL    HW167817   8.475   0.144   3.599 -0.0270  0.1519 -0.2372
18613SOL    HW267818   8.514   0.268   3.521  0.8036  0.5786  0.8267
18614SOL     OW67819   6.921   4.821   6.929  0.5105 -0.6009  0.0844
18614SOL    HW167820   6.963   4.857   6.852 -0.4362  0.6521  0.1125
18614SOL    HW267821   6.852   4.764   6.895  0.0544 -0.0021 -0.0170
18615SOL     OW67822   1.414   2.241   5.431 -0.0611 -0.1328  0.4928
18615SOL    HW167823   1.500   2.200   5.443  0.9788  1.9083  0.5582
18615SOL    HW267824   1.410   2.308   5.499 -0.4530  1.6810 -1.2044
18616SOL     OW67825   2.047   0.579   5.370  0.2515  0.1748  0.0594
18616SOL    HW167826   1.985   0.651   5.381 -0.2960 -0.4576  1.2664
18616SOL    HW267827   1.996   0.509   5.329  0.8584  0.5505 -1.3968
18617SOL     OW67828   3.345   2.840   8.997 -0.2219  0.0871  0.6507
18617SOL    HW167829   3.276   2.859   8.934  0.5763  0.8751 -0.0304
18617SOL    HW267830   3.349   2.745   9.002  0.9950 -0.1153 -2.0486
18618SOL     OW67831   3.097   9.739   8.824 -0.0772  0.2372 -0.4953
18618SOL    HW167832   3.068   9.800   8.757  1.2965 -0.8257 -2.1311
18618SOL    HW267833   3.182   9.773   8.853 -1.0129  1.1282  1.3396
18619SOL     OW67834   4.881   0.479   5.655 -0.0928 -0.2051  0.3417
18619SOL    HW167835   4.966   0.521   5.642 -1.3081  1.9726 -1.1118
18619SOL    HW267836   4.869   0.424   5.577 -0.5158  0.4381 -0.0557
18620SOL     OW67837   0.169   1.536   1.331  0.7260  0.7405  0.5895
18620SOL    HW167838   0.158   1.603   1.265 -0.1883 -2.0876 -2.4066
18620SOL    HW267839   0.262   1.517   1.333  0.7525  0.8242  0.0664
18621SOL     OW67840   8.841   3.187   0.463 -0.4979 -0.3647  0.1165
18621SOL    HW167841   8.875   3.156   0.547 -1.2699 -1.6660 -0.0281
18621SOL    HW267842   8.893   3.141   0.397  1.1212  1.7355 -0.2145
18622SOL     OW67843   7.645   4.008   6.594  0.2281  0.4121  0.1071
18622SOL    HW167844   7.619   4.100   6.581  0.5163  0.2966 -1.6144
18622SOL    HW267845   7.695   3.987   6.515 -0.9957 -1.6380 -0.1927
18623SOL     OW67846   9.832   9.239   7.222 -0.2580 -0.0717 -0.0009
18623SOL    HW167847   9.778   9.161   7.227 -0.8758  0.1857 -1.9049
18623SOL    HW267848   9.797   9.289   7.148 -0.0460  2.1546  1.2905
18624SOL     OW67849   3.334   3.200   4.153  0.0657  0.0828 -0.2104
18624SOL    HW167850   3.381   3.124   4.186  1.6536  1.0226 -0.2444
18624SOL    HW267851   3.245   3.190   4.188 -0.2410 -2.5657 -1.4600
18625SOL     OW67852   1.220   3.733   9.094 -0.0046  0.0668 -0.2048
18625SOL    HW167853   1.246   3.770   9.010 -1.3498  0.2521 -0.5689
18625SOL    HW267854   1.193   3.643   9.073 -0.4407  0.1454  0.0093
18626SOL     OW67855   6.478   8.350  10.307 -0.3135 -0.6106  0.4665
18626SOL    HW167856   6.454   8.428  10.255 -0.6766 -0.5943  0.6577
18626SOL    HW267857   6.460   8.375  10.397 -0.9728 -1.1117  0.4832
18627SOL     OW67858   9.692   9.815   5.518  0.7814  0.2161  0.4210
18627SOL    HW167859   9.739   9.856   5.445  1.3186 -0.6071  0.2917
18627SOL    HW267860   9.736   9.731   5.531 -0.5730 -0.5314  0.3836
18628SOL     OW67861  10.183   8.749   1.322 -0.3474  0.4060  0.0986
18628SOL    HW167862  10.266   8.794   1.339  0.4179 -0.1487 -1.8086
18628SOL    HW267863  10.116   8.815   1.338  0.6024  1.4829 -0.2294
18629SOL     OW67864   7.108   1.149   1.570 -0.7071  0.2140  0.8460
18629SOL    HW167865   7.023   1.175   1.604 -1.4037 -1.0779  0.1936
18629SOL    HW267866   7.170   1.175   1.637 -1.9020 -1.1833  2.5735
18630SOL     OW67867   1.554   5.431   9.487  0.2279 -0.0194  0.6352
18630SOL    HW167868   1.614   5.494   9.527  0.6637 -0.6895  1.0566
18630SOL    HW267869   1.501   5.484   9.427  1.2159  0.5913  0.2655
18631SOL     OW67870   1.862   5.290   8.660 -0.1263 -0.0217 -0.0260
18631SOL    HW167871   1.768   5.309   8.659 -0.0524  1.0656  2.6542
18631SOL    HW267872   1.869   5.200   8.690 -0.3506  0.4704  1.6030
18632SOL     OW67873   4.060   5.907   5.042  0.4491 -0.2866  0.0746
18632SOL    HW167874   3.998   5.882   5.111  0.2741  0.3188  0.1520
18632SOL    HW267875   4.135   5.850   5.055  0.1818 -0.5669  0.4118
18633SOL     OW67876   1.518   7.423   8.379 -0.0142 -0.1863  0.1128
18633SOL    HW167877   1.577   7.497   8.395  0.6338 -1.0568  2.0877
18633SOL    HW267878   1.523   7.408   8.285  1.5242  0.9162 -0.0168
18634SOL     OW67879   3.540   6.197   3.102 -0.0287  0.7343 -0.2988
18634SOL    HW167880   3.558   6.290   3.093  1.0681  0.8225  1.9912
18634SOL    HW267881   3.474   6.192   3.171  1.3732 -0.2059  1.0427
18635SOL     OW67882   6.499   1.017   4.160 -0.0779 -0.4881 -0.1245
18635SOL    HW167883   6.593   1.000   4.170  0.1381  0.1591 -0.9636
18635SOL    HW267884   6.482   1.001   4.067 -0.5333  0.6685 -0.2484
18636SOL     OW67885   5.953   2.820   1.213 -0.1468 -0.2142 -0.5429
18636SOL    HW167886   5.861   2.835   1.192 -0.3945 -1.9377 -0.8058
18636SOL    HW267887   5.981   2.752   1.152  0.7456 -1.1332  0.8321
18637SOL     OW67888   6.505   0.665   6.968 -0.2110  0.1428  0.3155
18637SOL    HW167889   6.513   0.570   6.983 -2.9248 -0.2748 -0.3480
18637SOL    HW267890   6.504   0.703   7.056 -1.9586 -0.7896  0.7490
18638SOL     OW67891   4.092   5.487   9.958 -0.1745  0.3322  0.4561
18638SOL    HW167892   4.029   5.506  10.028 -0.9174 -0.8227  0.1326
18638SOL    HW267893   4.047   5.513   9.878  0.8241  2.0276  0.3831
18639SOL     OW67894   0.035   5.082   1.974 -0.3426 -0.4389 -0.5103
18639SOL    HW167895   0.060   5.005   2.024 -0.3586 -0.6410 -0.8140
18639SOL    HW267896  -0.045   5.056   1.928 -0.7399 -0.0181 -0.0668
18640SOL     OW67897   3.715   0.475   6.559 -0.3201 -0.5438  0.2214
18640SOL    HW167898   3.629   0.508   6.586 -1.6660 -2.2417 -1.6772
18640SOL    HW267899   3.740   0.413   6.628 -2.0199 -2.1605 -0.5330
18641SOL     OW67900   9.097   8.135   3.748 -0.4568  0.1166 -0.5496
18641SOL    HW167901   9.059   8.049   3.766 -3.4451  1.4111 -0.0573
18641SOL    HW267902   9.091   8.182   3.831 -0.3047  1.3082 -1.1929
18642SOL     OW67903   1.828   8.508   2.999 -0.2525  0.2071 -0.1743
18642SOL    HW167904   1.816   8.602   2.985 -0.2632 -0.0206 -1.9373
18642SOL    HW267905   1.918   8.499   3.029 -0.2456  0.7699 -0.0106
18643SOL     OW67906   3.146   3.814  10.023 -0.0993  0.0289  0.1284
18643SOL    HW167907   3.056   3.841  10.038 -0.3115 -0.9504  0.7336
18643SOL    HW267908   3.140   3.751   9.951 -0.1308 -1.1486  1.1100
18644SOL     OW67909   3.867   4.562   6.654 -0.2780 -0.1701  0.0030
18644SOL    HW167910   3.837   4.508   6.727 -0.5285  0.4156  0.3409
18644SOL    HW267911   3.881   4.500   6.582  1.6657 -1.0130  1.0261
18645SOL     OW67912   2.559   1.521   8.381 -0.6392 -0.1087 -0.2979
18645SOL    HW167913   2.521   1.435   8.363 -1.5331  0.3142 -0.4858
18645SOL    HW267914   2.654   1.508   8.372 -0.7840 -1.0062 -0.5932
18646SOL     OW67915   2.095   2.503   8.503  0.0773  0.2635 -0.1035
18646SOL    HW167916   2.126   2.592   8.523  1.1065 -0.4999  1.9442
18646SOL    HW267917   2.010   2.498   8.547 -0.1586  0.3609 -0.5486
18647SOL     OW67918   5.325   6.873   9.070  0.3717  0.3154 -0.6401
18647SOL    HW167919   5.251   6.851   9.128  0.7359  2.1947  0.6197
18647SOL    HW267920   5.323   6.968   9.063  1.0950  0.2232 -2.7860
18648SOL     OW67921   0.684   6.988   2.572 -0.1221  0.4965 -0.2449
18648SOL    HW167922   0.753   7.041   2.531  0.1726  1.0041  0.8716
18648SOL    HW267923   0.642   6.943   2.499 -0.6311  2.5647 -1.3122
18649SOL     OW67924   0.857   8.159   6.826 -0.5295  0.2290  0.1752
18649SOL    HW167925   0.822   8.102   6.895 -0.4879 -0.0613 -0.0433
18649SOL    HW267926   0.907   8.101   6.770 -0.4606  0.4886 -0.0343
18650SOL     OW67927   5.546   9.360   4.030  0.1807 -0.6629  0.1182
18650SOL    HW167928   5.624   9.405   4.063 -0.4751  0.4832  0.1304
18650SOL    HW267929   5.509   9.420   3.965 -2.2282  0.1053  2.0373
18651SOL     OW67930   4.349   5.402   2.280  0.6111 -0.3109  0.3532
18651SOL    HW167931   4.349   5.316   2.239  1.0665 -0.4995  0.7414
18651SOL    HW267932   4.387   5.387   2.367 -0.1375  0.1176  0.7631
18652SOL     OW67933   4.622   9.045   3.871  0.5086  0.6650 -0.0105
18652SOL    HW167934   4.573   9.001   3.802  0.3634  0.0461  0.4828
18652SOL    HW267935   4.709   9.060   3.832  0.2852  0.7432 -0.4881
18653SOL     OW67936   7.578   7.732   7.147  0.3735  0.4163 -0.0892
18653SOL    HW167937   7.571   7.793   7.073  1.8464 -1.8170 -2.2185
18653SOL    HW267938   7.488   7.703   7.162  0.2195 -0.4188 -2.2572
18654SOL     OW67939   9.575   4.235   4.882  0.4330 -0.0081  0.0991
18654SOL    HW167940   9.555   4.319   4.840 -0.1853  0.7120  1.7174
18654SOL    HW267941   9.573   4.171   4.812  3.7510  1.6689 -1.7724
18655SOL     OW67942   6.103   1.148   6.590 -0.0274 -0.5542 -0.1322
18655SOL    HW167943   6.089   1.104   6.506  0.2893  0.1723 -0.5798
18655SOL    HW267944   6.167   1.093   6.635  1.6655  0.2852 -1.3836
18656SOL     OW67945   0.679   3.794   6.990 -0.1135 -0.7438  0.0389
18656SOL    HW167946   0.721   3.846   6.921 -0.4797 -0.6483 -0.1125
18656SOL    HW267947   0.752   3.760   7.042  0.2021 -1.3541 -0.7784
18657SOL     OW67948   2.415  10.175   7.279  0.2628  0.1571  0.5374
18657SOL    HW167949   2.421  10.207   7.369  0.0916  0.7374  0.3473
18657SOL    HW267950   2.332  10.127   7.277 -1.3801  2.7984 -0.0948
18658SOL     OW67951   8.425   5.791   9.569 -0.0313 -0.1678  0.2223
18658SOL    HW167952   8.517   5.800   9.542 -0.1374 -0.9299 -0.4093
18658SOL    HW267953   8.376   5.836   9.500 -0.2590 -1.5312 -0.5244
18659SOL     OW67954   0.487   8.897   0.069 -0.2334  0.8455 -0.2176
18659SOL    HW167955   0.473   8.831   0.002  0.5808 -0.6255  1.0048
18659SOL    HW267956   0.440   8.974   0.037  0.3257  0.2847 -2.5640
18660SOL     OW67957   8.933   0.872   1.746  1.6379  0.9135 -0.0609
18660SOL    HW167958   8.854   0.923   1.729  1.5653  0.4846 -1.1047
18660SOL    HW267959   8.989   0.930   1.797  0.2430  0.8639  1.6315
18661SOL     OW67960   2.709   6.316   4.592 -0.4705  0.2721  0.0417
18661SOL    HW167961   2.767   6.263   4.646 -0.4999  0.1961 -0.0005
18661SOL    HW267962   2.693   6.395   4.643  0.0698  0.5153 -0.1650
18662SOL     OW67963   3.498   0.371   7.475  0.0238  1.1333 -0.1023
18662SOL    HW167964   3.409   0.388   7.443 -0.2817  0.9739  0.6610
18662SOL    HW267965   3.552   0.435   7.428 -0.2677  0.3172 -1.6332
18663SOL     OW67966   1.842   4.470   8.934 -0.0131  0.0466 -0.2184
18663SOL    HW167967   1.822   4.488   9.026 -1.4156 -0.1177 -0.4728
18663SOL    HW267968   1.763   4.497   8.887  1.4855  2.2095 -1.6458
18664SOL     OW67969   5.853   9.852   9.238  0.3957  0.4059 -0.5024
18664SOL    HW167970   5.899   9.827   9.157  2.1429  1.6518  0.0465
18664SOL    HW267971   5.857   9.947   9.240  0.7170  0.3934  1.2238
18665SOL     OW67972   5.311   7.901   0.263 -0.3361  0.3370 -0.1396
18665SOL    HW167973   5.364   7.888   0.184  0.3450  2.4957 -0.0986
18665SOL    HW267974   5.367   7.873   0.335 -0.6141 -0.7597 -0.3327
18666SOL     OW67975   7.005   8.964   8.782  0.4777 -0.2902 -0.6827
18666SOL    HW167976   6.947   8.961   8.858  0.2381 -1.3230 -0.8972
18666SOL    HW267977   6.968   9.034   8.728  0.3333  0.0838 -0.1100
18667SOL     OW67978   1.133   2.028   2.986  0.1848 -0.3284 -0.1301
18667SOL    HW167979   1.099   2.060   2.902  0.4636 -0.8175 -0.4304
18667SOL    HW267980   1.220   2.066   2.992  0.7022 -1.3921 -0.7068
18668SOL     OW67981   1.505   9.905   9.825 -0.0031  0.6189 -0.4196
18668SOL    HW167982   1.513   9.895   9.920 -0.6067 -0.8340 -0.5006
18668SOL    HW267983   1.486   9.817   9.793 -0.4591  1.2024 -1.8293
18669SOL     OW67984   8.352   5.252   2.215 -0.5539 -0.3018  0.1653
18669SOL    HW167985   8.427   5.223   2.164 -0.7483 -1.0037  0.2740
18669SOL    HW267986   8.362   5.209   2.300 -1.7851 -1.5091 -0.2630
18670SOL     OW67987   9.696   4.996   0.256  0.4087  0.2661  0.3766
18670SOL    HW167988   9.765   5.061   0.267  0.5285  0.3563 -0.7988
18670SOL    HW267989   9.741   4.917   0.227 -0.0280  0.5019 -0.9981
18671SOL     OW67990   9.308   0.509   1.032 -0.8179 -0.5163 -0.1163
18671SOL    HW167991   9.373   0.563   0.987 -0.2804  0.8181  2.1081
18671SOL    HW267992   9.306   0.427   0.982  2.9204 -0.8272 -0.0574
18672SOL     OW67993   1.858   3.764   4.246 -0.3888 -0.4313  0.6283
18672SOL    HW167994   1.858   3.669   4.261  0.6503 -0.6143 -0.3294
18672SOL    HW267995   1.846   3.803   4.332 -2.2486 -1.4385  0.8595
18673SOL     OW67996   3.722   1.218   3.146 -0.2475 -0.2413 -0.0462
18673SOL    HW167997   3.771   1.291   3.184 -0.0126  0.1505 -1.0748
18673SOL    HW267998   3.786   1.170   3.095 -0.3336 -1.3790  0.8744
18674SOL     OW67999   3.801   3.750   7.626 -0.5729  0.5052 -0.0225
18674SOL    HW168000   3.738   3.784   7.690  0.6319  0.3721  1.2962
18674SOL    HW268001   3.748   3.699   7.565 -1.8459  1.1552  0.4930
18675SOL     OW68002   5.888  10.129   9.250  0.2734  0.3604 -0.5747
18675SOL    HW168003   5.965  10.137   9.194 -0.3689  1.0981 -1.3910
18675SOL    HW268004   5.841  10.212   9.239 -0.7439 -0.1484 -0.2754
18676SOL     OW68005   5.736   2.811   1.979  0.3023  0.0662  0.1964
18676SOL    HW168006   5.804   2.804   2.045  3.1390  2.7597 -2.1182
18676SOL    HW268007   5.676   2.878   2.014  2.1659  2.0092 -0.1070
18677SOL     OW68008   5.383   1.058   9.679 -0.3967 -0.1606  0.1529
18677SOL    HW168009   5.421   0.974   9.655 -1.1564 -0.7154  0.8565
18677SOL    HW268010   5.294   1.056   9.644 -0.0128  0.8875 -0.9618
18678SOL     OW68011   8.963   7.518   6.305  0.1350  0.3922 -0.6040
18678SOL    HW168012   9.022   7.443   6.305  0.2401  0.3664  2.0284
18678SOL    HW268013   8.875   7.479   6.304  0.1107  0.3898 -2.7922
18679SOL     OW68014   7.670   9.660   4.703 -0.5379  0.0313 -0.6250
18679SOL    HW168015   7.612   9.685   4.775  0.6306  1.6214 -0.1725
18679SOL    HW268016   7.726   9.592   4.740  0.0400  0.8210 -0.0023
18680SOL     OW68017   9.008   9.052   4.070 -0.1093 -0.2111 -0.2868
18680SOL    HW168018   8.937   9.103   4.111  0.1538 -0.1646  0.1193
18680SOL    HW268019   8.971   9.023   3.987 -0.2550  0.6741 -0.5446
18681SOL     OW68020   3.329   8.281   0.587 -0.1903  0.6341  0.5810
18681SOL    HW168021   3.422   8.261   0.586 -0.3904 -0.3441  0.8434
18681SOL    HW268022   3.301   8.266   0.496 -0.2082  0.3511  0.6326
18682SOL     OW68023   8.711   2.588   7.505  0.7199  0.3676 -0.2306
18682SOL    HW168024   8.625   2.622   7.529  0.0631 -1.1654 -0.3056
18682SOL    HW268025   8.718   2.505   7.552  1.3191 -0.4873 -1.7473
18683SOL     OW68026   5.838   8.328   0.218 -0.2851  0.5218 -0.0614
18683SOL    HW168027   5.853   8.270   0.293  1.8813  0.8256 -0.1987
18683SOL    HW268028   5.785   8.275   0.157 -0.6998 -0.2888  0.9736
18684SOL     OW68029   2.416   0.946   4.569 -0.1476 -0.0491  0.0546
18684SOL    HW168030   2.336   0.978   4.528 -1.0620  0.3068  1.9824
18684SOL    HW268031   2.474   0.924   4.496 -2.1938 -0.8521 -1.4281
18685SOL     OW68032   8.632   9.713   5.226  0.0991 -0.0778  0.1056
18685SOL    HW168033   8.669   9.769   5.294  0.0713  0.9907 -0.7270
18685SOL    HW268034   8.584   9.645   5.273 -0.0542  0.7370  1.1534
18686SOL     OW68035   8.142   2.270   8.039 -0.1678 -0.8942 -0.4160
18686SOL    HW168036   8.189   2.204   8.091  0.8149 -1.1033 -1.5309
18686SOL    HW268037   8.072   2.220   7.996 -1.3622 -0.6149  1.1080
18687SOL     OW68038   1.282   4.914   8.636 -0.1707 -0.0624 -0.1968
18687SOL    HW168039   1.289   4.919   8.540  0.6389  1.7449 -0.0788
18687SOL    HW268040   1.190   4.934   8.654 -0.4590 -0.9711 -0.6167
18688SOL     OW68041   9.283   5.660   8.290  0.7342  0.1730 -0.4922
18688SOL    HW168042   9.345   5.665   8.363  0.6514  0.1576 -0.4213
18688SOL    HW268043   9.328   5.703   8.218  0.8039  0.2153 -0.4239
18689SOL     OW68044   0.629   2.120   5.951  0.1610 -0.8666  0.4115
18689SOL    HW168045   0.566   2.180   5.990 -0.6558 -2.0808  1.0453
18689SOL    HW268046   0.580   2.072   5.885  0.8393 -0.7312 -0.2049
18690SOL     OW68047   0.675   1.749   1.883  0.1103 -0.1791 -0.1685
18690SOL    HW168048   0.646   1.725   1.971  0.0670 -0.5257 -0.2745
18690SOL    HW268049   0.688   1.665   1.838 -1.0557 -0.0171 -0.8715
18691SOL     OW68050   0.304   8.731   7.267  0.2042  0.1556  0.3017
18691SOL    HW168051   0.285   8.749   7.175  0.1278 -0.2741  0.2328
18691SOL    HW268052   0.219   8.726   7.310  0.2727  1.6200  0.6443
18692SOL     OW68053   6.621   4.894   4.004 -0.2544  0.4406  0.1700
18692SOL    HW168054   6.668   4.888   4.087 -3.0787 -2.7182  1.8001
18692SOL    HW268055   6.587   4.983   4.001  1.3796  1.1526  1.4924
18693SOL     OW68056   5.456   9.301   5.925 -0.6715  0.6316 -0.0479
18693SOL    HW168057   5.378   9.354   5.943 -1.4936 -0.0619 -1.3745
18693SOL    HW268058   5.457   9.235   5.994  0.8759  2.8132  2.1709
18694SOL     OW68059   7.758   4.481   8.334 -0.7256  0.5561  0.0877
18694SOL    HW168060   7.676   4.497   8.381 -0.2719  1.7532  0.5154
18694SOL    HW268061   7.777   4.565   8.292 -0.6221 -0.2256 -1.4665
18695SOL     OW68062   5.889   4.694   3.727 -0.2010 -0.1683  0.5041
18695SOL    HW168063   5.975   4.724   3.699 -1.2997  2.3172 -0.5656
18695SOL    HW268064   5.880   4.724   3.817 -0.0972 -0.0692  0.4809
18696SOL     OW68065   5.471   0.344   4.116  0.1861  0.4735  0.1191
18696SOL    HW168066   5.530   0.322   4.044  1.7564 -1.1775  1.8111
18696SOL    HW268067   5.430   0.426   4.089  3.0422  1.5734 -1.2923
18697SOL     OW68068   7.103   1.956   7.246  0.0244 -0.0359 -0.2527
18697SOL    HW168069   7.037   1.987   7.308 -0.3540  0.1978 -0.7554
18697SOL    HW268070   7.094   2.016   7.171  0.8900  0.0678 -0.2815
18698SOL     OW68071   4.992   3.540   7.426 -0.0481  0.0575  0.3918
18698SOL    HW168072   4.991   3.613   7.488 -1.8222 -0.3229  0.8634
18698SOL    HW268073   5.083   3.512   7.424  0.4778  1.6026  0.9955
18699SOL     OW68074   5.969   6.343   1.321 -0.2680 -0.3143 -0.1387
18699SOL    HW168075   5.936   6.431   1.337 -1.3258 -1.0643  2.4171
18699SOL    HW268076   6.001   6.344   1.231 -3.2703  1.7430 -1.3152
18700SOL     OW68077   9.491   1.158   5.283 -0.6802 -0.1571 -0.1869
18700SOL    HW168078   9.585   1.144   5.290 -0.5458 -0.4343 -2.0375
18700SOL    HW268079   9.460   1.162   5.374  1.3874  2.0548  0.5173
18701SOL     OW68080   7.659   7.242   9.713  0.0821 -0.2282 -0.5383
18701SOL    HW168081   7.628   7.318   9.762  0.4770 -0.3397 -0.1028
18701SOL    HW268082   7.708   7.279   9.639  0.4528 -0.0532 -0.2100
18702SOL     OW68083   8.854   8.486   3.486 -0.0452 -0.0662 -0.1333
18702SOL    HW168084   8.918   8.490   3.415  2.2937  0.5486  1.8544
18702SOL    HW268085   8.875   8.404   3.532  0.6412  1.0554  1.6435
18703SOL     OW68086   9.820   5.973   0.005 -0.0027 -0.2855 -0.2151
18703SOL    HW168087   9.804   6.053   0.056  0.2863 -0.3457 -0.0254
18703SOL    HW268088   9.734   5.946  -0.024 -0.4296 -1.2817  1.7933
18704SOL     OW68089   7.508   0.606   9.184  0.1180 -0.2575 -0.2480
18704SOL    HW168090   7.578   0.671   9.178  0.9318 -1.1706 -0.9585
18704SOL    HW268091   7.532   0.538   9.121 -0.1736 -1.7531  1.1766
18705SOL     OW68092   2.563   6.399   4.250  0.0598  0.0780  0.8335
18705SOL    HW168093   2.514   6.352   4.318 -0.0717 -0.1389  0.5911
18705SOL    HW268094   2.590   6.481   4.292  1.1200 -0.6271  1.5763
18706SOL     OW68095   2.405  10.321   1.609 -0.3925  0.0786  0.6750
18706SOL    HW168096   2.368  10.389   1.665 -0.6112 -0.2699  0.9580
18706SOL    HW268097   2.333  10.259   1.596 -0.3552  0.1758 -0.0258
18707SOL     OW68098   5.315   9.630   9.908  0.3207 -0.4485  0.2755
18707SOL    HW168099   5.259   9.688   9.960  0.2694 -0.3383  0.0991
18707SOL    HW268100   5.361   9.689   9.848  0.4477 -0.5647  0.2580
18708SOL     OW68101   3.908   9.162   9.954  0.0330  0.3268 -0.0477
18708SOL    HW168102   3.960   9.238   9.982  1.6541  0.0409 -2.0429
18708SOL    HW268103   3.965   9.087   9.969  0.2565 -0.0045 -2.2005
18709SOL     OW68104   1.978   9.805   4.256  0.5810 -0.1145  0.5617
18709SOL    HW168105   2.051   9.802   4.194 -0.1898  0.7224 -0.3991
18709SOL    HW268106   2.019   9.832   4.338  1.1065  2.1639 -0.3876
18710SOL     OW68107   6.240   5.030   9.064 -0.3580  0.6553 -0.0332
18710SOL    HW168108   6.178   5.064   9.129 -0.5359  0.4044 -0.0698
18710SOL    HW268109   6.184   5.001   8.992 -0.1463  1.2097 -0.4277
18711SOL     OW68110   4.929   9.689   4.458 -0.1665  0.4331  0.3821
18711SOL    HW168111   4.863   9.652   4.516  0.2999  0.2858  0.8289
18711SOL    HW268112   4.897   9.670   4.370 -0.4939 -0.0275  0.5961
18712SOL     OW68113   4.336   3.357   6.509  0.0623  0.7146  0.1343
18712SOL    HW168114   4.259   3.410   6.491  0.6705  1.3831 -0.5441
18712SOL    HW268115   4.375   3.340   6.423  0.0480 -0.5907  0.3559
18713SOL     OW68116   9.583   8.941   9.282  0.8532  0.3205  0.1305
18713SOL    HW168117   9.648   8.938   9.353  1.1991  0.9668 -0.1468
18713SOL    HW268118   9.619   9.004   9.219 -0.8733  2.0853  0.8083
18714SOL     OW68119   7.985   7.901  10.229  0.0717 -0.3126  0.5239
18714SOL    HW168120   8.021   7.989  10.246  0.0618 -0.3682  0.8428
18714SOL    HW268121   7.958   7.870  10.315  0.5028 -0.8214  0.4780
18715SOL     OW68122   9.222   2.604   7.136  0.3661 -0.1033 -0.1839
18715SOL    HW168123   9.221   2.515   7.171  0.4934  0.6111  1.7763
18715SOL    HW268124   9.238   2.593   7.043  0.5476 -2.1224  0.0364
18716SOL     OW68125   6.191   8.191   3.002  0.5393 -0.1571 -0.5600
18716SOL    HW168126   6.156   8.205   3.090 -0.1925 -0.3669 -0.8113
18716SOL    HW268127   6.217   8.279   2.973 -0.2962  0.0894 -0.5785
18717SOL     OW68128   4.800   1.798   8.994  0.0204  0.4939  0.1135
18717SOL    HW168129   4.812   1.891   8.975 -1.0602  0.8078  0.8890
18717SOL    HW268130   4.798   1.793   9.090 -0.7682 -0.2054  0.0761
18718SOL     OW68131   7.774   8.167   7.324 -0.1942  0.2684 -0.1924
18718SOL    HW168132   7.779   8.219   7.404 -0.7326  1.6195 -0.9924
18718SOL    HW268133   7.734   8.085   7.351  1.3161 -0.0447  1.2490
18719SOL     OW68134   4.008   0.948   7.050 -0.2453  0.0642  0.3260
18719SOL    HW168135   3.970   0.887   7.113 -1.8903 -0.1041 -0.7613
18719SOL    HW268136   3.996   0.906   6.965  0.6539  0.8974 -0.2403
18720SOL     OW68137   6.171   3.701   4.553 -0.2124  0.4060  0.4405
18720SOL    HW168138   6.184   3.626   4.610 -0.5470 -0.4216 -0.5407
18720SOL    HW268139   6.077   3.715   4.552 -0.0920  1.4813  1.3848
18721SOL     OW68140   4.724  10.241   2.236 -0.4003 -0.1660 -0.0117
18721SOL    HW168141   4.719  10.330   2.201 -0.0854  0.8764  2.3443
18721SOL    HW268142   4.783  10.248   2.311  0.1510 -2.5255 -0.1419
18722SOL     OW68143   3.536   8.153   1.773  0.1894  0.3414 -0.0341
18722SOL    HW168144   3.569   8.221   1.715  0.5962 -0.2282 -0.4791
18722SOL    HW268145   3.442   8.169   1.778  0.0552  0.0540 -1.3126
18723SOL     OW68146   6.981   1.001  10.260 -0.0340  0.2645 -0.2061
18723SOL    HW168147   6.921   0.967  10.327  0.5246 -0.0727  0.1313
18723SOL    HW268148   6.924   1.025  10.187 -0.4910 -0.9055 -0.2514
18724SOL     OW68149   5.698   2.314   0.634 -0.6169  0.0837 -0.3221
18724SOL    HW168150   5.763   2.249   0.604  0.4361  0.8754  0.1794
18724SOL    HW268151   5.635   2.319   0.562  1.0677  0.8811 -1.8544
18725SOL     OW68152   4.388   9.189   0.525 -0.1556 -0.1200  0.3779
18725SOL    HW168153   4.413   9.282   0.519  0.1278 -0.2433 -0.5532
18725SOL    HW268154   4.434   9.157   0.602  0.0449  0.4262  0.4930
18726SOL     OW68155   0.561   2.371   2.524  0.5178  0.0735  0.0207
18726SOL    HW168156   0.518   2.342   2.443  0.8129 -1.3375  0.3340
18726SOL    HW268157   0.515   2.451   2.548 -0.0224  0.1501 -1.1765
18727SOL     OW68158   2.878   1.742   5.374 -0.7244  0.6414 -0.2379
18727SOL    HW168159   2.922   1.763   5.292 -1.3381  1.6184 -0.3466
18727SOL    HW268160   2.848   1.652   5.364  1.7563 -0.2796  0.0969
18728SOL     OW68161   1.907   6.199   1.212 -0.7419  0.0555  0.5839
18728SOL    HW168162   1.974   6.259   1.180  0.8080 -1.7215  0.3452
18728SOL    HW268163   1.836   6.206   1.147  0.0275  0.5254 -0.2336
18729SOL     OW68164   1.524   8.704   6.673 -0.0265 -0.4288 -0.9539
18729SOL    HW168165   1.515   8.624   6.622  1.6286 -1.6804  0.5885
18729SOL    HW268166   1.493   8.681   6.760 -0.8636  1.0506 -0.8257
18730SOL     OW68167   5.216   7.704   5.044 -0.5197  0.2654 -0.3910
18730SOL    HW168168   5.274   7.776   5.069 -0.2978  0.2565 -0.8819
18730SOL    HW268169   5.274   7.636   5.011 -0.0447 -2.3710  4.7978
18731SOL     OW68170   2.553   0.219   1.691 -0.0366  0.0964  0.6400
18731SOL    HW168171   2.524   0.222   1.600  2.7120 -3.6658 -0.6365
18731SOL    HW268172   2.623   0.283   1.697  0.5573 -0.4477 -0.2968
18732SOL     OW68173   7.500   6.095   9.594  0.0793 -0.1094 -0.0224
18732SOL    HW168174   7.448   6.020   9.564 -1.7981  1.3707 -0.6450
18732SOL    HW268175   7.467   6.169   9.543  2.0844  1.1291  0.3515
18733SOL     OW68176   7.902   2.902   0.647  0.0365  0.3365 -0.0793
18733SOL    HW168177   7.934   2.855   0.570  0.8842 -1.5236  1.3285
18733SOL    HW268178   7.824   2.853   0.674  0.4770  0.1766  0.9542
18734SOL     OW68179   0.873   5.079   4.862  0.6729  0.1872  0.2388
18734SOL    HW168180   0.834   4.996   4.886  0.2165  0.5773  0.8775
18734SOL    HW268181   0.966   5.059   4.851  0.5613 -0.4122  0.3442
18735SOL     OW68182   1.222   0.445   4.029 -0.2989 -0.0204  0.5351
18735SOL    HW168183   1.178   0.363   4.050 -1.7423  0.6097  0.1199
18735SOL    HW268184   1.259   0.431   3.941  0.5647 -0.6284  0.9784
18736SOL     OW68185   0.306   1.852  10.031  0.2536  0.6234  0.6825
18736SOL    HW168186   0.222   1.807  10.030  0.0556  0.9133  2.1908
18736SOL    HW268187   0.287   1.938  10.069  0.5112  2.2871 -2.5622
18737SOL     OW68188   7.092   3.750   6.969  0.4625 -0.2649  0.2461
18737SOL    HW168189   7.183   3.773   6.984  1.2993 -1.4850 -2.4424
18737SOL    HW268190   7.048   3.833   6.954  1.4434  0.2312  0.0490
18738SOL     OW68191   3.850   2.223   8.833  0.5352  0.2642 -0.2073
18738SOL    HW168192   3.819   2.132   8.826  1.5428 -0.2771  1.6115
18738SOL    HW268193   3.846   2.256   8.743  0.1874 -1.5942 -0.9346
18739SOL     OW68194   9.501   1.994   7.142 -0.3572 -0.3905  0.0577
18739SOL    HW168195   9.490   1.978   7.048 -1.7012 -0.4221  0.2009
18739SOL    HW268196   9.461   2.080   7.157 -1.5406 -1.0456  0.8306
18740SOL     OW68197   9.844   3.373   5.056  0.0448 -0.4532 -0.0566
18740SOL    HW168198   9.851   3.380   5.151 -0.3694  1.1173 -0.1049
18740SOL    HW268199   9.752   3.349   5.041  0.1258 -0.7623 -0.0569
18741SOL     OW68200   6.115   1.527   8.537 -0.4531 -0.5348  0.0161
18741SOL    HW168201   6.073   1.595   8.590  0.2870 -1.2316  1.5411
18741SOL    HW268202   6.106   1.447   8.589 -1.1619 -1.6140 -1.6580
18742SOL     OW68203   3.105   0.526   1.704  0.0813 -0.4019 -0.4334
18742SOL    HW168204   3.165   0.470   1.655  0.3969 -0.5127  0.0755
18742SOL    HW268205   3.032   0.541   1.644  0.5514 -0.3770 -1.0084
18743SOL     OW68206   0.489   9.599   3.572  0.0889  0.3523  0.1126
18743SOL    HW168207   0.519   9.556   3.492  2.3184  1.3847  0.3114
18743SOL    HW268208   0.454   9.683   3.542  1.5089  1.0144  0.2141
18744SOL     OW68209   6.311   0.362   3.212 -0.2413  0.0203  0.2030
18744SOL    HW168210   6.237   0.374   3.152  0.3198 -0.2339 -0.5624
18744SOL    HW268211   6.327   0.268   3.213  0.7030  0.1568 -0.4433
18745SOL     OW68212   8.007   3.444   8.682 -0.9603  0.3441  0.3993
18745SOL    HW168213   7.972   3.358   8.704  0.3056 -0.5303 -0.8086
18745SOL    HW268214   7.991   3.452   8.588  0.3838  0.7084  0.1854
18746SOL     OW68215   7.540   1.220   1.830 -0.7815 -0.2549 -0.2212
18746SOL    HW168216   7.550   1.140   1.778 -1.0593 -0.9261  0.7406
18746SOL    HW268217   7.481   1.196   1.901  0.6784  0.2317  1.2292
18747SOL     OW68218   8.595   1.809   7.517 -0.0256  0.1142 -0.5156
18747SOL    HW168219   8.663   1.773   7.459 -1.4386 -0.7465 -1.7094
18747SOL    HW268220   8.542   1.865   7.460  0.4453  1.8891  0.7017
18748SOL     OW68221   9.893   3.708   3.864  0.5497 -0.0196  0.1018
18748SOL    HW168222   9.951   3.785   3.866  0.9766 -0.3067 -0.6731
18748SOL    HW268223   9.861   3.705   3.774 -0.6325  0.0889  0.5057
18749SOL     OW68224   7.858   6.815   9.105 -0.5909  0.2494 -0.0455
18749SOL    HW168225   7.775   6.767   9.098 -0.2011 -0.6831  1.3818
18749SOL    HW268226   7.874   6.822   9.199  1.2828 -0.1816 -0.2941
18750SOL     OW68227   8.217   5.656   9.181  0.4287 -0.2841  0.9456
18750SOL    HW168228   8.247   5.589   9.120 -1.3241  0.0540 -0.3651
18750SOL    HW268229   8.140   5.618   9.223 -0.2749  0.6766  0.5648
18751SOL     OW68230   1.993   4.010   5.276  0.0948  0.0714  0.1632
18751SOL    HW168231   1.997   3.947   5.205  0.0046  0.2898 -0.0370
18751SOL    HW268232   2.035   3.966   5.350 -1.2402 -0.7766  0.4456
18752SOL     OW68233   9.618   2.976   8.842  0.2453 -0.7424  0.1788
18752SOL    HW168234   9.670   3.039   8.892 -1.6763 -1.3885  3.2393
18752SOL    HW268235   9.682   2.928   8.790  1.9843  2.3139 -0.7827
18753SOL     OW68236   7.222   6.708   4.533 -0.2386 -0.1204 -0.7491
18753SOL    HW168237   7.286   6.744   4.594  1.0130 -1.4675 -1.2139
18753SOL    HW268238   7.140   6.706   4.582  0.5834 -0.5059  0.6495
18754SOL     OW68239   0.165   6.787   7.432  0.1325  0.0371 -0.2867
18754SOL    HW168240   0.167   6.765   7.525  1.3058  0.8938 -0.0913
18754SOL    HW268241   0.199   6.709   7.388 -1.3238 -0.7366 -0.1018
18755SOL     OW68242   8.950   8.687   8.333 -0.0349  0.7090 -0.8636
18755SOL    HW168243   8.972   8.644   8.251 -0.2653 -1.3063  0.0662
18755SOL    HW268244   9.033   8.718   8.367  0.1411  1.0094 -1.5486
18756SOL     OW68245   2.743   0.116   6.299 -0.1827  0.0605 -0.0125
18756SOL    HW168246   2.649   0.101   6.294 -0.1864 -0.5882  1.3737
18756SOL    HW268247   2.760   0.129   6.393  0.7782  2.5540 -0.4511
18757SOL     OW68248   1.955   1.172   8.453  0.0128 -0.2994  0.0419
18757SOL    HW168249   1.884   1.224   8.489 -1.1152 -2.3120  0.9039
18757SOL    HW268250   1.913   1.107   8.398  1.1797 -1.3679  0.3470
18758SOL     OW68251   8.027   9.226   4.520  0.1629  0.4894 -0.3612
18758SOL    HW168252   8.048   9.300   4.576  0.4910  0.6350 -0.6717
18758SOL    HW268253   8.098   9.163   4.535 -1.0460 -0.5663  1.2758
18759SOL     OW68254   3.310   5.445   2.550 -0.3174 -0.3639  0.5723
18759SOL    HW168255   3.344   5.371   2.600 -1.5432 -0.2391  1.6490
18759SOL    HW268256   3.219   5.422   2.532  0.1627 -0.5579 -1.9770
18760SOL     OW68257  10.210   2.517   9.302 -0.1825  0.0515 -0.6189
18760SOL    HW168258  10.116   2.520   9.320 -0.0333 -3.4875  1.8988
18760SOL    HW268259  10.225   2.429   9.266  2.0775  0.8724 -1.9172
18761SOL     OW68260   5.636   7.882   6.238 -0.2967 -0.6201 -0.5378
18761SOL    HW168261   5.629   7.793   6.273 -1.0512 -0.2261  0.3267
18761SOL    HW268262   5.588   7.878   6.155 -1.5695 -0.6592  0.1927
18762SOL     OW68263   1.762   9.461   2.603 -0.2898  0.0401  0.1452
18762SOL    HW168264   1.842   9.509   2.582  0.9266 -0.9732  2.1237
18762SOL    HW268265   1.691   9.523   2.584  0.9077  0.9116 -1.8065
18763SOL     OW68266   9.872   0.121   9.681  0.4328 -0.1135 -0.3336
18763SOL    HW168267   9.907   0.208   9.660 -0.2039  0.1997 -0.1126
18763SOL    HW268268   9.792   0.114   9.629  0.8329 -0.8435 -0.8678
18764SOL     OW68269   8.980   4.336   6.904 -0.7643  0.0898  0.7322
18764SOL    HW168270   8.934   4.341   6.988 -0.9019 -0.6844  0.7067
18764SOL    HW268271   8.944   4.408   6.853 -1.9128 -0.4609  0.7364
18765SOL     OW68272   2.285   6.749   0.617  0.4073  0.2623  0.3217
18765SOL    HW168273   2.356   6.803   0.581  0.4454  0.8375  1.2154
18765SOL    HW268274   2.234   6.811   0.670  0.4579 -0.5868  1.3847
18766SOL     OW68275   0.541   5.710   5.356  0.6275  0.5097  0.1966
18766SOL    HW168276   0.544   5.746   5.267  1.4804 -2.1591 -0.9916
18766SOL    HW268277   0.500   5.624   5.345 -0.2588  0.5610  2.6062
18767SOL     OW68278   7.009   2.424   0.582 -0.5593 -0.3904  0.6068
18767SOL    HW168279   6.995   2.376   0.664 -0.1688  0.6142  1.2803
18767SOL    HW268280   6.922   2.454   0.557 -0.4195  1.1716  1.8529
18768SOL     OW68281   6.244   9.342   7.082  0.0466 -0.2971 -0.1141
18768SOL    HW168282   6.331   9.329   7.122  1.3803  3.7976 -1.2292
18768SOL    HW268283   6.252   9.304   6.995  0.6469 -0.1487 -0.1283
18769SOL     OW68284   8.947   1.355   9.900 -0.5470 -0.2811  0.2560
18769SOL    HW168285   8.983   1.319   9.980 -2.2761  0.4467  1.4191
18769SOL    HW268286   9.018   1.409   9.864 -0.1226  0.3304  1.9295
18770SOL     OW68287   7.184   6.372   0.764 -0.3566 -0.1207  0.2398
18770SOL    HW168288   7.189   6.395   0.671  0.6478  1.0975  0.5785
18770SOL    HW268289   7.107   6.315   0.770 -0.9740  0.5219 -1.1815
18771SOL     OW68290   0.200   6.205   3.370 -0.2865 -0.0638 -0.4769
18771SOL    HW168291   0.210   6.222   3.276  2.4955  0.3348 -0.1718
18771SOL    HW268292   0.219   6.288   3.412  1.6194 -0.9570  0.5381
18772SOL     OW68293   7.550   8.892   3.048 -0.2923  0.2991 -0.7771
18772SOL    HW168294   7.463   8.932   3.051 -0.4322 -0.0182 -0.4727
18772SOL    HW268295   7.607   8.960   3.013 -0.6872  0.4690 -1.0939
18773SOL     OW68296   5.862   3.606   5.242 -0.4374 -0.4734  0.1810
18773SOL    HW168297   5.857   3.537   5.308  1.7003 -1.9112 -1.0396
18773SOL    HW268298   5.950   3.642   5.253  0.4008 -1.4764 -2.4768
18774SOL     OW68299   8.048   9.681   5.180  0.7516 -0.3732 -0.1020
18774SOL    HW168300   8.105   9.740   5.228  1.2665 -0.5551 -0.4769
18774SOL    HW268301   8.007   9.627   5.248 -0.1205  0.7401  0.2848
18775SOL     OW68302  10.287   9.894   3.925 -0.5926  0.2788 -0.0107
18775SOL    HW168303  10.379   9.918   3.938 -0.7404  1.1128 -0.4764
18775SOL    HW268304  10.285   9.799   3.937  0.5703  0.0580 -1.3546
18776SOL     OW68305   5.356   9.642   2.238 -0.1894 -0.4340 -0.1996
18776SOL    HW168306   5.307   9.561   2.224  0.5945 -0.7238 -1.3571
18776SOL    HW268307   5.289   9.711   2.242 -0.7993 -1.0317 -0.0218
18777SOL     OW68308   3.013   3.134   8.754  0.1310 -0.8060  0.7691
18777SOL    HW168309   2.929   3.101   8.788 -0.5890 -1.1404 -1.2309
18777SOL    HW268310   3.012   3.227   8.775 -1.8657 -0.2883 -1.2977
18778SOL     OW68311   6.521   4.574   7.873 -0.3277 -0.6194 -0.2876
18778SOL    HW168312   6.498   4.585   7.966 -1.7621  0.8437 -0.7732
18778SOL    HW268313   6.525   4.479   7.862 -0.3300 -0.8319  1.2312
18779SOL     OW68314   1.529  10.311   4.164  0.1121  0.2220  0.3084
18779SOL    HW168315   1.488  10.393   4.137  0.2634 -0.0970 -0.9474
18779SOL    HW268316   1.478  10.243   4.121  1.0937 -0.2411 -0.1587
18780SOL     OW68317   2.246   6.151   1.073 -0.3979 -0.3353  0.0061
18780SOL    HW168318   2.228   6.057   1.069 -1.1903 -0.1889 -0.0959
18780SOL    HW268319   2.268   6.176   0.984 -3.0461  0.0939 -0.6114
18781SOL     OW68320   1.968   5.028   9.205  0.6174  0.3292  0.5341
18781SOL    HW168321   2.049   4.978   9.189  0.9751  0.9275  0.4490
18781SOL    HW268322   1.975   5.103   9.146 -0.7048 -0.3850 -0.5713
18782SOL     OW68323   3.504   8.411   6.954  0.3617  0.3526  0.1542
18782SOL    HW168324   3.547   8.460   6.884  0.4080  0.8726  0.5475
18782SOL    HW268325   3.449   8.347   6.908  0.2719  0.7946 -0.3621
18783SOL     OW68326   6.824   2.083   4.942 -0.0789  0.0516  0.2733
18783SOL    HW168327   6.797   2.021   4.874 -1.5626 -0.3931  1.2227
18783SOL    HW268328   6.914   2.105   4.919  0.0130 -1.3591 -0.8990
18784SOL     OW68329   3.537   5.442   8.770  0.7418  0.0382 -0.9091
18784SOL    HW168330   3.584   5.420   8.851  0.3040  0.5233 -0.5155
18784SOL    HW268331   3.454   5.479   8.800  0.7397  0.5849 -1.5739
18785SOL     OW68332  10.150   7.214   8.432 -0.0090 -0.0456  0.3791
18785SOL    HW168333  10.064   7.197   8.472  0.2062  0.6335  1.1686
18785SOL    HW268334  10.162   7.143   8.369 -1.4862  0.2587 -0.2989
18786SOL     OW68335   5.615   8.832   5.829  0.0989  0.1053 -0.2669
18786SOL    HW168336   5.548   8.791   5.884 -0.4419  0.4896 -0.6240
18786SOL    HW268337   5.607   8.787   5.745  2.5505 -2.1985  0.5852
18787SOL     OW68338   2.511   3.205   5.365  0.3393  0.1414  0.0165
18787SOL    HW168339   2.462   3.242   5.292 -0.7737 -0.8757  0.2277
18787SOL    HW268340   2.550   3.125   5.330 -0.2177 -0.3656  0.5186
18788SOL     OW68341   0.602   0.316   3.423 -0.2278 -0.0472  0.2653
18788SOL    HW168342   0.655   0.259   3.367 -0.7323 -1.4492  1.1653
18788SOL    HW268343   0.557   0.374   3.362  1.2960  0.2903 -0.5966
18789SOL     OW68344   4.022   2.078   4.701  0.0584  0.0737  0.1457
18789SOL    HW168345   4.065   2.018   4.761  0.3285 -0.5879 -0.6877
18789SOL    HW268346   4.003   2.025   4.623  0.7006  1.1500 -0.7810
18790SOL     OW68347   5.708   1.542   3.055  0.3072  0.4022  0.0701
18790SOL    HW168348   5.729   1.576   3.142  0.2166 -0.0479  0.2749
18790SOL    HW268349   5.736   1.450   3.058  4.1203  1.3036 -1.7013
18791SOL     OW68350   1.102   4.499   5.501 -0.5487 -0.5493  0.2484
18791SOL    HW168351   1.058   4.545   5.428 -0.9092 -1.2033  0.0483
18791SOL    HW268352   1.033   4.486   5.566 -0.2831 -0.1909  0.6032
18792SOL     OW68353   0.458   6.348   5.840  0.3694 -0.2411  0.1046
18792SOL    HW168354   0.432   6.429   5.884  2.0306  0.2589  0.2317
18792SOL    HW268355   0.465   6.284   5.911  0.6266 -0.0698  0.2371
18793SOL     OW68356   2.921   7.412   2.587 -0.3403 -0.4592  0.3495
18793SOL    HW168357   2.976   7.484   2.557 -0.9938  0.8811  2.1615
18793SOL    HW268358   2.937   7.407   2.681 -1.4410 -1.6812  0.5016
18794SOL     OW68359   2.438   3.699   8.971  0.2181 -0.3925 -0.2441
18794SOL    HW168360   2.510   3.654   8.927 -0.8612 -0.2324 -2.3128
18794SOL    HW268361   2.467   3.790   8.978  0.3274 -0.3733 -0.8749
18795SOL     OW68362   7.167   9.985   7.430 -0.4997  0.0947 -0.2774
18795SOL    HW168363   7.132  10.002   7.343  0.1752 -2.0710 -1.0276
18795SOL    HW268364   7.237   9.921   7.416 -0.9296 -0.9490  1.9329
18796SOL     OW68365   0.268   0.285   6.046 -1.0817  0.2415 -0.2987
18796SOL    HW168366   0.274   0.361   6.105 -1.6791 -1.0672  1.5374
18796SOL    HW268367   0.330   0.222   6.082 -0.7972 -0.2773 -1.6370
18797SOL     OW68368   2.805   7.912   5.220  0.1593  0.3190 -0.4133
18797SOL    HW168369   2.737   7.978   5.232  0.0566  0.4459 -1.5790
18797SOL    HW268370   2.757   7.834   5.192  0.3849  0.0560 -0.0766
18798SOL     OW68371   5.017   0.820  10.287 -0.4832 -0.0785 -0.3955
18798SOL    HW168372   4.972   0.821  10.203 -1.1333  1.1141 -0.0553
18798SOL    HW268373   4.960   0.770  10.345 -2.4886  3.0632  0.5683
18799SOL     OW68374   8.262   3.050   5.829 -0.2622 -0.0105 -0.1116
18799SOL    HW168375   8.325   2.978   5.824 -1.5168 -1.1170 -0.5626
18799SOL    HW268376   8.177   3.006   5.837 -1.2717  1.3743 -2.4271
18800SOL     OW68377   0.500   0.571   8.158 -0.3278  0.1194 -0.0702
18800SOL    HW168378   0.436   0.568   8.229  0.9075 -2.2217  1.0584
18800SOL    HW268379   0.514   0.479   8.135  2.4210  0.5409 -0.4246
18801SOL     OW68380   1.081   2.082   2.734  0.0946  0.2359  0.0373
18801SOL    HW168381   1.011   2.146   2.727 -2.0917 -1.6208  2.5346
18801SOL    HW268382   1.077   2.033   2.652 -1.7236  0.0572  0.1881
18802SOL     OW68383   0.088   4.365   7.156 -0.0134 -0.0535 -0.3426
18802SOL    HW168384   0.004   4.384   7.196  0.5207  0.8015  0.4130
18802SOL    HW268385   0.133   4.449   7.152  1.2041 -0.6388  0.2152
18803SOL     OW68386   4.006   1.107   4.522  0.5454  0.1341 -1.3746
18803SOL    HW168387   3.912   1.108   4.500  0.2955  2.0065 -0.3905
18803SOL    HW268388   4.021   1.019   4.555 -1.3474  0.3660  0.3049
18804SOL     OW68389   6.195   5.020   8.508  1.1077 -0.2022  0.1040
18804SOL    HW168390   6.153   4.936   8.525 -1.2443  0.9723  0.4323
18804SOL    HW268391   6.123   5.080   8.490  2.7879  1.4463 -1.6473
18805SOL     OW68392   7.182   6.618   9.816  0.2862  0.3084 -0.0156
18805SOL    HW168393   7.129   6.683   9.863  1.0099 -0.6957  2.3595
18805SOL    HW268394   7.271   6.652   9.821  0.5366 -0.3973  0.4254
18806SOL     OW68395   1.597   9.149   2.384 -0.0807  0.3266 -0.3209
18806SOL    HW168396   1.540   9.079   2.418  1.5469 -0.0233  1.9093
18806SOL    HW268397   1.537   9.217   2.355 -1.6751 -0.4256  1.0408
18807SOL     OW68398   3.406   3.298   6.280 -0.3223  0.6687  0.1586
18807SOL    HW168399   3.495   3.276   6.307 -0.8029 -2.1087 -0.1938
18807SOL    HW268400   3.417   3.369   6.217  2.0508 -1.5875 -2.2562
18808SOL     OW68401   3.830   9.186   2.391  0.1458 -0.0392 -0.3620
18808SOL    HW168402   3.840   9.161   2.483  1.4906 -0.2181 -0.5313
18808SOL    HW268403   3.799   9.107   2.348  1.2668 -0.5024 -0.3517
18809SOL     OW68404   0.130   4.741   1.450  0.0374  0.1753  0.2834
18809SOL    HW168405   0.056   4.682   1.441  0.2853  0.1494 -2.0728
18809SOL    HW268406   0.093   4.828   1.436  0.2342  0.2803  0.4093
18810SOL     OW68407   2.308   6.053   0.702 -0.4949 -0.6895  0.3951
18810SOL    HW168408   2.299   6.042   0.607  0.1657 -0.5914  0.3209
18810SOL    HW268409   2.272   6.140   0.720  1.1205  0.1009 -0.0342
18811SOL     OW68410  10.048   0.541   2.678  0.2632 -0.4064  0.9346
18811SOL    HW168411  10.006   0.627   2.676  0.0796 -0.4750  1.7085
18811SOL    HW268412  10.019   0.502   2.760 -2.0505 -2.4121 -0.6937
18812SOL     OW68413   4.963   0.601   0.742 -0.4013  1.2130 -0.1591
18812SOL    HW168414   4.876   0.627   0.711 -0.9783  0.9043  1.1218
18812SOL    HW268415   4.962   0.621   0.836  0.2950 -0.3567  0.2157
18813SOL     OW68416   3.184   3.495   1.496  0.1792 -0.1230 -0.3488
18813SOL    HW168417   3.193   3.467   1.587  1.4530 -3.7884 -1.4520
18813SOL    HW268418   3.271   3.523   1.470 -0.0061  0.1666 -0.6764
18814SOL     OW68419   8.115   5.782   5.051 -0.6374 -0.1397 -0.3765
18814SOL    HW168420   8.093   5.829   4.971 -0.3144  2.5184  1.0009
18814SOL    HW268421   8.183   5.720   5.025 -0.6263  0.5693 -2.1759
18815SOL     OW68422   8.539   9.582   1.727 -0.0193  0.0472 -0.5046
18815SOL    HW168423   8.461   9.530   1.741 -0.3679  0.7612  0.3261
18815SOL    HW268424   8.520   9.633   1.648 -0.1374 -0.2460 -0.6650
18816SOL     OW68425   0.204   3.268   3.085 -0.2336  0.5760 -0.0947
18816SOL    HW168426   0.222   3.266   3.179 -3.5840 -1.2491  0.6726
18816SOL    HW268427   0.271   3.211   3.047  0.6760  0.6769  1.2805
18817SOL     OW68428   6.694   7.698   7.330 -0.7258  0.6482 -0.3195
18817SOL    HW168429   6.742   7.738   7.402  2.3873 -0.7826 -1.4223
18817SOL    HW268430   6.687   7.767   7.265 -1.3500  1.2388  0.3563
18818SOL     OW68431  10.182  10.365   2.270 -0.0306  0.2559  0.0836
18818SOL    HW168432  10.157  10.363   2.362  0.5309  2.4407  0.3397
18818SOL    HW268433  10.131  10.296   2.229 -1.0598 -0.0685  1.8535
18819SOL     OW68434   4.804   4.996   7.563  0.4842 -0.2225  0.6271
18819SOL    HW168435   4.831   5.087   7.550  0.0567 -0.3576 -1.7154
18819SOL    HW268436   4.771   4.993   7.653  0.4141  1.9485  0.7206
18820SOL     OW68437   9.072   3.592   5.095 -0.3702  0.2009 -0.3449
18820SOL    HW168438   9.087   3.497   5.091 -0.0867  0.2140  0.3970
18820SOL    HW268439   9.056   3.617   5.004  2.0754 -0.1353 -0.9299
18821SOL     OW68440   7.545  10.029   9.982 -0.7770 -0.0086 -0.7829
18821SOL    HW168441   7.567  10.028   9.889 -0.5258 -3.3147 -0.8043
18821SOL    HW268442   7.459  10.071   9.986 -0.4591  0.8831 -2.3665
18822SOL     OW68443  10.058   5.306   9.260  0.3354  0.2570  0.5552
18822SOL    HW168444  10.113   5.286   9.185 -0.7229  0.0138 -0.1724
18822SOL    HW268445  10.048   5.402   9.258  1.1309  0.3564  0.9900
18823SOL     OW68446   6.579  10.345   3.368 -0.0121  0.3342  0.1039
18823SOL    HW168447   6.615  10.388   3.446 -0.0280 -1.4379  1.1437
18823SOL    HW268448   6.498  10.305   3.398 -0.1711 -0.1255 -0.8925
18824SOL     OW68449   7.628   5.075   4.607 -0.0323  0.9560  0.3335
18824SOL    HW168450   7.713   5.078   4.651 -0.4408  1.0839  1.1378
18824SOL    HW268451   7.649   5.059   4.515  0.8429  0.5980  0.5816
18825SOL     OW68452   3.222   5.196   6.962  0.4778  0.5354  0.0952
18825SOL    HW168453   3.157   5.232   6.902  0.5977  0.7646  0.1041
18825SOL    HW268454   3.210   5.246   7.043  1.2979  1.2171 -0.1959
18826SOL     OW68455  10.091   6.196   5.687 -0.1302 -0.4694  0.6912
18826SOL    HW168456  10.016   6.163   5.736 -1.1676  2.0482  0.9509
18826SOL    HW268457  10.148   6.235   5.753 -0.2896  0.6710  0.1716
18827SOL     OW68458   2.114   3.586   8.206 -0.4771 -0.1546 -1.2584
18827SOL    HW168459   2.118   3.644   8.282 -0.4787 -3.4755  1.5215
18827SOL    HW268460   2.032   3.538   8.216  0.7908 -2.6063 -1.7076
18828SOL     OW68461   8.929   2.913   9.331 -0.3023  0.3369  0.0251
18828SOL    HW168462   8.949   2.827   9.292  0.2298  0.4709 -0.0140
18828SOL    HW268463   8.839   2.932   9.304 -1.3224 -1.2995  2.0086
18829SOL     OW68464   9.409   0.608   7.997 -0.2020 -0.3045 -0.2246
18829SOL    HW168465   9.352   0.630   7.923  1.9050  0.0291 -1.8416
18829SOL    HW268466   9.350   0.601   8.071 -2.2650  0.5929 -1.6876
18830SOL     OW68467   4.472   2.180  10.191  0.1460 -0.2014  0.0119
18830SOL    HW168468   4.434   2.156  10.106  1.3167 -1.0915 -0.2838
18830SOL    HW268469   4.419   2.134  10.255  0.0276 -0.5404 -0.3240
18831SOL     OW68470   2.047   0.317   7.857 -1.0732  0.5990  0.2377
18831SOL    HW168471   2.011   0.231   7.882 -0.0078  0.2549  0.6330
18831SOL    HW268472   2.089   0.302   7.772 -1.4748  0.8950 -0.0147
18832SOL     OW68473   8.373   5.956   6.673 -0.5380  0.2110 -0.1899
18832SOL    HW168474   8.432   6.029   6.694 -1.7945  0.8558  1.3852
18832SOL    HW268475   8.416   5.879   6.711  0.0256  0.4056 -0.4236
18833SOL     OW68476   0.870   9.979   3.324 -0.6539  0.1069 -0.3086
18833SOL    HW168477   0.804  10.045   3.301 -0.5927 -0.1783 -1.3438
18833SOL    HW268478   0.897  10.002   3.413 -0.9444  1.2224 -0.4975
18834SOL     OW68479   3.308   3.592   6.424  0.0662 -0.3005 -0.2087
18834SOL    HW168480   3.401   3.568   6.426  0.3765  0.9307  1.0742
18834SOL    HW268481   3.268   3.534   6.489  0.0832 -0.2239 -0.1305
18835SOL     OW68482   6.873   0.335   3.440  0.4525  0.0001  0.2064
18835SOL    HW168483   6.830   0.384   3.371  1.7932  3.1518  1.4120
18835SOL    HW268484   6.957   0.380   3.454  1.3390 -2.0202  2.1868
18836SOL     OW68485   9.215   0.267  10.189  0.4805  0.2003 -0.1793
18836SOL    HW168486   9.130   0.271  10.146  1.4659 -0.0695 -2.2508
18836SOL    HW268487   9.213   0.185  10.238 -0.2105 -0.1179 -0.7171
18837SOL     OW68488   1.142   0.238   1.987 -0.3150 -0.0197  0.2871
18837SOL    HW168489   1.214   0.191   1.946 -0.6157  0.5018 -0.8898
18837SOL    HW268490   1.184   0.298   2.048  0.1832 -0.3586  0.2833
18838SOL     OW68491   4.795   7.757   4.155  0.1439 -0.6145  0.1602
18838SOL    HW168492   4.774   7.741   4.247 -2.8282 -1.7050 -0.5903
18838SOL    HW268493   4.760   7.844   4.137  0.1816 -0.6443 -0.0618
18839SOL     OW68494   7.730   2.200   8.197 -0.0798 -0.0952 -0.2171
18839SOL    HW168495   7.745   2.215   8.104  1.6020  0.2337  0.0636
18839SOL    HW268496   7.684   2.116   8.201  0.1295 -0.2740 -1.3336
18840SOL     OW68497   9.994   5.178   2.029  0.0226 -0.1577  0.1128
18840SOL    HW168498   9.903   5.150   2.031 -0.1121  0.2922  1.3735
18840SOL    HW268499   9.993   5.258   1.977 -0.1164 -0.7139 -0.7624
18841SOL     OW68500   5.542   5.951   0.477  0.1502  0.4345 -0.2380
18841SOL    HW168501   5.563   5.865   0.441  0.8890 -0.8844  3.0191
18841SOL    HW268502   5.463   5.936   0.530 -0.4119  2.0655 -0.5523
18842SOL     OW68503   1.558   5.778   4.339 -0.0582 -0.2832 -0.2478
18842SOL    HW168504   1.485   5.826   4.378 -0.0859 -0.1576 -0.4544
18842SOL    HW268505   1.550   5.689   4.374 -0.5891 -0.3974 -0.6479
18843SOL     OW68506   8.747   0.864   2.314 -0.4196 -0.3741  0.1438
18843SOL    HW168507   8.829   0.816   2.303 -1.1841 -1.7605  0.2269
18843SOL    HW268508   8.714   0.836   2.399 -1.6723 -0.9958 -0.5064
18844SOL     OW68509  10.204   4.055   3.042  0.2070 -0.0622  0.1156
18844SOL    HW168510  10.151   4.064   3.122  2.6021  1.3878  1.6554
18844SOL    HW268511  10.286   4.017   3.072  1.9801  2.4542 -1.1991
18845SOL     OW68512   1.391   7.877   9.509 -0.0228  0.1243  0.2753
18845SOL    HW168513   1.350   7.819   9.445  0.5218  0.2638 -0.2134
18845SOL    HW268514   1.484   7.855   9.504  0.2946  1.4981 -0.4293
18846SOL     OW68515   6.545   2.229   7.219 -0.5969  0.0294  0.2566
18846SOL    HW168516   6.463   2.264   7.184 -0.3259  0.7011  0.2744
18846SOL    HW268517   6.568   2.289   7.290  0.2439  0.2433 -0.1769
18847SOL     OW68518   0.555   4.225   7.352 -0.3409 -0.1137 -0.4002
18847SOL    HW168519   0.484   4.216   7.289 -0.0566 -0.0571 -0.7294
18847SOL    HW268520   0.520   4.283   7.420 -1.1376 -1.2556  0.2108
18848SOL     OW68521   3.558   3.770   6.073 -0.2894 -0.0641  0.2407
18848SOL    HW168522   3.540   3.859   6.043  0.1442  0.3042  1.0518
18848SOL    HW268523   3.602   3.781   6.157  1.2964 -0.9987 -0.4150
18849SOL     OW68524   1.462   3.022   7.255  0.0941  0.2632  0.2354
18849SOL    HW168525   1.489   2.942   7.211 -0.0761  0.7510 -0.7799
18849SOL    HW268526   1.529   3.086   7.232 -0.0129  0.5401  0.6692
18850SOL     OW68527   9.773   7.485   9.506 -0.4311 -0.6960 -0.1160
18850SOL    HW168528   9.685   7.494   9.470 -0.3757  2.7272  0.3175
18850SOL    HW268529   9.831   7.513   9.436  0.0690  0.1627  0.6148
18851SOL     OW68530   3.254   3.769   0.582  0.2576 -0.0326  0.1064
18851SOL    HW168531   3.195   3.694   0.592 -0.5076  0.5951  0.2906
18851SOL    HW268532   3.197   3.845   0.578  1.0283  0.5374 -0.2299
18852SOL     OW68533   5.286   0.531   5.882  0.1117 -0.0878  0.2616
18852SOL    HW168534   5.357   0.472   5.907 -0.6082 -0.8959  0.3911
18852SOL    HW268535   5.283   0.596   5.953  2.0748  1.2083 -0.7245
18853SOL     OW68536  10.339   3.072   7.027  0.5965  0.5847  0.1298
18853SOL    HW168537  10.327   3.154   7.075  1.0860  0.8062 -0.1132
18853SOL    HW268538  10.254   3.056   6.986  0.5416  1.0583  0.0518
18854SOL     OW68539   9.449   5.342   8.377  0.3564 -0.2774 -0.3484
18854SOL    HW168540   9.490   5.405   8.319 -0.7782 -0.8755 -1.8844
18854SOL    HW268541   9.521   5.302   8.425  1.2071  1.1665 -0.3859
18855SOL     OW68542   6.861   9.472   7.054 -0.1912 -0.0553  0.4912
18855SOL    HW168543   6.845   9.384   7.089  0.7326 -0.0758  0.8965
18855SOL    HW268544   6.791   9.486   6.990 -0.9510 -0.6749  1.1637
18856SOL     OW68545   1.956   9.576   8.408 -0.3140 -0.1326 -0.2363
18856SOL    HW168546   1.978   9.664   8.440 -1.4732  0.8765 -2.0280
18856SOL    HW268547   2.018   9.518   8.452 -1.0891  1.2263  2.9087
18857SOL     OW68548   6.581  10.003   5.157  0.4100  0.3623 -0.1628
18857SOL    HW168549   6.633   9.966   5.086 -0.0813 -2.2614  0.7253
18857SOL    HW268550   6.619   9.966   5.236 -0.9827  0.7216  0.7134
18858SOL     OW68551   9.509   2.537   5.200  0.0189 -0.0030 -0.2394
18858SOL    HW168552   9.417   2.512   5.191  0.1345 -0.1826 -1.0265
18858SOL    HW268553   9.515   2.622   5.156  0.7564 -1.2254 -2.6323
18859SOL     OW68554   2.273   1.578   9.368  0.3022  0.6651 -0.4474
18859SOL    HW168555   2.206   1.526   9.413 -0.1448  1.0463 -0.6672
18859SOL    HW268556   2.266   1.665   9.406  1.9801  0.2568  0.9055
18860SOL     OW68557   0.410   8.711   3.539 -0.6066  0.3225 -0.2986
18860SOL    HW168558   0.473   8.748   3.476  1.0024 -0.5095  0.7553
18860SOL    HW268559   0.464   8.673   3.608 -2.2764 -0.7175  0.5137
18861SOL     OW68560   7.980   0.208   7.499  0.3580  0.5963 -0.4104
18861SOL    HW168561   8.011   0.197   7.589 -2.5330  0.1518  0.6367
18861SOL    HW268562   8.016   0.292   7.472  1.6869  0.5148  0.9665
18862SOL     OW68563   8.470   5.559  10.260 -0.6818  0.1150 -0.3278
18862SOL    HW168564   8.397   5.617  10.237  0.8327  2.0687 -0.4082
18862SOL    HW268565   8.546   5.597  10.217  0.6601 -1.0689  0.8837
18863SOL     OW68566   0.402   2.470   5.229  0.0448 -0.1030  0.1810
18863SOL    HW168567   0.443   2.414   5.164 -0.0582 -0.8520  0.7425
18863SOL    HW268568   0.311   2.477   5.201  0.3410  0.9048 -0.6225
18864SOL     OW68569   3.806   5.466   4.974 -0.1415 -0.2776 -0.2787
18864SOL    HW168570   3.794   5.412   5.052  1.6698 -0.2890  0.0515
18864SOL    HW268571   3.718   5.493   4.948 -0.8555 -1.1906  1.1138
18865SOL     OW68572   7.314   2.327   3.579  0.4169 -0.4068  0.1163
18865SOL    HW168573   7.329   2.352   3.488 -2.6453 -1.0955 -0.6851
18865SOL    HW268574   7.298   2.233   3.577  2.1985 -0.8124  1.7062
18866SOL     OW68575   9.612   8.819   8.172  0.1572  0.1127 -0.3028
18866SOL    HW168576   9.679   8.824   8.104 -0.2087 -0.9041 -0.7583
18866SOL    HW268577   9.615   8.728   8.203  0.7852  0.7076  1.5523
18867SOL     OW68578   8.475   1.547   7.630  0.2759 -0.4371  0.7564
18867SOL    HW168579   8.453   1.616   7.567  0.1994 -2.1999 -1.2685
18867SOL    HW268580   8.571   1.546   7.632  0.2873 -0.6112  0.3457
18868SOL     OW68581   1.460   2.690   0.442 -0.4722  0.4645 -0.2479
18868SOL    HW168582   1.389   2.686   0.506 -0.6165 -1.7087 -0.4603
18868SOL    HW268583   1.430   2.751   0.375 -2.6016 -1.1096 -0.8249
18869SOL     OW68584   8.499   7.287   0.349  0.4863  0.2684 -0.2495
18869SOL    HW168585   8.529   7.249   0.431 -0.4043  0.1434  0.0254
18869SOL    HW268586   8.518   7.380   0.357 -2.1641  0.7724  1.3213
18870SOL     OW68587   7.622   8.317   3.593  0.1735  0.1983  0.5940
18870SOL    HW168588   7.583   8.375   3.658  1.7018  0.6349  1.1461
18870SOL    HW268589   7.686   8.371   3.547  0.1262 -0.4959 -0.3260
18871SOL     OW68590   9.174   0.131   0.108  0.0994  0.3103 -0.0723
18871SOL    HW168591   9.183   0.073   0.033 -1.7679 -1.2024  0.7934
18871SOL    HW268592   9.099   0.186   0.086 -0.5749 -0.2703  0.7347
18872SOL     OW68593   7.751   6.552   6.084  0.1339 -0.2318  0.0585
18872SOL    HW168594   7.674   6.554   6.141  0.1058  1.2095 -0.0089
18872SOL    HW268595   7.742   6.471   6.034 -1.6810  0.2282 -0.4138
18873SOL     OW68596   8.127   6.058   3.918 -0.2389 -0.2754  0.2824
18873SOL    HW168597   8.138   6.153   3.922  0.9674 -0.4341  1.3496
18873SOL    HW268598   8.197   6.029   3.860 -0.8536 -0.4945 -0.3645
18874SOL     OW68599   9.203   5.397   2.080  0.3938  0.1344 -0.5882
18874SOL    HW168600   9.111   5.400   2.107  0.5769  1.8738 -0.0585
18874SOL    HW268601   9.250   5.434   2.154  1.6416 -1.4851 -0.5152
18875SOL     OW68602   4.136   7.059   5.831  0.3057  0.2386 -0.1003
18875SOL    HW168603   4.182   6.991   5.880  0.6829 -0.1526 -0.9828
18875SOL    HW268604   4.058   7.077   5.884  0.6175 -0.2921  0.5584
18876SOL     OW68605   4.768   5.989   0.445  0.0156  0.3368  0.4116
18876SOL    HW168606   4.803   5.939   0.371 -2.0228  1.6337 -1.5605
18876SOL    HW268607   4.803   6.077   0.434  0.0033  0.4512  1.2387
18877SOL     OW68608   9.817   9.480   1.721  0.1329  0.6327 -0.1552
18877SOL    HW168609   9.791   9.434   1.800  0.4966 -1.1766 -1.0412
18877SOL    HW268610   9.906   9.511   1.740  0.9398 -1.3579 -0.4347
18878SOL     OW68611   2.061   8.190   2.978  0.7892 -0.2536  0.0579
18878SOL    HW168612   2.101   8.152   3.056  0.7480 -0.7750 -0.1701
18878SOL    HW268613   1.972   8.157   2.978  0.8093 -0.3160 -0.2446
18879SOL     OW68614   0.201   2.851   6.228  0.5299 -0.1634 -0.0618
18879SOL    HW168615   0.136   2.921   6.227  0.2953 -0.3775 -1.6102
18879SOL    HW268616   0.282   2.893   6.198  0.4224 -0.5009 -0.8510
18880SOL     OW68617   9.086   0.212   3.452 -0.1352  0.1349  0.1377
18880SOL    HW168618   9.115   0.125   3.424  2.3715  0.5506  1.2195
18880SOL    HW268619   9.096   0.267   3.375 -1.4319 -0.4271 -0.4647
18881SOL     OW68620   3.160   1.531   6.047 -0.2495  0.5807  0.3088
18881SOL    HW168621   3.200   1.467   5.987  0.4569  1.0157  0.3050
18881SOL    HW268622   3.233   1.583   6.079 -0.9570  2.3522 -0.8078
18882SOL     OW68623   8.577   1.187   5.489 -0.3271  0.1535  0.1766
18882SOL    HW168624   8.649   1.245   5.463  0.5887 -0.7569  0.5787
18882SOL    HW268625   8.514   1.245   5.532  0.0355  1.0164 -0.4121
18883SOL     OW68626   4.419   1.426   7.690  0.3980 -0.2293  0.2231
18883SOL    HW168627   4.388   1.491   7.627  1.2195  1.4785  1.5083
18883SOL    HW268628   4.497   1.387   7.649 -0.1118 -0.4513 -0.5615
18884SOL     OW68629   1.203   2.799   6.523  0.0092  0.1117 -0.0140
18884SOL    HW168630   1.239   2.772   6.607 -0.0910  2.2405  0.7683
18884SOL    HW268631   1.139   2.731   6.501  1.5931 -1.6296  0.4999
18885SOL     OW68632   9.219   8.696   2.961  0.3438 -0.5755  0.8287
18885SOL    HW168633   9.302   8.664   2.995  0.4418 -1.8064 -0.4657
18885SOL    HW268634   9.207   8.782   3.002  2.3196 -0.3042  0.8984
18886SOL     OW68635   5.619   6.574   5.696 -0.3627  0.4819  0.4920
18886SOL    HW168636   5.672   6.555   5.773  0.0934  0.8055  0.2661
18886SOL    HW268637   5.603   6.669   5.700 -0.5960  0.4502  0.3561
18887SOL     OW68638   6.783   3.448   7.791  0.2769 -0.3194 -0.5143
18887SOL    HW168639   6.758   3.458   7.882 -0.5143 -0.8904 -0.6552
18887SOL    HW268640   6.866   3.401   7.794 -0.1761 -1.1176 -0.1020
18888SOL     OW68641   5.209   0.469   1.271 -0.1169  0.2891  0.1476
18888SOL    HW168642   5.213   0.536   1.339  1.6103 -0.6424  1.0180
18888SOL    HW268643   5.295   0.472   1.230  0.0718 -1.5189  0.3491
18889SOL     OW68644   8.998   5.575   0.489 -0.2610  0.5706  0.2700
18889SOL    HW168645   8.953   5.617   0.416 -0.5707 -0.7979 -0.3635
18889SOL    HW268646   8.932   5.519   0.530  0.8152 -1.5608 -0.7426
18890SOL     OW68647   6.332   7.751   6.800 -0.2123 -0.4766  0.0204
18890SOL    HW168648   6.373   7.814   6.741 -0.0584 -1.2923 -0.7611
18890SOL    HW268649   6.277   7.804   6.857  0.9838  0.5155  0.2974
18891SOL     OW68650   5.713   8.480   4.418  0.3685 -0.5153 -0.0852
18891SOL    HW168651   5.701   8.518   4.331 -2.2268  0.2902  0.5520
18891SOL    HW268652   5.715   8.554   4.477 -0.0919 -1.1543  0.7534
18892SOL     OW68653   4.378   4.746   7.534  0.5974 -0.7126 -0.2534
18892SOL    HW168654   4.321   4.734   7.610 -0.4490 -0.1029 -0.9263
18892SOL    HW268655   4.318   4.752   7.460  1.5664 -0.4628 -1.0320
18893SOL     OW68656   1.463   3.944   9.118  0.3700  0.1331 -0.0772
18893SOL    HW168657   1.468   3.892   9.198  1.1443  0.3358  0.0186
18893SOL    HW268658   1.433   3.882   9.051  0.6729 -0.2810  0.1658
18894SOL     OW68659   9.060   8.452   6.942  0.4694  0.5497  0.6164
18894SOL    HW168660   9.155   8.449   6.933  0.6449  1.9574  1.7441
18894SOL    HW268661   9.028   8.451   6.851  1.4395 -1.7499  0.2296
18895SOL     OW68662   8.953   7.490   9.126  0.4168 -0.0165  0.3572
18895SOL    HW168663   8.942   7.571   9.075 -0.4642 -0.5645 -0.3591
18895SOL    HW268664   9.044   7.466   9.114  0.2539 -0.0681 -0.8902
18896SOL     OW68665   1.030   0.847   5.278 -0.4454  0.0340  0.5039
18896SOL    HW168666   1.005   0.937   5.260 -0.2304 -0.0139 -0.0577
18896SOL    HW268667   1.009   0.799   5.198  0.1127 -0.2763  0.5371
18897SOL     OW68668   1.481   9.742   1.853  0.0588 -0.2060  0.7668
18897SOL    HW168669   1.457   9.658   1.814  0.5146  0.5157 -1.1885
18897SOL    HW268670   1.400   9.793   1.853  0.1653 -0.0241  0.2143
18898SOL     OW68671   8.031   4.339   9.137 -0.0708  0.0116  0.6226
18898SOL    HW168672   7.941   4.310   9.124 -0.2878  0.4402  1.1544
18898SOL    HW268673   8.064   4.353   9.048 -0.0353 -1.6004  0.3574
18899SOL     OW68674   1.353   6.141   4.523  0.1697 -0.3040 -0.0185
18899SOL    HW168675   1.438   6.129   4.564  0.2028  0.9234  0.3185
18899SOL    HW268676   1.360   6.225   4.477 -0.3917 -0.8760 -1.1937
18900SOL     OW68677   8.050   2.625   1.996  0.0064 -0.3547 -0.2701
18900SOL    HW168678   7.995   2.666   1.929  0.1743 -0.1642 -0.2930
18900SOL    HW268679   8.125   2.591   1.948  0.9948  1.3094  0.0212
18901SOL     OW68680   8.715   5.914   5.995 -0.0362 -0.0937 -0.1048
18901SOL    HW168681   8.755   5.981   5.939 -0.2806  0.1146 -0.0353
18901SOL    HW268682   8.642   5.960   6.037  0.9311  0.1233  1.3931
18902SOL     OW68683   2.512   4.228   7.771 -0.7061  0.4241  0.3939
18902SOL    HW168684   2.498   4.136   7.796 -0.8662  0.4779  0.4980
18902SOL    HW268685   2.432   4.251   7.722 -0.5519  0.4278  0.1412
18903SOL     OW68686   0.706   4.964   7.574  0.4537 -0.0339 -0.1423
18903SOL    HW168687   0.739   4.879   7.545  0.2410 -0.3451  0.5145
18903SOL    HW268688   0.650   4.944   7.649 -1.4285  0.4704 -1.3708
18904SOL     OW68689   6.330   1.048   9.936  0.8576 -0.1096  0.5333
18904SOL    HW168690   6.411   1.095   9.955  0.8654 -0.4127  1.3041
18904SOL    HW268691   6.351   0.993   9.860  0.8753  1.0285 -0.3054
18905SOL     OW68692   1.732   0.799   8.393  0.0864  0.6637 -0.1399
18905SOL    HW168693   1.685   0.760   8.466 -0.0930  0.9934 -0.0767
18905SOL    HW268694   1.663   0.834   8.336  0.2500  1.3024  0.0387
18906SOL     OW68695   1.594  10.197   7.439 -0.1055  0.3913 -0.0029
18906SOL    HW168696   1.530  10.231   7.377  0.4555  1.3426 -0.0835
18906SOL    HW268697   1.672  10.251   7.425  0.6015 -0.5179  0.3284
18907SOL     OW68698   6.145   0.998   0.630  0.0942  0.4714 -0.0290
18907SOL    HW168699   6.129   0.906   0.652  0.2000  0.8928  2.0191
18907SOL    HW268700   6.110   1.008   0.542 -2.8677 -0.7693  0.8867
18908SOL     OW68701   1.279   9.969   6.935 -0.3903 -0.3916  0.5243
18908SOL    HW168702   1.296   9.952   6.842 -0.6171  0.4339  0.3314
18908SOL    HW268703   1.359  10.010   6.966  0.3136 -2.1002  1.0903
18909SOL     OW68704   2.333   2.559   0.450  0.0972  0.1644 -0.1685
18909SOL    HW168705   2.360   2.626   0.387  0.5275 -1.6931 -2.0763
18909SOL    HW268706   2.390   2.484   0.432 -2.5674 -1.9307 -0.5158
18910SOL     OW68707   1.067   1.778   4.918  0.2118  0.2878  0.2181
18910SOL    HW168708   1.061   1.694   4.964  0.3213 -0.5842 -1.3224
18910SOL    HW268709   1.156   1.780   4.883  0.0849  0.8781 -0.0802
18911SOL     OW68710   6.609   6.095   0.913  0.3778 -0.3538  0.1022
18911SOL    HW168711   6.587   6.186   0.891  0.1209  0.4822  3.3654
18911SOL    HW268712   6.681   6.102   0.975  0.8256 -2.4591 -0.1251
18912SOL     OW68713   7.551   8.655   8.005  0.2333 -0.3392 -0.0421
18912SOL    HW168714   7.616   8.613   7.949 -0.4392 -2.7763  0.8968
18912SOL    HW268715   7.468   8.612   7.982 -0.7239  1.2842  0.2091
18913SOL     OW68716   8.554   4.935   2.287 -0.6034  0.0916  0.4240
18913SOL    HW168717   8.645   4.913   2.304 -0.3690  0.3131 -0.4941
18913SOL    HW268718   8.505   4.897   2.361  0.1394 -0.6515  0.5377
18914SOL     OW68719   8.427   9.423   1.926 -0.5491  0.3186 -0.3225
18914SOL    HW168720   8.435   9.439   2.020  0.2579  1.0277 -0.4948
18914SOL    HW268721   8.515   9.437   1.892 -0.7885 -0.1426 -1.1584
18915SOL     OW68722   4.765   8.702   8.441 -0.1103 -0.3277  0.3549
18915SOL    HW168723   4.708   8.643   8.393  0.0309 -0.4663  0.3548
18915SOL    HW268724   4.710   8.740   8.509 -0.6381  0.8168 -0.6701
18916SOL     OW68725   7.055   9.003   9.196 -0.2275  0.2765  0.2296
18916SOL    HW168726   7.000   8.980   9.121 -2.3056  0.8894  1.4861
18916SOL    HW268727   7.085   8.919   9.230 -1.8358 -0.2164  0.5239
18917SOL     OW68728   0.950   3.591   3.865 -0.0336 -0.0870 -0.1333
18917SOL    HW168729   0.962   3.496   3.869  0.3648 -0.0110  0.6847
18917SOL    HW268730   0.870   3.602   3.813  0.2896 -0.8337 -0.8120
18918SOL     OW68731   8.635   8.968   4.400  0.7829  0.2011  0.2627
18918SOL    HW168732   8.641   8.960   4.305  1.7918  0.5080  0.2857
18918SOL    HW268733   8.574   9.039   4.415  0.1401 -0.2542 -0.1383
18919SOL     OW68734   5.186   7.829   4.765  0.0277 -0.1624 -0.1401
18919SOL    HW168735   5.125   7.903   4.768 -2.0275 -1.7898  0.9861
18919SOL    HW268736   5.248   7.847   4.836 -1.1779 -0.0521  0.9220
18920SOL     OW68737   8.880   5.986   6.999  0.2669 -0.3488  0.2875
18920SOL    HW168738   8.791   6.021   6.998 -0.0285 -1.0570 -1.5873
18920SOL    HW268739   8.936   6.064   6.991 -0.1860  0.0532  0.9365
18921SOL     OW68740   2.204   0.978   9.975 -0.1434  0.1110 -0.0320
18921SOL    HW168741   2.271   1.020   9.921  0.7983 -0.3927  0.7263
18921SOL    HW268742   2.142   0.941   9.912  0.1723  0.7602 -0.7382
18922SOL     OW68743   6.488   3.128   2.963  0.0811 -0.2494  0.0834
18922SOL    HW168744   6.558   3.109   2.901  0.3213  1.0350 -0.0539
18922SOL    HW268745   6.413   3.152   2.908 -1.0549 -3.1756  0.1334
18923SOL     OW68746   7.454   4.308   3.243 -0.2053  0.1488  0.0532
18923SOL    HW168747   7.514   4.237   3.219  0.3326  0.6808 -0.1990
18923SOL    HW268748   7.475   4.379   3.183 -0.3298  0.7381  0.6862
18924SOL     OW68749   4.985   3.703   3.113 -0.4383 -1.0069  0.1289
18924SOL    HW168750   5.066   3.724   3.159 -0.4312  0.0871 -0.3515
18924SOL    HW268751   4.915   3.727   3.174 -0.4216  0.1220 -0.2675
18925SOL     OW68752   1.868   1.169   4.997  0.2998  0.0238 -0.5304
18925SOL    HW168753   1.839   1.099   4.939  1.3043 -0.9557  0.1131
18925SOL    HW268754   1.829   1.148   5.082 -0.8205  1.2215 -0.7164
18926SOL     OW68755   5.145   0.325   9.901 -0.1925  0.1033 -0.7254
18926SOL    HW168756   5.157   0.241   9.855 -1.2470 -0.2858 -0.3227
18926SOL    HW268757   5.173   0.308   9.990 -2.1077 -0.3849 -0.1649
18927SOL     OW68758   3.650   5.034   9.288  0.2449 -0.1917  0.3501
18927SOL    HW168759   3.728   5.036   9.233 -0.4527 -0.8982 -0.6856
18927SOL    HW268760   3.624   5.126   9.296  0.7402 -0.0235  0.0687
18928SOL     OW68761   1.255   1.785   4.376 -0.3167 -0.0011 -0.3343
18928SOL    HW168762   1.327   1.778   4.438 -0.4159 -0.2688 -0.2443
18928SOL    HW268763   1.176   1.781   4.430 -0.3998  0.2422 -0.4356
18929SOL     OW68764   9.694   6.443   9.086 -0.1534 -0.1054  0.1366
18929SOL    HW168765   9.708   6.537   9.076 -0.3626  0.0409  1.0695
18929SOL    HW268766   9.728   6.423   9.174  0.2044 -0.9643 -0.1901
18930SOL     OW68767   0.631   3.553   7.881  0.1345 -0.1761 -0.0590
18930SOL    HW168768   0.583   3.636   7.876  0.9879  0.3490  0.3361
18930SOL    HW268769   0.574   3.496   7.933  0.5119  0.8816  1.5993
18931SOL     OW68770   0.074   2.285   7.401  0.1091  0.0184  0.0423
18931SOL    HW168771   0.157   2.328   7.381  0.8891 -0.8030  1.3544
18931SOL    HW268772   0.023   2.291   7.320  1.2545  0.9445 -0.6395
18932SOL     OW68773   9.710   5.306   4.292  0.0084  0.2224  0.4446
18932SOL    HW168774   9.689   5.334   4.381 -1.6602 -0.2599  0.2408
18932SOL    HW268775   9.632   5.259   4.263  0.6241  0.1550 -1.1905
18933SOL     OW68776   1.190   0.644   9.399  0.0063 -0.4372 -0.2789
18933SOL    HW168777   1.255   0.593   9.446 -0.1761 -0.5698 -0.1685
18933SOL    HW268778   1.218   0.735   9.410 -0.5921 -0.3870  0.9504
18934SOL     OW68779   7.316   9.172   0.245 -0.0466  0.2878 -0.2091
18934SOL    HW168780   7.397   9.166   0.295 -0.2304 -0.3741  0.0220
18934SOL    HW268781   7.342   9.150   0.155  0.1737  0.8819 -0.2944
18935SOL     OW68782   7.415   8.237   3.029 -0.1106  0.3584 -0.3366
18935SOL    HW168783   7.498   8.191   3.019 -2.0913 -3.5200 -0.7654
18935SOL    HW268784   7.381   8.244   2.940 -1.0388  0.2036 -0.0054
18936SOL     OW68785   8.768   8.764   6.472  0.6906  0.2063 -0.0638
18936SOL    HW168786   8.854   8.770   6.513  0.8298  1.7087 -0.5119
18936SOL    HW268787   8.706   8.785   6.542  0.8016  0.7579 -0.1260
18937SOL     OW68788   6.212   1.154  10.155  0.2235 -0.4575  0.2295
18937SOL    HW168789   6.302   1.166  10.186 -0.4430  0.3004  1.9783
18937SOL    HW268790   6.221   1.098  10.078  2.2142 -0.1705  0.1927
18938SOL     OW68791   9.728   0.599   7.438 -0.2703  1.0754 -0.5919
18938SOL    HW168792   9.798   0.537   7.458 -1.1546 -0.1108 -1.0905
18938SOL    HW268793   9.726   0.602   7.342 -0.9692  1.0425 -0.5789
18939SOL     OW68794   9.173   5.871   2.647  0.3712  0.0427  0.5148
18939SOL    HW168795   9.082   5.895   2.635  1.0054  2.8526  0.6356
18939SOL    HW268796   9.189   5.801   2.583 -2.1044 -1.4156  1.3422
18940SOL     OW68797   0.463   8.597   7.577 -0.0035 -0.2177 -0.9889
18940SOL    HW168798   0.514   8.536   7.524  0.7508  0.7937 -1.4781
18940SOL    HW268799   0.403   8.542   7.627  2.5352 -1.6159  0.7027
18941SOL     OW68800   6.883   0.260   2.340 -0.1592 -0.3073  0.0940
18941SOL    HW168801   6.856   0.242   2.430 -0.4328  0.8245  0.2569
18941SOL    HW268802   6.954   0.199   2.323 -0.5096 -0.9387  0.8747
18942SOL     OW68803   4.219   4.635   8.064  0.0049 -0.5257  0.0633
18942SOL    HW168804   4.304   4.602   8.093  0.4024  0.4477  0.0354
18942SOL    HW268805   4.227   4.730   8.067 -0.3144 -0.3680 -2.0827
18943SOL     OW68806   8.617   1.147   2.900  0.1994  0.5822 -0.0629
18943SOL    HW168807   8.611   1.109   2.987 -3.3048 -0.5603 -0.6303
18943SOL    HW268808   8.700   1.195   2.899  1.6849 -1.6669  2.9036
18944SOL     OW68809   8.203   5.376   9.483  0.1990 -0.0742 -0.2837
18944SOL    HW168810   8.281   5.400   9.433  0.2243  0.4639  0.0037
18944SOL    HW268811   8.222   5.404   9.573 -0.3097  0.0268 -0.2037
18945SOL     OW68812   5.610  10.067   1.610  0.0393  0.2021  0.0363
18945SOL    HW168813   5.533  10.124   1.622  1.7138  2.2779  1.9071
18945SOL    HW268814   5.639  10.085   1.520 -0.4732  1.0096  0.0163
18946SOL     OW68815   1.428   8.476   9.697  0.6915  0.0186 -0.1034
18946SOL    HW168816   1.493   8.450   9.632  2.2980  0.4345  1.2564
18946SOL    HW268817   1.472   8.544   9.749 -0.7640  0.1706  0.9848
18947SOL     OW68818   6.277   9.398   1.426  0.4831 -0.0755  0.5325
18947SOL    HW168819   6.290   9.357   1.341 -0.5264 -0.1106  0.3926
18947SOL    HW268820   6.364   9.432   1.450  0.4806  1.2720 -1.1874
18948SOL     OW68821   2.281   8.403   3.620  0.1528  0.0737 -0.2832
18948SOL    HW168822   2.196   8.417   3.661  1.2811  1.5535  1.7390
18948SOL    HW268823   2.268   8.428   3.528 -1.6710 -0.2158 -0.1429
18949SOL     OW68824   2.750   6.926   7.969  0.5764 -0.2292 -0.0073
18949SOL    HW168825   2.763   6.994   7.903  0.2470  0.1721  0.3367
18949SOL    HW268826   2.731   6.975   8.050 -3.4991 -0.7140 -0.4791
18950SOL     OW68827   6.489   2.762   8.985  0.3877 -0.1020  0.6183
18950SOL    HW168828   6.568   2.709   8.977 -0.2591 -1.1834  1.2340
18950SOL    HW268829   6.417   2.702   8.964 -0.1988  1.2848 -1.7220
18951SOL     OW68830   8.892   8.160   6.138  0.0416  0.2344 -0.2163
18951SOL    HW168831   8.825   8.137   6.075 -0.1317  0.3354 -0.0692
18951SOL    HW268832   8.963   8.198   6.086  0.3965 -0.7640 -0.4819
18952SOL     OW68833   3.540  10.040   1.730 -0.5118  0.2025 -0.2855
18952SOL    HW168834   3.626  10.076   1.750 -0.5988  0.7512 -0.8461
18952SOL    HW268835   3.500  10.106   1.673 -0.7948 -0.6449 -1.0897
18953SOL     OW68836   8.837   8.779   0.824 -0.0708  0.0472  0.0703
18953SOL    HW168837   8.900   8.718   0.864  1.1320  0.7361 -0.6916
18953SOL    HW268838   8.892   8.849   0.789 -1.3793  1.2592  0.3842
18954SOL     OW68839   7.699   3.476   6.265 -0.2332 -0.0185  0.0877
18954SOL    HW168840   7.786   3.495   6.230 -0.9635  1.7830 -0.8997
18954SOL    HW268841   7.640   3.526   6.209 -1.7709  0.1233  1.7535
18955SOL     OW68842   6.952   9.432   6.527 -0.0629 -0.2077 -0.4289
18955SOL    HW168843   6.920   9.352   6.568  1.1878 -0.5093 -0.0235
18955SOL    HW268844   6.997   9.479   6.597 -1.3122  1.1822 -0.4944
18956SOL     OW68845   3.198   4.079   6.516 -0.0947  0.2134  0.2746
18956SOL    HW168846   3.203   4.108   6.425  1.2395  0.9728  0.5648
18956SOL    HW268847   3.109   4.101   6.544 -0.8783 -0.9721 -1.1293
18957SOL     OW68848   6.349   8.630   0.469  0.1611 -0.1870  0.1585
18957SOL    HW168849   6.358   8.676   0.386 -0.3289  0.6944  0.5692
18957SOL    HW268850   6.426   8.574   0.475 -0.2938 -1.0328 -1.3395
18958SOL     OW68851   7.481  10.137   8.755 -0.3061 -0.5739  0.6978
18958SOL    HW168852   7.386  10.132   8.759 -0.2498 -1.2850  2.8131
18958SOL    HW268853   7.499  10.219   8.709 -1.9879  0.3969  1.6378
18959SOL     OW68854   8.734   8.529   8.404  0.2357  0.1788 -0.5764
18959SOL    HW168855   8.719   8.593   8.473 -0.5042  0.1096 -0.6640
18959SOL    HW268856   8.798   8.570   8.346  3.2870 -0.9412  1.6967
18960SOL     OW68857   3.078   4.737   6.674  0.1032 -0.2292 -0.5931
18960SOL    HW168858   3.028   4.668   6.718 -0.5452 -0.4827 -1.6881
18960SOL    HW268859   3.162   4.739   6.720 -0.8292  0.0968  1.2035
18961SOL     OW68860   8.282   1.288   6.051  0.0989 -0.4595 -0.0922
18961SOL    HW168861   8.341   1.213   6.038  2.0271  0.9033  0.4405
18961SOL    HW268862   8.264   1.288   6.145  1.0747  0.4390  0.0979
18962SOL     OW68863   0.228   3.968   7.846  0.5060 -0.3746 -0.0013
18962SOL    HW168864   0.216   4.053   7.886  3.2741  0.0561  0.1514
18962SOL    HW268865   0.198   3.979   7.756  1.8235  1.1303 -0.2988
18963SOL     OW68866   7.113   8.589   6.360  0.4969  0.2440 -0.4203
18963SOL    HW168867   7.116   8.518   6.295 -0.1001 -0.3148  0.1500
18963SOL    HW268868   7.123   8.669   6.308 -0.2561 -0.1735 -1.2474
18964SOL     OW68869   3.300   3.970   9.788 -0.5122  0.1182 -0.2260
18964SOL    HW168870   3.298   3.899   9.851 -0.7872 -1.7851 -2.2470
18964SOL    HW268871   3.372   4.026   9.817 -0.6547 -0.6418  1.7474
18965SOL     OW68872   2.914   3.227   0.259 -0.2375 -0.1970 -0.1738
18965SOL    HW168873   2.900   3.205   0.167 -1.5877  0.9765 -0.2946
18965SOL    HW268874   2.907   3.143   0.306  1.1211 -0.8964 -1.1816
18966SOL     OW68875   9.660   8.327   5.292 -0.1977  0.1148  0.4931
18966SOL    HW168876   9.724   8.326   5.221  0.0523 -0.8407  0.7173
18966SOL    HW268877   9.708   8.365   5.366 -0.8675  2.4282 -0.1818
18967SOL     OW68878   8.749   9.160   5.522 -0.2258  0.0551  0.4062
18967SOL    HW168879   8.825   9.188   5.471 -1.9696 -0.2594 -2.5541
18967SOL    HW268880   8.760   9.065   5.531 -1.2170 -0.3413 -1.8938
18968SOL     OW68881   4.421   1.090   3.387  0.2674 -0.2736  0.1189
18968SOL    HW168882   4.355   1.158   3.400 -0.1588 -0.9819  1.9483
18968SOL    HW268883   4.492   1.113   3.447  0.7886 -0.6372 -0.3408
18969SOL     OW68884   6.747   7.986  10.184 -0.4759 -0.3206 -0.4781
18969SOL    HW168885   6.808   7.941  10.242 -0.9271 -0.1192  0.1617
18969SOL    HW268886   6.678   7.922  10.167 -0.3274 -0.3919 -0.8302
18970SOL     OW68887   0.289   9.412  10.096 -0.0014 -0.1362 -0.3809
18970SOL    HW168888   0.318   9.333  10.050  0.4179 -0.4089  0.3348
18970SOL    HW268889   0.196   9.397  10.111  0.2782 -0.9711  0.6492
18971SOL     OW68890   3.178   7.938   3.023 -0.2841  0.4213 -0.6648
18971SOL    HW168891   3.245   8.002   3.043 -0.7819  0.3493  1.4956
18971SOL    HW268892   3.224   7.854   3.021 -0.2525  0.3998  0.5664
18972SOL     OW68893   5.960   7.198   1.070  0.0425 -0.6005  0.2817
18972SOL    HW168894   5.944   7.132   1.003  0.2950  0.4485 -0.8523
18972SOL    HW268895   6.054   7.212   1.069  0.0854 -0.7881  1.0766
18973SOL     OW68896   8.382   5.157   2.471  0.2556 -0.2075  0.3266
18973SOL    HW168897   8.394   5.070   2.508  1.4764 -0.2444 -0.1147
18973SOL    HW268898   8.470   5.192   2.462 -0.0937  0.3798 -1.1751
18974SOL     OW68899  10.320   6.127   9.943 -0.4530 -0.2808 -0.1055
18974SOL    HW168900  10.252   6.153   9.881  0.2292 -0.7786 -1.0901
18974SOL    HW268901  10.396   6.180   9.919 -0.6341  0.7328  1.3847
18975SOL     OW68902   5.829   3.572   4.269 -0.1903 -0.3955 -0.1413
18975SOL    HW168903   5.787   3.635   4.211 -1.0769 -1.6348 -0.8926
18975SOL    HW268904   5.879   3.515   4.211  1.2275  0.0424  0.5975
18976SOL     OW68905   2.948  10.009   6.874  0.3006 -0.0557  0.4395
18976SOL    HW168906   2.908   9.935   6.918 -3.3495  1.0801 -0.6278
18976SOL    HW268907   3.002  10.050   6.942 -1.7054 -0.7791  2.6291
18977SOL     OW68908   1.941   6.216   9.299  0.5987 -0.3105 -0.1242
18977SOL    HW168909   1.922   6.296   9.347 -0.4047  0.0297 -1.0297
18977SOL    HW268910   2.028   6.190   9.327 -0.2683 -0.6403  2.5431
18978SOL     OW68911   5.506   9.747   1.299 -0.7402  0.0332 -0.0180
18978SOL    HW168912   5.549   9.712   1.377  0.1180  1.0650 -0.0109
18978SOL    HW268913   5.570   9.736   1.229 -0.9924  0.3349 -0.2992
18979SOL     OW68914   7.205   8.724   7.380 -0.0232 -0.4517  0.0880
18979SOL    HW168915   7.156   8.756   7.304  1.5057  0.4216 -0.5950
18979SOL    HW268916   7.180   8.632   7.387 -0.4427 -0.4788 -1.3087
18980SOL     OW68917   0.728   2.016   5.398  0.2798  0.4498  0.0286
18980SOL    HW168918   0.808   1.963   5.402  0.6032  0.8674 -0.7228
18980SOL    HW268919   0.759   2.106   5.394 -0.2306  0.6178 -0.2250
18981SOL     OW68920   7.030  10.290   3.946  0.9433  0.3151 -0.1632
18981SOL    HW168921   6.942  10.315   3.973  0.7445  0.0150 -0.5110
18981SOL    HW268922   7.041  10.202   3.982  1.0501  0.3049 -0.2237
18982SOL     OW68923   1.639   2.334   4.535  0.1356  0.2439 -0.3515
18982SOL    HW168924   1.722   2.368   4.502  0.4933 -0.1293  0.1512
18982SOL    HW268925   1.614   2.395   4.604 -1.1679  1.6545 -1.9986
18983SOL     OW68926   8.236   4.770   2.295 -0.5119  0.2831  0.3252
18983SOL    HW168927   8.268   4.702   2.236 -1.1167 -0.3111  0.6713
18983SOL    HW268928   8.300   4.771   2.366  0.2546  1.0462 -0.3553
18984SOL     OW68929   3.776   9.730  10.391  0.2310 -0.1842 -0.1324
18984SOL    HW168930   3.827   9.750  10.312  0.6643 -1.5026 -0.2151
18984SOL    HW268931   3.820   9.654  10.429 -1.2600 -0.9191  0.1941
18985SOL     OW68932   0.700   8.804   3.429  0.0735  0.2040 -0.2416
18985SOL    HW168933   0.702   8.899   3.427 -1.0706  0.2385 -0.0327
18985SOL    HW268934   0.787   8.778   3.397  0.6199  1.3079  0.2770
18986SOL     OW68935   8.547   9.091   2.484 -0.5770  0.4719 -0.6541
18986SOL    HW168936   8.579   9.181   2.481  1.7963 -0.0649  2.5892
18986SOL    HW268937   8.625   9.039   2.501 -2.0252 -2.1494 -1.4553
18987SOL     OW68938   1.984   0.900   8.784  0.2876 -0.1706  0.1982
18987SOL    HW168939   2.034   0.915   8.704  0.9136 -1.3532  0.3414
18987SOL    HW268940   1.942   0.984   8.802  0.5649  0.2682 -1.0667
18988SOL     OW68941   0.706   7.992   6.986 -0.3091  0.0769  0.2968
18988SOL    HW168942   0.719   7.898   6.975  1.7406 -0.3062  4.0682
18988SOL    HW268943   0.660   8.001   7.070  1.9169  2.3728  1.4263
18989SOL     OW68944  10.235   0.349   2.293 -0.3963 -0.0174  0.0395
18989SOL    HW168945  10.304   0.286   2.270 -0.5752 -0.7551  1.4207
18989SOL    HW268946  10.281   0.420   2.338 -0.2787  0.5741 -0.9693
18990SOL     OW68947   6.960   5.524   0.676  0.6084 -0.0349  0.3205
18990SOL    HW168948   7.007   5.607   0.688 -1.1678  1.1441 -0.5526
18990SOL    HW268949   6.896   5.522   0.747  0.4231 -0.5116  0.1427
18991SOL     OW68950   7.118   9.077   1.111 -0.0610  1.0567 -0.5249
18991SOL    HW168951   7.170   9.060   1.032 -0.4432  0.3625 -0.6329
18991SOL    HW268952   7.144   9.010   1.173 -1.0345  0.4998 -0.6881
18992SOL     OW68953   8.948   5.460   8.250  0.6004 -0.1926 -0.2074
18992SOL    HW168954   8.956   5.498   8.163 -0.2126  0.2238 -0.1005
18992SOL    HW268955   8.948   5.365   8.234 -0.6524 -0.1127 -0.7644
18993SOL     OW68956   5.683   4.384   8.826 -0.0884 -0.2776  0.1320
18993SOL    HW168957   5.661   4.320   8.893 -0.2706  0.0713  0.4080
18993SOL    HW268958   5.714   4.460   8.874 -1.7760  0.5818 -0.0968
18994SOL     OW68959   6.240   4.970   6.228  0.0832  0.2966 -0.1248
18994SOL    HW168960   6.183   4.899   6.257  1.7990 -1.8214 -1.6187
18994SOL    HW268961   6.186   5.022   6.168 -1.5599  1.0540  1.9010
18995SOL     OW68962   9.811   6.960   7.860 -0.7143  0.4781  0.0755
18995SOL    HW168963   9.764   6.963   7.944 -1.4330  0.2278 -0.3146
18995SOL    HW268964   9.750   6.918   7.800 -1.2298  2.9553 -1.2527
18996SOL     OW68965   4.409   7.412   4.298  0.3722  0.7524  0.2228
18996SOL    HW168966   4.332   7.408   4.355  0.6914 -0.5114  0.6066
18996SOL    HW268967   4.482   7.386   4.355  0.8774  0.6876 -0.4496
18997SOL     OW68968   9.553   4.689   3.677  0.4734 -0.1930 -0.3731
18997SOL    HW168969   9.567   4.668   3.584 -0.5401 -0.7879 -0.4059
18997SOL    HW268970   9.540   4.604   3.719  0.2645  0.1202  0.2045
18998SOL     OW68971   4.659   5.014   0.763 -0.0680 -0.4600 -0.5247
18998SOL    HW168972   4.697   5.061   0.688  0.9605  1.3603  1.0431
18998SOL    HW268973   4.565   5.036   0.759 -0.0849 -0.6603 -1.4502
18999SOL     OW68974   6.836   5.992   5.045 -0.5488  0.0596 -0.4074
18999SOL    HW168975   6.887   5.983   4.965  0.7847 -0.2158  0.4493
18999SOL    HW268976   6.893   5.959   5.114 -1.3075  1.1464  0.7945
19000SOL     OW68977   4.950   5.844   8.506  0.4567 -0.0474 -0.3275
19000SOL    HW168978   5.009   5.813   8.438 -1.3031  0.0122 -1.9746
19000SOL    HW268979   4.903   5.766   8.536 -1.3843  0.3866 -1.8816
19001SOL     OW68980   5.064   9.310   4.069 -0.5519 -0.2289 -0.3137
19001SOL    HW168981   4.979   9.268   4.083 -0.9645  0.1718 -1.5390
19001SOL    HW268982   5.044   9.392   4.025  0.5987 -1.0554 -2.5006
19002SOL     OW68983   1.940   6.792   0.132 -0.0419  0.0340  0.1699
19002SOL    HW168984   1.988   6.867   0.097  1.8266  0.0544  2.5058
19002SOL    HW268985   1.867   6.830   0.181 -0.2577  0.2114 -0.2888
19003SOL     OW68986   9.386   0.351   8.988  0.1669 -0.3240 -0.0142
19003SOL    HW168987   9.353   0.367   9.076  1.0434 -1.7904  0.6248
19003SOL    HW268988   9.370   0.433   8.941 -0.9125  0.2654  1.3057
19004SOL     OW68989   8.721   4.340   8.843  0.1568  0.0172 -0.2345
19004SOL    HW168990   8.734   4.339   8.748 -0.8107 -0.8688 -0.3708
19004SOL    HW268991   8.783   4.406   8.875  4.7783 -3.5159 -0.8258
19005SOL     OW68992   0.022   2.318   9.500  0.6305 -0.2872  0.6261
19005SOL    HW168993   0.028   2.370   9.580  2.3834  1.1406 -0.3705
19005SOL    HW268994   0.030   2.382   9.429  1.4311 -1.7590 -0.6631
19006SOL     OW68995   4.887   6.118   6.672 -0.3074 -0.1551 -0.2131
19006SOL    HW168996   4.793   6.134   6.662 -0.4976 -1.7358 -1.3257
19006SOL    HW268997   4.893   6.024   6.689  1.1349 -0.2401 -1.0655
19007SOL     OW68998   4.422   4.142   8.310 -0.4411  0.3766 -0.9882
19007SOL    HW168999   4.512   4.172   8.324 -0.4911  1.2259 -2.2720
19007SOL    HW269000   4.381   4.150   8.396  0.5606  0.4768 -0.4972
19008SOL     OW69001   4.664  10.146   5.035 -0.1953  0.3700  0.1191
19008SOL    HW169002   4.683  10.101   4.952 -0.7665  0.3074  0.0184
19008SOL    HW269003   4.593  10.094   5.074 -0.6095  0.9711  0.1721
19009SOL     OW69004  10.342   7.950   3.193  0.3284 -0.9046 -0.5243
19009SOL    HW169005  10.260   7.920   3.153 -0.0824 -1.3357  0.5936
19009SOL    HW269006  10.383   8.004   3.126 -0.3347 -1.5980 -1.5185
19010SOL     OW69007   8.110   0.496   6.401  0.2740 -0.2234  0.4077
19010SOL    HW169008   8.179   0.533   6.456 -1.7256  1.0008  2.2607
19010SOL    HW269009   8.125   0.401   6.404  1.5003 -0.0294  1.2497
19011SOL     OW69010   1.951   0.418   2.750  0.5616  0.2909  0.1302
19011SOL    HW169011   1.972   0.475   2.824  2.1309 -0.0473 -0.0250
19011SOL    HW269012   1.860   0.439   2.729  0.6475  1.6743  1.0125
19012SOL     OW69013   3.145   9.534   1.168  0.3187  0.0386  0.3356
19012SOL    HW169014   3.061   9.530   1.215 -0.0214 -0.3887 -0.2983
19012SOL    HW269015   3.211   9.516   1.235  0.0109  1.5660  1.1097
19013SOL     OW69016   3.574   1.220   2.586  0.3557 -0.0164  0.2796
19013SOL    HW169017   3.626   1.139   2.589  1.2087  0.4582 -0.8221
19013SOL    HW269018   3.509   1.203   2.518 -1.3758 -0.8202  2.0414
19014SOL     OW69019   2.742   8.254   5.092 -0.1622 -0.3532 -0.4846
19014SOL    HW169020   2.753   8.179   5.033  0.1915 -0.0887 -0.7562
19014SOL    HW269021   2.691   8.219   5.165 -1.6763 -0.3874 -1.5075
19015SOL     OW69022   4.262   5.839   4.593 -0.7297  0.1023  0.4627
19015SOL    HW169023   4.319   5.841   4.669 -0.4214  2.0797  0.2386
19015SOL    HW269024   4.175   5.860   4.627 -0.5696  1.1106  0.2843
19016SOL     OW69025   4.530   1.935   5.690  0.4492  0.2048  0.4227
19016SOL    HW169026   4.477   1.964   5.765 -0.3797 -0.9340  0.2957
19016SOL    HW269027   4.491   1.979   5.615  0.7010  0.6117  0.5217
19017SOL     OW69028   7.454   4.476   8.215  0.5216 -0.2047  0.3963
19017SOL    HW169029   7.466   4.569   8.194  3.1644 -0.4978  0.3284
19017SOL    HW269030   7.487   4.429   8.139  1.5781 -1.2024  1.4381
19018SOL     OW69031   4.747   8.866   2.203 -0.1289  0.6677  0.1275
19018SOL    HW169032   4.705   8.787   2.239 -0.1333  0.3214 -0.6312
19018SOL    HW269033   4.799   8.835   2.129 -0.6265  1.4619 -0.5724
19019SOL     OW69034   1.580   7.042   8.210 -0.5451 -0.5253 -0.0811
19019SOL    HW169035   1.553   7.045   8.302  1.6059 -2.0989  0.6929
19019SOL    HW269036   1.596   6.949   8.193  1.5744 -0.0062 -1.2625
19020SOL     OW69037   5.332   5.018   1.040 -0.0353 -0.7223 -0.2068
19020SOL    HW169038   5.275   4.960   1.091 -1.5988 -0.1105 -1.2009
19020SOL    HW269039   5.294   5.105   1.051 -0.4916 -0.5718 -2.4579
19021SOL     OW69040   9.733   2.691   6.916 -0.2777 -0.2841  0.2023
19021SOL    HW169041   9.700   2.651   6.836  1.0153 -0.0330 -0.4856
19021SOL    HW269042   9.809   2.637   6.940 -1.4991 -1.2800  2.1280
19022SOL     OW69043   8.392   8.144   8.514  0.6803 -0.1611 -0.0968
19022SOL    HW169044   8.388   8.055   8.479 -1.6582 -0.4259  0.6681
19022SOL    HW269045   8.484   8.168   8.507  1.0527 -1.8827 -2.1400
19023SOL     OW69046   3.568   0.290   4.342 -0.1695 -0.5369  0.1742
19023SOL    HW169047   3.547   0.355   4.275  0.7003  0.8294  1.1940
19023SOL    HW269048   3.640   0.328   4.391 -0.6257 -1.6182  1.7462
19024SOL     OW69049   3.210   5.650   4.836 -0.1160 -0.5195 -0.5604
19024SOL    HW169050   3.256   5.661   4.919  0.9157  1.6974 -1.3407
19024SOL    HW269051   3.187   5.557   4.833  3.1741 -1.4880  0.4809
19025SOL     OW69052   2.631   2.998   0.263 -0.4425  0.2327  0.6670
19025SOL    HW169053   2.555   3.030   0.311  0.9522  3.1351  1.1345
19025SOL    HW269054   2.643   3.060   0.192  0.1584 -1.5141 -0.8321
19026SOL     OW69055   9.572   8.092   8.998  0.3022 -0.8271  0.3031
19026SOL    HW169056   9.493   8.058   9.041  0.4047  0.2652  1.4092
19026SOL    HW269057   9.541   8.165   8.944  0.4110 -1.1224 -0.1658
19027SOL     OW69058  10.364   1.431   1.133 -0.5375 -0.2009  0.2156
19027SOL    HW169059  10.416   1.473   1.202  1.0437  0.6464 -1.3969
19027SOL    HW269060  10.273   1.447   1.159 -0.1310  4.6787 -0.3541
19028SOL     OW69061   2.240   4.996   2.097  0.0604  0.4672 -0.2100
19028SOL    HW169062   2.277   4.997   2.008 -0.2887 -0.7993 -0.3862
19028SOL    HW269063   2.237   4.903   2.120  0.1181  0.7855  1.1249
19029SOL     OW69064   0.300   5.470   8.635 -0.1340 -1.1364 -0.0197
19029SOL    HW169065   0.330   5.488   8.724 -0.8822  0.3412 -0.0457
19029SOL    HW269066   0.211   5.435   8.646 -1.0779  1.0563 -0.2416
19030SOL     OW69067   0.613   8.774   4.556 -0.0257  0.0060  0.4294
19030SOL    HW169068   0.674   8.760   4.628  0.8153 -0.9452 -0.4259
19030SOL    HW269069   0.641   8.711   4.489 -0.8932  0.7340 -0.6485
19031SOL     OW69070   8.808   7.964   6.514 -0.0313 -0.0380 -0.4352
19031SOL    HW169071   8.889   7.920   6.539  1.2995  2.7332  0.5561
19031SOL    HW269072   8.819   7.983   6.420  2.6824  4.1564  0.4657
19032SOL     OW69073   3.211   8.787   1.676  0.4343  0.3213  0.0016
19032SOL    HW169074   3.215   8.710   1.620 -1.6016  0.3083 -0.1884
19032SOL    HW269075   3.126   8.826   1.657 -0.3151  0.3804  3.0067
19033SOL     OW69076   6.121  10.283   4.525 -0.2964 -0.0641  0.2433
19033SOL    HW169077   6.130  10.189   4.508  1.4318  0.3869 -1.5555
19033SOL    HW269078   6.037  10.306   4.486  0.3559 -0.4380 -1.4390
19034SOL     OW69079   3.364   9.488   0.361  0.2709  0.4988  0.0929
19034SOL    HW169080   3.346   9.506   0.269  1.2102 -1.4449 -0.5233
19034SOL    HW269081   3.416   9.563   0.390  2.0622  0.0529 -1.6793
19035SOL     OW69082   3.544   6.302   4.518 -0.3739  0.3501  0.1919
19035SOL    HW169083   3.469   6.335   4.567 -3.6837 -1.5687 -3.0876
19035SOL    HW269084   3.564   6.371   4.455  0.1499  0.5675  0.5941
19036SOL     OW69085   2.507   9.935  10.286 -0.4418  0.0416 -0.2183
19036SOL    HW169086   2.457   9.856  10.308  0.0931 -1.0137 -2.4408
19036SOL    HW269087   2.443  10.006  10.287 -1.1692 -0.6009  0.7144
19037SOL     OW69088   1.140  10.098   7.312 -0.0147  0.1591 -0.4395
19037SOL    HW169089   1.053  10.094   7.351 -0.4756 -0.2739 -1.4803
19037SOL    HW269090   1.197  10.054   7.375 -0.8575 -1.1602 -0.5655
19038SOL     OW69091   4.367   8.470   8.006 -0.2713  0.0110  0.1111
19038SOL    HW169092   4.379   8.375   8.011 -0.9393 -0.0480  0.6130
19038SOL    HW269093   4.421   8.496   7.931  0.0091 -0.7473  0.0371
19039SOL     OW69094   9.407   1.869   3.391 -0.1344  0.4677  0.2309
19039SOL    HW169095   9.489   1.906   3.360  1.2842 -2.4681  0.1428
19039SOL    HW269096   9.345   1.887   3.320  1.0443  0.6880 -0.7920
19040SOL     OW69097   2.488   2.332   9.918  0.2856 -0.1035  0.2930
19040SOL    HW169098   2.437   2.414   9.913  2.5734  1.4760  1.1365
19040SOL    HW269099   2.498   2.305   9.827 -2.7317 -0.9912  0.1269
19041SOL     OW69100   2.219   6.911   0.302  0.1595 -0.0304  0.1065
19041SOL    HW169101   2.252   6.826   0.331  1.2162  0.4267  0.2779
19041SOL    HW269102   2.244   6.917   0.210  0.5008  0.2906  0.2182
19042SOL     OW69103   0.293   7.311   3.100 -0.0775  0.2310  0.7229
19042SOL    HW169104   0.327   7.297   3.189 -0.0653 -1.2426  0.5067
19042SOL    HW269105   0.307   7.404   3.084  2.6554 -0.0181  1.1464
19043SOL     OW69106   9.774   7.137   5.497  0.1777 -0.0151  0.1571
19043SOL    HW169107   9.684   7.161   5.474  0.7467  2.6167  0.3643
19043SOL    HW269108   9.792   7.059   5.444 -2.0402 -0.3092 -0.2642
19044SOL     OW69109   4.692   0.005   7.633 -0.2900  0.7016  0.7169
19044SOL    HW169110   4.777   0.039   7.662 -0.1467 -0.1517  1.3505
19044SOL    HW269111   4.705  -0.090   7.626 -0.9747  0.6477  0.0557
19045SOL     OW69112   7.024   0.480   2.228  0.3196 -0.6374 -0.2045
19045SOL    HW169113   6.967   0.415   2.268  0.2782  0.1764  1.1329
19045SOL    HW269114   7.111   0.461   2.264 -0.0714  1.4450  2.2072
19046SOL     OW69115   3.799   2.567   9.294  0.1549 -0.1989  0.0335
19046SOL    HW169116   3.856   2.496   9.265 -0.5477 -1.1767  0.9130
19046SOL    HW269117   3.713   2.525   9.306 -0.9017  1.3214 -1.7347
19047SOL     OW69118   2.618   8.526   5.818  0.3985 -0.1584 -0.1029
19047SOL    HW169119   2.623   8.622   5.816  0.0007 -0.1284  0.3859
19047SOL    HW269120   2.656   8.499   5.734 -1.0011  0.4978 -0.9887
19048SOL     OW69121   7.010   2.964   5.579 -0.1506  0.0838 -0.2746
19048SOL    HW169122   7.004   3.042   5.634  0.6886 -0.3625  0.4659
19048SOL    HW269123   7.087   2.979   5.524  0.6796 -0.6834  0.6421
19049SOL     OW69124   5.400   5.962   7.969  0.5642  0.3319 -0.0978
19049SOL    HW169125   5.409   6.013   7.888  0.3898 -0.1097 -0.3989
19049SOL    HW269126   5.446   5.880   7.950  0.9818  0.4334  0.4375
19050SOL     OW69127   3.279   1.854   9.769 -0.4840  0.9845  0.3230
19050SOL    HW169128   3.202   1.831   9.821 -0.2957 -2.0679 -0.5186
19050SOL    HW269129   3.283   1.787   9.701  0.6802  3.3799 -2.1795
19051SOL     OW69130   9.718   0.643   3.920 -0.2004 -1.0550  0.0856
19051SOL    HW169131   9.639   0.698   3.917 -0.2417 -1.1045  0.2386
19051SOL    HW269132   9.693   0.563   3.874  0.6534  0.0449 -2.4605
19052SOL     OW69133   6.379   4.454   2.066  0.1470  0.3719 -0.0532
19052SOL    HW169134   6.418   4.396   2.132  0.3212  0.2939 -0.2229
19052SOL    HW269135   6.301   4.488   2.108  0.3450  0.4508  0.2547
19053SOL     OW69136   6.411   5.798  10.214  0.0520 -0.0975  0.2148
19053SOL    HW169137   6.393   5.832  10.301  0.6711  0.1231  0.2642
19053SOL    HW269138   6.502   5.769  10.218  1.5058  3.5629 -1.4284
19054SOL     OW69139   1.200   2.481   1.629 -0.0522  0.3609  0.5786
19054SOL    HW169140   1.131   2.417   1.646  2.1579 -2.0095  1.2741
19054SOL    HW269141   1.250   2.443   1.556  1.9425  0.7073  1.6926
19055SOL     OW69142   5.541   5.057   2.099  0.1923  0.4472 -0.1587
19055SOL    HW169143   5.622   5.018   2.065  1.3544  2.3417  0.2713
19055SOL    HW269144   5.528   5.136   2.046 -1.6641 -0.0521 -0.5272
19056SOL     OW69145   0.061   5.933   4.566  0.1367  0.0586  0.4313
19056SOL    HW169146  -0.024   5.888   4.566  0.2367 -0.3877 -2.7067
19056SOL    HW269147   0.044   6.016   4.609 -1.7030 -0.3363  0.5652
19057SOL     OW69148   0.495   3.794   3.016  0.4327 -0.0459 -0.0051
19057SOL    HW169149   0.582   3.832   3.030  0.3642 -0.2283  0.9481
19057SOL    HW269150   0.435   3.868   3.021  0.5885  0.2288 -1.5744
19058SOL     OW69151   0.519   7.757   7.547 -0.4473  0.0322 -0.2444
19058SOL    HW169152   0.460   7.683   7.533  0.5792 -0.6929 -0.8817
19058SOL    HW269153   0.505   7.781   7.639 -1.1383 -0.6374 -0.1607
19059SOL     OW69154   5.090   9.678   4.830 -0.6355 -0.3520  0.0917
19059SOL    HW169155   5.029   9.752   4.830 -0.8157 -0.4878 -0.7819
19059SOL    HW269156   5.033   9.601   4.837 -0.5023 -0.4384  0.2154
19060SOL     OW69157   6.483   9.399   7.636 -0.1211  0.0299  0.3896
19060SOL    HW169158   6.554   9.463   7.630  0.4540 -0.6711 -0.7605
19060SOL    HW269159   6.418   9.429   7.573  0.9360 -1.3935 -1.4934
19061SOL     OW69160   6.632   5.965   7.881 -0.5596  0.1325  0.0994
19061SOL    HW169161   6.646   5.876   7.847 -1.5574 -0.7574  1.8704
19061SOL    HW269162   6.555   5.997   7.835  0.2142  0.3968 -1.0630
19062SOL     OW69163   0.186   4.909   8.203  0.4204  0.0226  0.5101
19062SOL    HW169164   0.278   4.900   8.225  0.6009  0.4311 -0.0349
19062SOL    HW269165   0.148   4.957   8.277  1.1751  2.0928 -0.3586
19063SOL     OW69166   7.803   2.213   8.951  0.0962  0.0018 -0.2975
19063SOL    HW169167   7.892   2.200   8.982  0.3309 -2.2251 -1.6325
19063SOL    HW269168   7.808   2.201   8.856 -1.4091  1.2596 -0.5826
19064SOL     OW69169   2.858   3.952   9.554 -0.3547  0.3897 -0.3287
19064SOL    HW169170   2.813   3.906   9.624  2.1493 -0.9551  0.5235
19064SOL    HW269171   2.938   3.986   9.595  0.2143  1.3065 -2.0813
19065SOL     OW69172   6.687   0.425   2.472 -0.0379 -0.1218 -0.5252
19065SOL    HW169173   6.662   0.459   2.387 -2.5761 -1.1322 -0.2592
19065SOL    HW269174   6.605   0.416   2.520  1.0973 -1.5155  1.2982
19066SOL     OW69175   7.548   4.566   4.006 -0.4438  0.1471 -0.3389
19066SOL    HW169176   7.482   4.634   4.019  1.1434  1.4751  1.1446
19066SOL    HW269177   7.614   4.607   3.951  0.4177 -0.2531  0.3798
19067SOL     OW69178   4.010   3.117   4.122  0.1922  0.0436 -0.1317
19067SOL    HW169179   3.925   3.150   4.150 -0.3376 -0.9035 -0.5748
19067SOL    HW269180   4.007   3.124   4.026  0.5816 -0.0614 -0.1517
19068SOL     OW69181   0.412   3.267   6.457 -0.5585 -0.4660 -0.1146
19068SOL    HW169182   0.483   3.205   6.439 -0.7481 -0.3508 -1.3301
19068SOL    HW269183   0.368   3.278   6.373 -0.9888  0.7597  0.2520
19069SOL     OW69184   8.223   8.116   5.307  0.0726 -0.6680  0.4272
19069SOL    HW169185   8.298   8.171   5.287 -1.4323  0.9165 -1.1884
19069SOL    HW269186   8.239   8.034   5.261  0.0107  0.3207 -1.4124
19070SOL     OW69187   0.594   1.445   2.729 -0.9878 -0.1415  0.1785
19070SOL    HW169188   0.689   1.444   2.737 -0.9377  0.2775 -0.3232
19070SOL    HW269189   0.569   1.535   2.749 -1.5672 -0.8760  3.3060
19071SOL     OW69190   7.213   6.170   8.165  0.0761 -0.0391 -0.3484
19071SOL    HW169191   7.189   6.145   8.076 -0.9296  0.7887 -0.3259
19071SOL    HW269192   7.226   6.265   8.161 -0.0646  0.0205  0.4090
19072SOL     OW69193   5.513   7.426   2.651 -0.0111 -0.1712 -0.1805
19072SOL    HW169194   5.546   7.492   2.589 -0.8751  0.9968  0.5571
19072SOL    HW269195   5.540   7.458   2.737 -0.8958 -0.5032  0.2320
19073SOL     OW69196   8.541   5.335   0.036 -0.6439 -0.2868 -0.1009
19073SOL    HW169197   8.539   5.403  -0.032  0.3620  3.2367  3.0241
19073SOL    HW269198   8.633   5.315   0.047 -0.6526  0.1686  0.9975
19074SOL     OW69199   3.890   3.953   1.061 -0.0921  0.1179 -0.2221
19074SOL    HW169200   3.851   4.039   1.050  0.6238  0.4956  0.1022
19074SOL    HW269201   3.893   3.916   0.973 -0.2335  0.4991 -0.3879
19075SOL     OW69202  10.338   4.756   7.378  0.0413 -0.1622  0.5094
19075SOL    HW169203  10.297   4.757   7.292  1.2443 -1.3696 -0.1159
19075SOL    HW269204  10.345   4.848   7.403 -2.5627  0.1172  0.4625
19076SOL     OW69205   1.245   7.485   3.056 -0.5870  0.1254 -0.0859
19076SOL    HW169206   1.201   7.495   2.971 -0.4286 -1.4393 -0.3792
19076SOL    HW269207   1.187   7.427   3.106 -0.4935  0.7365  0.7617
19077SOL     OW69208   1.027   6.753   3.513 -0.2373 -0.4195 -0.0945
19077SOL    HW169209   0.983   6.797   3.441 -0.2470  0.5915  0.5063
19077SOL    HW269210   0.971   6.771   3.589  0.8530  0.3320  0.5598
19078SOL     OW69211   4.090   9.726   8.757  0.3360 -0.0979 -0.0396
19078SOL    HW169212   4.110   9.648   8.809  0.7137 -0.3913 -0.6099
19078SOL    HW269213   4.114   9.799   8.814 -0.2621 -0.3881  0.5973
19079SOL     OW69214   6.532   0.569   5.381  0.1470  0.1295 -0.5247
19079SOL    HW169215   6.595   0.601   5.446  0.5593 -0.0255 -0.8427
19079SOL    HW269216   6.544   0.474   5.381  1.0592  0.2231 -1.7350
19080SOL     OW69217   8.101   7.040   2.584  0.0957  0.6651 -0.1845
19080SOL    HW169218   8.197   7.049   2.590 -0.0446  2.2453  0.0775
19080SOL    HW269219   8.076   7.099   2.513 -0.7986  1.1717  0.5345
19081SOL     OW69220   8.306   7.113   5.768  0.3962  0.1825  0.7316
19081SOL    HW169221   8.366   7.180   5.801  0.8974  0.7211 -1.1440
19081SOL    HW269222   8.321   7.038   5.825  0.9941  1.1245  1.8764
19082SOL     OW69223   7.294  10.324   0.772 -0.3936 -0.2405 -0.0140
19082SOL    HW169224   7.220  10.273   0.738  0.7683 -0.1843 -2.8400
19082SOL    HW269225   7.371  10.271   0.753  0.4777  0.3541  1.5949
19083SOL     OW69226   8.048   3.744   1.358  0.1677 -0.2882  0.3558
19083SOL    HW169227   8.068   3.655   1.387  1.4342  0.0383  0.5534
19083SOL    HW269228   8.055   3.797   1.438  1.4370  0.2763 -0.1063
19084SOL     OW69229   4.140   1.327   5.172  0.0159  0.1485 -0.3377
19084SOL    HW169230   4.164   1.354   5.083  0.9085 -1.1156 -0.5177
19084SOL    HW269231   4.074   1.259   5.160 -1.8511  1.8185  0.0881
19085SOL     OW69232   4.871   7.676   3.909 -0.4764 -0.6258  0.3951
19085SOL    HW169233   4.858   7.697   4.002  0.8385  0.5961  0.3377
19085SOL    HW269234   4.846   7.584   3.902  2.6417 -1.8583  2.7442
19086SOL     OW69235   2.211   7.666   7.562 -0.2003 -0.0346  0.1930
19086SOL    HW169236   2.306   7.655   7.563 -0.1994 -0.0593 -0.1649
19086SOL    HW269237   2.177   7.577   7.571 -0.1941 -0.4445 -2.8879
19087SOL     OW69238   9.562   7.117   8.465  0.0562 -0.7902  0.1169
19087SOL    HW169239   9.469   7.095   8.478 -0.6889  1.4357 -1.0293
19087SOL    HW269240   9.573   7.202   8.507  1.7441 -1.2617  0.6992
19088SOL     OW69241   1.382   6.694   0.777  0.5923 -0.8092 -0.4956
19088SOL    HW169242   1.317   6.623   0.773 -1.9143  1.3169 -0.2323
19088SOL    HW269243   1.374   6.738   0.692  2.9053 -1.4126 -1.0915
19089SOL     OW69244   9.297   5.287   4.141  0.1112 -0.1777 -0.1986
19089SOL    HW169245   9.378   5.320   4.101 -1.1883 -0.0231 -2.9065
19089SOL    HW269246   9.229   5.303   4.075 -1.8191 -1.9846  1.2207
19090SOL     OW69247   5.885   8.255   1.892 -0.2617 -0.1304  0.6904
19090SOL    HW169248   5.920   8.292   1.973  0.5023 -0.4214  0.5021
19090SOL    HW269249   5.848   8.171   1.917 -1.2237  0.3676  0.9672
19091SOL     OW69250   9.098   2.229   6.031  0.3497  0.4766 -0.4059
19091SOL    HW169251   9.123   2.235   5.939  1.2056 -1.7157 -0.3815
19091SOL    HW269252   9.176   2.194   6.074  0.0017  1.5940  1.1919
19092SOL     OW69253   7.186   9.959   6.496 -0.2412  0.1443  0.2303
19092SOL    HW169254   7.187  10.032   6.434  0.1088 -0.9560 -1.1194
19092SOL    HW269255   7.115   9.903   6.466 -1.8892  0.8992  2.5006
19093SOL     OW69256   4.515   5.679   7.105  0.0854  0.1929  0.1828
19093SOL    HW169257   4.589   5.658   7.048  0.1253 -0.1613  0.3648
19093SOL    HW269258   4.483   5.594   7.136 -1.7835  0.1309 -1.6516
19094SOL     OW69259   8.827   1.755   5.295  0.3313  0.8331  0.3026
19094SOL    HW169260   8.851   1.679   5.346 -1.2687  0.1362  0.0875
19094SOL    HW269261   8.740   1.779   5.327  1.3284  3.4413  1.3370
19095SOL     OW69262   8.409   4.095   1.521 -0.8236  0.1739  0.2344
19095SOL    HW169263   8.469   4.127   1.453 -1.2835  2.3826  0.7998
19095SOL    HW269264   8.327   4.142   1.505 -1.2522 -0.0185  1.7046
19096SOL     OW69265  10.275   5.270   2.071 -0.3573  0.2845 -0.3630
19096SOL    HW169266  10.323   5.201   2.026  0.5541  0.5014  0.2566
19096SOL    HW269267  10.183   5.245   2.062 -0.0576 -0.8089 -0.4610
19097SOL     OW69268   9.217   2.190   6.925 -0.1391 -0.3966 -0.1302
19097SOL    HW169269   9.135   2.233   6.950  0.7479  1.3537 -0.1229
19097SOL    HW269270   9.218   2.195   6.829  0.5739  0.8292 -0.0785
19098SOL     OW69271   3.887   2.381   5.217  0.0431  0.2549  0.4588
19098SOL    HW169272   3.914   2.330   5.141 -0.0397 -1.1659  1.3488
19098SOL    HW269273   3.969   2.408   5.258  0.0944  0.1342  0.4368
19099SOL     OW69274   5.768   1.479   4.288 -0.0912 -0.5842 -0.1579
19099SOL    HW169275   5.694   1.428   4.321 -0.9910  1.4157  1.1262
19099SOL    HW269276   5.787   1.542   4.358  0.9762  0.7887 -1.6079
19100SOL     OW69277   8.345   0.421   1.947  0.3018  0.2462 -0.1620
19100SOL    HW169278   8.301   0.342   1.977  0.3618  0.7902  1.4554
19100SOL    HW269279   8.282   0.492   1.964  0.2686  0.5805 -1.5312
19101SOL     OW69280   2.195   9.819   5.570  0.3533 -0.1115 -0.2887
19101SOL    HW169281   2.102   9.832   5.585  0.9323  0.6283  3.6025
19101SOL    HW269282   2.221   9.751   5.633  2.5726  0.2974 -0.6603
19102SOL     OW69283   9.142   6.966   1.729 -0.0610  0.1232  0.0076
19102SOL    HW169284   9.143   7.008   1.644 -2.0802  0.2744  0.0162
19102SOL    HW269285   9.139   7.038   1.792 -3.0259  0.0980  0.0340
19103SOL     OW69286   6.745   4.386   0.492 -0.1987 -0.4997  0.0824
19103SOL    HW169287   6.834   4.383   0.526 -0.2783  1.3103  0.5562
19103SOL    HW269288   6.753   4.359   0.401  0.4472 -2.6811  0.7226
19104SOL     OW69289   7.625   1.043   9.931  0.2268  0.0909  0.2935
19104SOL    HW169290   7.573   1.122   9.946 -1.1562 -0.2681 -2.1074
19104SOL    HW269291   7.692   1.070   9.868  0.3336 -0.4539  0.1727
19105SOL     OW69292   0.097   6.853   7.170  0.2529 -0.7077 -0.1230
19105SOL    HW169293   0.106   6.841   7.265 -1.4536  0.1304  0.1938
19105SOL    HW269294   0.146   6.933   7.151  1.0528 -1.1715 -0.0626
19106SOL     OW69295   6.605  10.310   5.384 -0.0770 -0.3721 -0.9370
19106SOL    HW169296   6.639  10.304   5.294  2.4439  0.6697 -0.1474
19106SOL    HW269297   6.673  10.359   5.431 -3.3589  3.3663  0.4949
19107SOL     OW69298   7.205   2.313   7.344 -0.4804 -0.6161  0.1027
19107SOL    HW169299   7.146   2.279   7.277  0.4213 -0.6182 -0.7146
19107SOL    HW269300   7.224   2.403   7.317 -0.4082 -0.4927  0.5567
19108SOL     OW69301   3.578   8.516   6.734  0.6287  0.8020  0.2345
19108SOL    HW169302   3.499   8.549   6.691 -0.9393 -2.4644  0.2701
19108SOL    HW269303   3.639   8.498   6.662 -0.1777 -0.1956 -0.2364
19109SOL     OW69304   1.789   3.153   7.127  0.1212  0.4739  0.0467
19109SOL    HW169305   1.880   3.182   7.132  0.7724 -1.4637  0.3561
19109SOL    HW269306   1.740   3.215   7.182  1.2248  1.5771 -0.1776
19110SOL     OW69307   5.994   8.878   2.223 -0.1359  0.2508 -0.5661
19110SOL    HW169308   6.023   8.790   2.246  0.5192  0.1573 -1.6626
19110SOL    HW269309   5.898   8.874   2.227 -0.0965 -0.3651 -0.1158
19111SOL     OW69310  10.059   2.878   9.872 -0.3955  0.0576 -0.1373
19111SOL    HW169311  10.127   2.847   9.932  0.1483  0.6742 -0.4206
19111SOL    HW269312  10.093   2.961   9.838 -1.8940  1.0847  0.7588
19112SOL     OW69313   2.638   1.886   0.967 -0.0282  0.3151 -0.8836
19112SOL    HW169314   2.564   1.936   0.932  1.2578  2.2747 -1.0075
19112SOL    HW269315   2.689   1.861   0.889 -0.4251 -0.8441 -0.7880
19113SOL     OW69316   0.088   2.455   7.902 -0.0861 -0.0305 -0.7726
19113SOL    HW169317   0.158   2.400   7.938 -1.9870 -1.5207  0.8774
19113SOL    HW269318   0.072   2.418   7.815 -0.2800 -1.1428 -0.2870
19114SOL     OW69319   0.459   0.586   6.738 -0.3082 -0.2411  0.4850
19114SOL    HW169320   0.432   0.677   6.725 -0.8142 -0.0668  2.4519
19114SOL    HW269321   0.430   0.565   6.826 -0.3866 -2.3978  0.0042
19115SOL     OW69322   3.215   2.878   4.591 -0.7557 -0.4045 -0.0308
19115SOL    HW169323   3.201   2.970   4.612  2.2798 -0.0597  0.9958
19115SOL    HW269324   3.263   2.879   4.509 -1.1374 -1.1145 -0.2701
19116SOL     OW69325   1.182   7.811   3.084  0.0422 -0.4603  0.2167
19116SOL    HW169326   1.140   7.806   3.170  0.0829 -2.0883  0.1799
19116SOL    HW269327   1.245   7.738   3.084 -1.5013 -1.9377 -1.9773
19117SOL     OW69328   2.671   9.293   0.101 -0.6570 -0.1809 -0.2274
19117SOL    HW169329   2.706   9.351   0.033 -1.1986 -0.2357 -0.5635
19117SOL    HW269330   2.748   9.259   0.146 -0.2959  2.8955  1.8192
19118SOL     OW69331   4.846   1.167   4.779  0.3259 -0.4345 -0.0792
19118SOL    HW169332   4.829   1.259   4.802  1.9755  0.5213 -2.2997
19118SOL    HW269333   4.890   1.131   4.856 -0.7924  0.4574  1.0282
19119SOL     OW69334  10.127   6.562   5.794 -0.6250  0.4583  0.0731
19119SOL    HW169335  10.145   6.487   5.849 -1.4422  1.0225  1.1480
19119SOL    HW269336  10.031   6.569   5.792 -0.5771  1.1786 -0.3945
19120SOL     OW69337   3.859   7.783   3.161 -0.4924 -0.4319 -0.0031
19120SOL    HW169338   3.778   7.787   3.212 -0.3116  0.2094  0.2562
19120SOL    HW269339   3.927   7.766   3.227  0.0387  2.5669  0.3809
19121SOL     OW69340  10.246   1.239   5.497  1.0520  0.1506 -0.3394
19121SOL    HW169341  10.288   1.276   5.575  1.7220  0.4885 -0.8560
19121SOL    HW269342  10.304   1.262   5.425 -0.3907  1.3072 -1.1870
19122SOL     OW69343   1.408   2.248   4.391  0.9294  0.1833  0.5050
19122SOL    HW169344   1.493   2.278   4.423 -0.0745  3.8773  0.1262
19122SOL    HW269345   1.352   2.247   4.468  0.2869  2.1042  0.1087
19123SOL     OW69346   1.603   3.820   6.348  0.0571  0.4064  0.8039
19123SOL    HW169347   1.636   3.884   6.286 -2.1749  0.0313 -0.9120
19123SOL    HW269348   1.510   3.811   6.327 -0.3853 -1.1751  2.9713
19124SOL     OW69349   8.792   3.508   5.153 -0.0132  0.0505 -0.1029
19124SOL    HW169350   8.758   3.466   5.074 -3.2829  4.3532 -1.3455
19124SOL    HW269351   8.867   3.558   5.122  0.2019 -0.1489  0.0897
19125SOL     OW69352   2.046   8.363   6.054 -0.7746  0.0962  0.1116
19125SOL    HW169353   2.048   8.458   6.041 -1.1545 -0.1008 -1.5153
19125SOL    HW269354   2.119   8.346   6.114 -0.3409  1.3522 -0.0349
19126SOL     OW69355   0.279   9.165   3.713  0.0066 -0.3105 -0.2106
19126SOL    HW169356   0.335   9.235   3.747 -0.1744 -0.6417  0.7980
19126SOL    HW269357   0.340   9.093   3.693 -0.1161 -1.0304  1.8064
19127SOL     OW69358  10.321   4.053   1.879  0.2506 -0.5733  0.6847
19127SOL    HW169359  10.283   4.127   1.832 -0.3897 -0.7630  0.8915
19127SOL    HW269360  10.333   4.084   1.968  0.9093 -0.4062  0.5453
19128SOL     OW69361  10.182   6.685   4.538 -0.3692 -0.0435  0.0246
19128SOL    HW169362  10.137   6.674   4.622 -2.5298  0.0940 -1.0444
19128SOL    HW269363  10.195   6.780   4.530 -0.2361 -0.0498  0.1781
19129SOL     OW69364   7.115   2.447   3.973 -0.1374  0.1303 -0.8182
19129SOL    HW169365   7.092   2.354   3.980  1.1537 -0.1489  0.0811
19129SOL    HW269366   7.210   2.449   3.977 -0.1765  1.5702  0.1036
19130SOL     OW69367   9.385   3.126   3.718  0.4081 -0.3156  0.9317
19130SOL    HW169368   9.449   3.079   3.773  0.2300 -0.1529  1.2838
19130SOL    HW269369   9.401   3.219   3.738  0.4500 -0.2489  0.5855
19131SOL     OW69370   1.337   2.757   3.502 -0.2224  0.2329 -0.2083
19131SOL    HW169371   1.328   2.838   3.451  2.0942  0.8046  0.1761
19131SOL    HW269372   1.361   2.786   3.590 -0.4825 -0.8479  0.2361
19132SOL     OW69373   3.675   9.384  10.185 -0.2507 -0.5290  0.0598
19132SOL    HW169374   3.654   9.319  10.118 -0.8187  0.2474 -0.5501
19132SOL    HW269375   3.763   9.362  10.214  0.4134 -0.3202 -1.6583
19133SOL     OW69376   4.200   1.884   4.477 -0.3249  0.1678  0.3756
19133SOL    HW169377   4.178   1.808   4.423 -1.0105  0.6701 -0.0629
19133SOL    HW269378   4.160   1.866   4.562  0.1516 -0.2956  0.5101
19134SOL     OW69379   6.777   1.755   9.001  0.4676 -0.4528  0.7123
19134SOL    HW169380   6.755   1.665   8.974 -0.5027 -0.1594  0.5108
19134SOL    HW269381   6.827   1.790   8.928  0.0272 -0.5105  0.3817
19135SOL     OW69382   6.348   4.311   5.717 -0.7512 -0.0763 -0.6970
19135SOL    HW169383   6.366   4.245   5.784 -0.3163  1.2911  0.5716
19135SOL    HW269384   6.297   4.378   5.761 -2.1310 -0.0348 -2.2423
19136SOL     OW69385   3.876   7.444   5.280 -0.0631  0.1748 -0.9167
19136SOL    HW169386   3.868   7.522   5.226 -2.3114  0.2928 -0.5245
19136SOL    HW269387   3.812   7.457   5.351  0.1776 -1.5827 -0.3181
19137SOL     OW69388   6.645   5.800   5.738  0.1887  0.0950  0.0565
19137SOL    HW169389   6.724   5.815   5.790 -1.8209 -1.0662  3.8289
19137SOL    HW269390   6.592   5.879   5.753 -0.4146 -0.2342 -0.3099
19138SOL     OW69391   7.264   8.818   1.111 -0.4533  0.4263 -0.4635
19138SOL    HW169392   7.309   8.864   1.040  1.5226 -0.2302  0.3030
19138SOL    HW269393   7.290   8.866   1.190  0.7391 -1.2759  0.2279
19139SOL     OW69394   6.673   7.897   1.526  0.5306  0.6017  0.2232
19139SOL    HW169395   6.701   7.886   1.435  0.6581 -1.0868  0.4323
19139SOL    HW269396   6.754   7.899   1.576  0.4860  2.0869  0.2747
19140SOL     OW69397   6.779   6.737   4.239 -0.0053  0.0304  0.4173
19140SOL    HW169398   6.846   6.670   4.256  0.4093  0.5125  0.6992
19140SOL    HW269399   6.721   6.732   4.315 -0.1283 -0.1916  0.3103
19141SOL     OW69400   9.194   9.868   7.518 -0.5390  0.2287 -0.1656
19141SOL    HW169401   9.134   9.934   7.551  0.0365  0.7739 -0.1773
19141SOL    HW269402   9.141   9.813   7.461 -0.9944  0.7900 -0.2980
19142SOL     OW69403  10.086   1.035   7.370 -0.0024 -0.2929  0.0018
19142SOL    HW169404  10.017   1.097   7.349  0.6797 -0.8708 -5.1331
19142SOL    HW269405  10.042   0.966   7.421 -2.7128  0.4006 -1.2466
19143SOL     OW69406   5.810   8.111   9.290  0.7336 -0.0890  0.2774
19143SOL    HW169407   5.861   8.091   9.368  1.4384 -1.5262 -0.5246
19143SOL    HW269408   5.726   8.069   9.304 -0.0693  1.7327  1.3095
19144SOL     OW69409   0.700   2.726   6.471  0.0013  0.2323 -0.6826
19144SOL    HW169410   0.700   2.806   6.523 -0.3051  0.3436 -0.8517
19144SOL    HW269411   0.646   2.665   6.521  1.7245 -0.4983  0.3870
19145SOL     OW69412   1.704   9.193   2.642  0.0397  0.4975 -0.4048
19145SOL    HW169413   1.666   9.186   2.555 -1.6694 -0.2249  0.3411
19145SOL    HW269414   1.733   9.284   2.649  0.0965  0.5908 -1.6735
19146SOL     OW69415   5.546   9.859   2.364  0.0091 -0.0525 -0.3929
19146SOL    HW169416   5.555   9.810   2.282  2.8434  0.5421 -0.5528
19146SOL    HW269417   5.487   9.807   2.417 -0.2837 -1.5094 -2.0600
19147SOL     OW69418   1.608   5.730   3.466 -0.2358  0.1716  0.1320
19147SOL    HW169419   1.541   5.743   3.399 -0.6862  0.6311  0.6566
19147SOL    HW269420   1.690   5.721   3.418 -0.5482  0.5194 -0.4752
19148SOL     OW69421   4.709   3.612   1.477 -0.0919  0.3820 -0.5694
19148SOL    HW169422   4.804   3.617   1.490 -0.3057  1.8468  0.9291
19148SOL    HW269423   4.693   3.666   1.399  0.3908 -0.8207 -1.5230
19149SOL     OW69424   9.451   7.740   3.431  0.0227  0.2361 -0.0970
19149SOL    HW169425   9.498   7.660   3.454  0.0886  0.6644  1.2899
19149SOL    HW269426   9.495   7.810   3.480 -0.8638  0.9336 -0.2644
19150SOL     OW69427   7.357   9.820   7.473  0.3751  0.1088  0.3367
19150SOL    HW169428   7.277   9.788   7.514  1.4271 -3.0748  0.1544
19150SOL    HW269429   7.423   9.814   7.542  1.0035  0.0877 -0.2640
19151SOL     OW69430   2.276   2.858   6.456 -0.3908  0.2188 -0.2569
19151SOL    HW169431   2.355   2.906   6.481 -0.8178 -0.4976  2.8847
19151SOL    HW269432   2.308   2.786   6.403  0.7797  1.2124 -0.9591
19152SOL     OW69433   0.483   6.381   9.661 -0.1870 -0.3723  0.1293
19152SOL    HW169434   0.577   6.397   9.671 -0.0363 -0.6212 -0.8542
19152SOL    HW269435   0.442   6.451   9.712  0.4809  1.8655 -2.1750
19153SOL     OW69436   8.547   6.200   9.825  0.0017  0.6847  0.0174
19153SOL    HW169437   8.617   6.148   9.786  2.3026  1.8491  2.2855
19153SOL    HW269438   8.548   6.175   9.918 -0.1642  3.2270  0.7881
19154SOL     OW69439   0.163  10.266   4.432 -0.1448 -0.1249 -0.1836
19154SOL    HW169440   0.074  10.300   4.446  0.0461  0.1833  0.3052
19154SOL    HW269441   0.213  10.297   4.508  0.9950  1.8761 -1.6239
19155SOL     OW69442   5.563   1.628  10.175  0.1365 -0.2601 -0.3072
19155SOL    HW169443   5.511   1.687  10.230 -0.6784 -1.3209  0.0959
19155SOL    HW269444   5.612   1.574  10.236  1.1024  0.1610 -0.6810
19156SOL     OW69445   4.806   7.722   1.816 -0.4086 -0.6367 -0.1719
19156SOL    HW169446   4.787   7.792   1.879 -1.5088 -1.2783  0.2369
19156SOL    HW269447   4.870   7.761   1.756 -0.3812  0.4464  0.5256
19157SOL     OW69448   5.404   6.418   1.462  0.2995 -0.1962  0.1351
19157SOL    HW169449   5.497   6.396   1.465  0.3300 -0.2863 -1.0133
19157SOL    HW269450   5.401   6.513   1.465  0.3543 -0.2239  1.4436
19158SOL     OW69451   9.619   7.295   1.859 -0.1722  0.2841  0.4479
19158SOL    HW169452   9.572   7.374   1.832 -0.7611  0.2751  1.4102
19158SOL    HW269453   9.676   7.324   1.929 -0.2007 -0.0974  0.6316
19159SOL     OW69454   2.161   1.603   6.205 -0.0942  0.0211  0.1001
19159SOL    HW169455   2.154   1.698   6.199  0.2455  0.0387  0.0135
19159SOL    HW269456   2.200   1.587   6.291 -1.0568 -0.0800  0.5386
19160SOL     OW69457   4.597   1.473   2.382  0.0008  0.5049  0.0916
19160SOL    HW169458   4.590   1.568   2.392 -1.7296  0.4061  0.0363
19160SOL    HW269459   4.528   1.437   2.437  0.2643 -0.6988 -0.3264
19161SOL     OW69460   7.915   2.262   5.305 -0.4246 -0.1432 -0.3779
19161SOL    HW169461   7.951   2.255   5.217 -0.2483 -0.8479 -0.2535
19161SOL    HW269462   7.875   2.349   5.308 -0.9024 -0.3226 -1.3319
19162SOL     OW69463   3.492   7.095   3.406  0.2669  0.3157  0.8366
19162SOL    HW169464   3.492   6.999   3.407  0.7708  0.2354 -1.5866
19162SOL    HW269465   3.400   7.118   3.388 -0.2040  0.4057  3.0436
19163SOL     OW69466   9.830  10.235   2.034 -1.0394 -0.3621 -0.4239
19163SOL    HW169467   9.774  10.189   1.971  0.6762 -1.7941 -0.9628
19163SOL    HW269468   9.817  10.188   2.116 -2.2138  0.6491  0.0084
19164SOL     OW69469   1.296   8.814   3.382 -0.4127  0.0193  0.4999
19164SOL    HW169470   1.206   8.830   3.353 -0.9068 -1.7992  0.9201
19164SOL    HW269471   1.289   8.743   3.446  1.4728 -1.1797 -0.5290
19165SOL     OW69472   0.991   9.537   8.577 -0.2568 -0.0157 -0.4176
19165SOL    HW169473   0.916   9.484   8.604 -0.6383  0.8359  0.2423
19165SOL    HW269474   1.067   9.491   8.613 -0.5134 -0.5088 -0.4899
19166SOL     OW69475   3.356   8.659   2.113 -0.3856 -0.0008 -0.0164
19166SOL    HW169476   3.371   8.739   2.163  0.6462  0.7838 -1.5088
19166SOL    HW269477   3.274   8.674   2.067  0.2022  0.5542 -0.9109
19167SOL     OW69478   0.071  10.315   4.913  0.1662 -0.0014  0.0752
19167SOL    HW169479   0.159  10.282   4.933  0.4748  1.1245  0.6757
19167SOL    HW269480   0.012  10.260   4.965  0.8319  1.7772  2.9198
19168SOL     OW69481   2.115   4.206  10.223  0.0837 -0.3972 -0.0799
19168SOL    HW169482   2.169   4.185  10.147  2.3466 -0.0996  1.3656
19168SOL    HW269483   2.114   4.301  10.227  1.0046 -0.4083  0.9099
19169SOL     OW69484   4.228   6.609   5.539 -0.0248 -0.8959 -0.8995
19169SOL    HW169485   4.204   6.548   5.610 -1.5905 -1.6891 -2.0358
19169SOL    HW269486   4.213   6.559   5.459  0.8308  0.2840 -1.8295
19170SOL     OW69487   7.322   0.414   7.599  0.4229  0.5200  0.0115
19170SOL    HW169488   7.322   0.494   7.547 -0.7606  1.1997  0.9882
19170SOL    HW269489   7.315   0.343   7.535 -1.8721  1.3620 -0.7866
19171SOL     OW69490   3.846   2.580   7.696  0.7547  0.0173 -0.2428
19171SOL    HW169491   3.918   2.575   7.633  1.8842 -0.2065  1.0123
19171SOL    HW269492   3.878   2.640   7.764 -0.1299 -0.3218  0.4883
19172SOL     OW69493   6.085   7.235   2.445  0.1692 -0.0873  0.3134
19172SOL    HW169494   6.008   7.281   2.412 -0.4375 -1.4788 -0.2764
19172SOL    HW269495   6.135   7.212   2.367  0.7325  0.0190  0.6358
19173SOL     OW69496   9.792   7.592   8.947 -0.0834  0.1467  0.4307
19173SOL    HW169497   9.711   7.643   8.944  0.2457  0.9012  2.6907
19173SOL    HW269498   9.766   7.506   8.979 -0.2764 -0.4154 -1.1061
19174SOL     OW69499   8.037   7.969   6.549  0.1238 -0.0320 -0.1266
19174SOL    HW169500   7.984   7.973   6.628 -0.2600  0.1227 -0.3879
19174SOL    HW269501   8.114   8.022   6.569  0.6982 -1.1226  0.6282
19175SOL     OW69502   8.732   5.856   5.665  0.1782  0.1923 -0.2250
19175SOL    HW169503   8.729   5.941   5.707 -1.4430 -0.7179  1.6797
19175SOL    HW269504   8.805   5.811   5.707  1.7040  0.9139 -1.9572
19176SOL     OW69505   6.362   8.303   2.044 -0.1975 -0.0272 -0.1408
19176SOL    HW169506   6.439   8.327   2.096 -1.5902  1.4596  1.3556
19176SOL    HW269507   6.306   8.254   2.105 -0.9533 -0.0642 -0.8468
19177SOL     OW69508   7.506   2.531   9.656 -0.0354 -0.0702 -0.1964
19177SOL    HW169509   7.572   2.593   9.686  0.3018 -0.3066 -0.4455
19177SOL    HW269510   7.525   2.518   9.563  0.1789 -0.8900 -0.0452
19178SOL     OW69511   3.295   2.862   8.321  0.3003 -0.1727 -0.3858
19178SOL    HW169512   3.280   2.796   8.253 -1.0746 -0.8945  0.5753
19178SOL    HW269513   3.390   2.873   8.322  0.4993 -1.5470 -1.1331
19179SOL     OW69514   6.114   9.690   9.995 -0.2648  0.3716 -0.2910
19179SOL    HW169515   6.035   9.717  10.042 -0.2634  0.5764 -0.4061
19179SOL    HW269516   6.162   9.772   9.981  1.3793 -0.0455  2.3335
19180SOL     OW69517   5.782   4.467   3.396  0.2696 -0.6252  0.2942
19180SOL    HW169518   5.826   4.391   3.357  0.1146 -1.1974  1.2041
19180SOL    HW269519   5.830   4.542   3.362  1.0714 -1.1773  0.1680
19181SOL     OW69520   2.781   8.507   6.997 -0.1290 -0.4597  0.4619
19181SOL    HW169521   2.714   8.551   6.945 -0.4798 -1.6599 -0.1470
19181SOL    HW269522   2.772   8.414   6.974  0.6224 -0.8493  1.6433
19182SOL     OW69523   1.735   7.470   4.682 -0.6137 -0.7029  0.8239
19182SOL    HW169524   1.716   7.380   4.655 -0.2460 -0.2319 -1.1282
19182SOL    HW269525   1.650   7.514   4.676 -0.6326 -0.7198  0.9629
19183SOL     OW69526   1.737   2.575   9.465 -0.0220  0.7339 -0.4983
19183SOL    HW169527   1.697   2.660   9.484  0.0003  0.7814 -0.6572
19183SOL    HW269528   1.669   2.528   9.416 -0.5570  0.1404  0.7551
19184SOL     OW69529   0.923   9.489   8.991  0.3545 -0.6635  0.0996
19184SOL    HW169530   0.934   9.435   9.069  0.7335  0.1138  0.6008
19184SOL    HW269531   0.945   9.578   9.020  0.6860 -0.3895 -0.9379
19185SOL     OW69532   0.916   1.790   5.700 -0.1105 -0.2367 -0.1355
19185SOL    HW169533   0.967   1.714   5.727  1.1799 -0.2489 -2.3044
19185SOL    HW269534   0.981   1.851   5.665 -1.2953  1.0990 -0.0957
19186SOL     OW69535   3.231   1.128   1.332  0.4135  0.0334  0.6663
19186SOL    HW169536   3.139   1.124   1.360  0.5025  2.0841  1.4198
19186SOL    HW269537   3.279   1.085   1.401  0.1100 -0.1215  0.7832
19187SOL     OW69538   9.930   8.963   6.454  0.3627  0.2771  0.0158
19187SOL    HW169539   9.858   8.903   6.475 -0.4956  0.8534 -1.1559
19187SOL    HW269540   9.963   8.933   6.370  0.9843  0.5041  0.1733
19188SOL     OW69541   2.118   8.328   1.182  0.2357  0.3469 -0.1577
19188SOL    HW169542   2.031   8.366   1.183 -0.3206 -0.7184  2.7720
19188SOL    HW269543   2.107   8.243   1.140 -0.2398  0.1237  0.3922
19189SOL     OW69544   8.013   3.730   4.000 -0.3611  0.2086 -0.0148
19189SOL    HW169545   8.053   3.701   4.082 -0.3963 -0.5221 -0.2452
19189SOL    HW269546   8.073   3.795   3.965  0.2080 -0.2684  0.0609
19190SOL     OW69547   0.989   8.106   0.028 -0.3841  0.6715  0.4649
19190SOL    HW169548   1.043   8.028   0.041 -1.5750  0.2142  3.4210
19190SOL    HW269549   1.016   8.140  -0.057  0.9995 -2.2971 -0.3986
19191SOL     OW69550   1.830   3.414   4.404  0.0379 -0.4056  0.1221
19191SOL    HW169551   1.742   3.451   4.400 -0.0304 -0.5933 -0.1465
19191SOL    HW269552   1.832   3.367   4.488 -0.3146 -0.8864 -0.1346
19192SOL     OW69553   8.570   5.977   0.775  0.3707 -0.2112 -0.3384
19192SOL    HW169554   8.584   5.988   0.681 -2.2236  1.3648 -0.6257
19192SOL    HW269555   8.558   6.065   0.809 -0.1268 -0.8370  1.2200
19193SOL     OW69556   0.603   6.730   1.504 -0.4132  0.6921 -0.1948
19193SOL    HW169557   0.594   6.687   1.590 -0.3436  0.6462 -0.2101
19193SOL    HW269558   0.552   6.811   1.512 -0.7351  0.4963 -0.2407
19194SOL     OW69559   2.371   9.137   0.635 -0.6519  0.1654  0.4408
19194SOL    HW169560   2.462   9.135   0.663 -0.1629 -1.9193 -1.0900
19194SOL    HW269561   2.320   9.125   0.715  0.4369  0.3269  1.1730
19195SOL     OW69562   8.081   9.842   6.659  0.0900  0.2429  0.4679
19195SOL    HW169563   7.986   9.836   6.649 -0.1025  0.4566  1.9369
19195SOL    HW269564   8.097   9.819   6.751  1.3173  1.5733  0.6278
19196SOL     OW69565   8.921   3.447   7.762 -0.1858 -0.0585  0.0830
19196SOL    HW169566   8.949   3.364   7.799  1.2994  0.2037 -0.3906
19196SOL    HW269567   8.901   3.427   7.670 -1.3370 -0.1891  0.3506
19197SOL     OW69568   0.117   9.132   5.458  0.8971  0.5808 -0.1597
19197SOL    HW169569   0.131   9.225   5.473 -1.0428  1.0526 -1.0555
19197SOL    HW269570   0.049   9.128   5.390 -0.7056 -1.4492  1.4299
19198SOL     OW69571   0.677   3.769   5.496 -0.9847 -0.3496  0.8063
19198SOL    HW169572   0.728   3.693   5.468 -0.8723 -0.7784  2.1331
19198SOL    HW269573   0.599   3.732   5.538 -1.1071  0.2750  1.1430
19199SOL     OW69574   0.766   5.122   6.279 -0.7863  0.0138  0.3075
19199SOL    HW169575   0.850   5.087   6.308 -0.6111  1.1060  1.1612
19199SOL    HW269576   0.785   5.164   6.195 -0.2314  1.2616  1.0457
19200SOL     OW69577   0.483   9.850   4.559  0.4246  0.1862 -0.6026
19200SOL    HW169578   0.570   9.819   4.533 -0.0545 -1.0439 -0.8296
19200SOL    HW269579   0.442   9.774   4.600 -0.1024  1.1114  0.6426
19201SOL     OW69580   7.379   5.619   5.408  0.2809  0.4777 -0.0631
19201SOL    HW169581   7.464   5.646   5.373 -0.2198 -0.4113 -2.0958
19201SOL    HW269582   7.330   5.701   5.415  0.7373  0.8023 -0.5268
19202SOL     OW69583   1.753   1.691   3.230 -0.3206  0.6423 -0.6496
19202SOL    HW169584   1.714   1.622   3.283 -1.1146  0.0292 -1.9912
19202SOL    HW269585   1.741   1.662   3.140  4.3612 -0.2831 -1.2562
19203SOL     OW69586   4.980   8.724   3.715  0.3227 -0.4213  0.1491
19203SOL    HW169587   5.051   8.770   3.760 -0.9488  0.5640  1.2251
19203SOL    HW269588   4.929   8.685   3.786  0.3865 -2.0658 -0.6648
19204SOL     OW69589   9.976   4.242   8.587 -0.5651 -0.5812 -0.1329
19204SOL    HW169590  10.028   4.217   8.510 -2.2766  1.1987 -2.0125
19204SOL    HW269591   9.894   4.274   8.550 -0.9435  1.6746  2.3827
19205SOL     OW69592   1.507   7.907   6.511 -0.1906 -0.3007  0.5080
19205SOL    HW169593   1.490   7.815   6.488  0.5767  0.0901 -1.9235
19205SOL    HW269594   1.574   7.902   6.579 -0.1364 -1.5481  0.3990
19206SOL     OW69595   7.797   9.037   1.064 -0.1156  0.3582 -0.2232
19206SOL    HW169596   7.790   9.132   1.078 -0.3264  0.4660 -1.0181
19206SOL    HW269597   7.883   9.014   1.100 -0.2618  0.7618  0.4081
19207SOL     OW69598   1.993   8.444   7.949  0.0510  0.1740 -0.3185
19207SOL    HW169599   1.991   8.459   7.854  1.6363 -0.8319 -0.5492
19207SOL    HW269600   2.005   8.350   7.958  1.5427  0.4294  0.8218
19208SOL     OW69601   8.156   9.624   0.310 -0.6303  0.4067  0.2335
19208SOL    HW169602   8.100   9.546   0.315 -1.4421  0.8167 -1.8592
19208SOL    HW269603   8.184   9.639   0.401 -2.4333 -0.8745  1.0446
19209SOL     OW69604   7.179   4.775   6.630 -0.4713  0.0875  0.2967
19209SOL    HW169605   7.242   4.779   6.558 -0.0308  0.4450  0.6937
19209SOL    HW269606   7.175   4.683   6.654  0.9866  0.2193  1.2026
19210SOL     OW69607   3.196   1.880   0.349 -0.4227 -0.4491 -0.0907
19210SOL    HW169608   3.157   1.919   0.271  0.0526 -0.1933 -0.2096
19210SOL    HW269609   3.289   1.903   0.343 -0.2411 -1.0992  0.1456
19211SOL     OW69610   1.310   5.119   4.968  0.6105  0.0326 -0.5879
19211SOL    HW169611   1.257   5.137   4.891 -1.6763 -1.1909  0.5994
19211SOL    HW269612   1.341   5.029   4.956  1.3317  0.2767 -0.6354
19212SOL     OW69613   8.648   2.035   7.957  0.7646 -0.1529 -0.3944
19212SOL    HW169614   8.638   2.130   7.965 -1.2615 -0.4283  1.1788
19212SOL    HW269615   8.570   2.007   7.909  1.3960 -1.0275 -0.9267
19213SOL     OW69616   6.949   6.024   4.335  0.5382 -0.5737  0.7611
19213SOL    HW169617   6.996   5.981   4.406  0.0217  0.5269  1.8000
19213SOL    HW269618   6.998   6.105   4.319  0.6381 -0.8018 -0.1334
19214SOL     OW69619   8.257   4.306   6.010  0.1595  0.4203 -0.4244
19214SOL    HW169620   8.165   4.303   5.982  0.3619 -2.3562 -1.0968
19214SOL    HW269621   8.254   4.292   6.104 -0.1042 -1.0562 -0.6257
19215SOL     OW69622   9.158  10.260   6.561 -0.6853  0.3769  0.0167
19215SOL    HW169623   9.081  10.258   6.618  0.7502 -2.7901  2.1809
19215SOL    HW269624   9.213  10.330   6.597 -0.0448 -1.2221  2.4192
19216SOL     OW69625   7.717   8.777   0.574 -0.2510  0.4935 -0.4827
19216SOL    HW169626   7.634   8.773   0.527 -0.9716 -1.6025  0.8408
19216SOL    HW269627   7.704   8.844   0.640 -1.6493 -1.0578  0.9232
19217SOL     OW69628   4.898   7.243   6.321  0.0525  0.6700  0.0448
19217SOL    HW169629   4.975   7.257   6.376  1.9587 -1.7505 -1.7449
19217SOL    HW269630   4.837   7.195   6.377  1.3352 -0.4696  0.5136
19218SOL     OW69631   4.386   6.355   2.534 -0.1355 -0.1495 -0.0118
19218SOL    HW169632   4.445   6.285   2.508 -1.3539 -1.0991 -0.3184
19218SOL    HW269633   4.418   6.432   2.486  2.6868  0.1806  2.1671
19219SOL     OW69634   8.969   4.542   5.439  0.7174 -0.0524  0.2194
19219SOL    HW169635   9.056   4.555   5.476  0.5230 -1.0030  1.0737
19219SOL    HW269636   8.979   4.467   5.380  1.2287  2.0021 -2.4859
19220SOL     OW69637   3.439   7.837   9.180 -0.5547  0.4689  0.6551
19220SOL    HW169638   3.515   7.879   9.140 -0.7406  0.8149  0.6578
19220SOL    HW269639   3.376   7.827   9.109  0.1890 -1.5460  0.2180
19221SOL     OW69640  10.079   9.563   1.708 -0.1959  0.6884 -0.1923
19221SOL    HW169641  10.104   9.630   1.644  2.1012 -0.1942 -0.3275
19221SOL    HW269642  10.122   9.590   1.789  1.9766 -1.2244 -0.5879
19222SOL     OW69643   6.496   7.758   0.991 -0.0137 -0.5684  0.5563
19222SOL    HW169644   6.579   7.793   0.960 -0.7488  2.6679  1.8939
19222SOL    HW269645   6.517   7.710   1.071  0.5130  0.9784  1.3754
19223SOL     OW69646   9.256   2.355   9.731  0.6281 -0.1091 -0.9074
19223SOL    HW169647   9.230   2.321   9.646  0.8972 -1.4825 -0.4666
19223SOL    HW269648   9.318   2.425   9.711 -0.6868  0.8393 -1.8661
19224SOL     OW69649   1.631   0.342   4.531  0.6365  0.4197  0.2882
19224SOL    HW169650   1.666   0.298   4.454 -0.5958  0.3720 -0.2549
19224SOL    HW269651   1.682   0.305   4.604  1.8446  0.4987 -0.4774
19225SOL     OW69652   3.403   1.842   8.952  0.2661  0.5929 -0.5121
19225SOL    HW169653   3.378   1.751   8.968 -0.7593  0.9635  0.0750
19225SOL    HW269654   3.346   1.894   9.009  0.7770  1.6137 -0.8915
19226SOL     OW69655   7.461   7.233   4.943 -0.3675  0.3797 -0.2019
19226SOL    HW169656   7.526   7.218   4.874 -1.2445 -2.2994 -0.5562
19226SOL    HW269657   7.383   7.264   4.897 -0.4692  0.0777 -0.2354
19227SOL     OW69658   0.254   5.637   5.792  0.1317 -0.2673  0.1200
19227SOL    HW169659   0.270   5.548   5.761  1.2777 -0.1250  0.2630
19227SOL    HW269660   0.341   5.673   5.810 -0.2820  1.0222 -0.3042
19228SOL     OW69661   4.750   2.985   8.514 -0.7906  0.0781 -0.0907
19228SOL    HW169662   4.718   3.047   8.580 -1.1412  0.1125 -0.2920
19228SOL    HW269663   4.843   2.974   8.535 -1.0315 -0.4017  0.8076
19229SOL     OW69664   2.518   3.493   6.461  0.0655 -0.3074 -0.2557
19229SOL    HW169665   2.455   3.496   6.389  1.6207 -0.6099 -1.6992
19229SOL    HW269666   2.538   3.400   6.471  2.7839 -0.0591 -2.2165
19230SOL     OW69667   4.710   8.614   2.027 -0.1125  0.0915  0.0779
19230SOL    HW169668   4.782   8.608   1.964 -0.7193  0.2618 -0.6481
19230SOL    HW269669   4.644   8.668   1.984 -0.2212  0.8863  1.1858
19231SOL     OW69670   9.738   8.809   2.965 -0.6575 -0.4170  0.1122
19231SOL    HW169671   9.776   8.860   2.893 -1.2536 -0.7968 -0.4761
19231SOL    HW269672   9.658   8.857   2.989 -0.1358  0.0604  0.9594
19232SOL     OW69673   3.432   0.269   9.812 -0.6867  0.2018  0.4804
19232SOL    HW169674   3.389   0.246   9.730  0.1401  1.9158 -0.4865
19232SOL    HW269675   3.491   0.195   9.829  1.3319  1.0289 -2.1033
19233SOL     OW69676   9.430   1.851   4.068  0.2944 -0.1932 -0.1848
19233SOL    HW169677   9.357   1.904   4.037 -0.0084  0.1147  1.0072
19233SOL    HW269678   9.403   1.761   4.051  0.4072 -0.0269 -1.3496
19234SOL     OW69679   8.865   1.838   7.912  0.2265 -0.0913  0.0082
19234SOL    HW169680   8.864   1.933   7.900 -0.0271 -0.0729  0.1579
19234SOL    HW269681   8.820   1.825   7.996 -0.6888 -0.4135 -0.5239
19235SOL     OW69682   8.184   6.794   1.910  0.4073  0.5341 -0.1589
19235SOL    HW169683   8.228   6.729   1.965 -1.4488  0.1537  1.0091
19235SOL    HW269684   8.093   6.764   1.907 -0.0214  1.8503 -1.5309
19236SOL     OW69685   7.468   7.334   3.442 -0.9230 -0.2602  0.4475
19236SOL    HW169686   7.552   7.316   3.483 -0.0260 -1.4156 -1.7119
19236SOL    HW269687   7.403   7.309   3.507  0.3961 -2.9249  0.8772
19237SOL     OW69688   8.942   6.752  10.033  0.3083 -0.7755 -0.0609
19237SOL    HW169689   8.904   6.734   9.947 -1.1306 -1.7545  0.7266
19237SOL    HW269690   8.992   6.673  10.053 -1.4736 -1.6813  1.0528
19238SOL     OW69691   5.673   5.881   3.180 -0.1019  0.2953  0.1667
19238SOL    HW169692   5.601   5.937   3.149 -0.5479  0.2774  1.1233
19238SOL    HW269693   5.694   5.825   3.105 -0.4836  0.9069 -0.4106
19239SOL     OW69694   0.173   8.336   7.115 -1.0135 -0.2056 -0.1973
19239SOL    HW169695   0.132   8.422   7.125  0.0829  0.3614 -0.3647
19239SOL    HW269696   0.253   8.342   7.167  0.0034 -0.4758 -1.6750
19240SOL     OW69697   4.255   0.012   2.593 -0.6142 -0.1185  0.0734
19240SOL    HW169698   4.213   0.047   2.672 -0.5508  0.9613 -0.3519
19240SOL    HW269699   4.336  -0.027   2.625 -1.1095 -0.6760  0.6773
19241SOL     OW69700   3.454   6.380   0.505  0.3146 -0.1116  0.7156
19241SOL    HW169701   3.434   6.436   0.581 -0.9778 -1.5407  1.4902
19241SOL    HW269702   3.513   6.313   0.540  0.4863 -0.2197  0.2172
19242SOL     OW69703   9.466   7.752   7.549 -0.6324  0.0600 -0.1926
19242SOL    HW169704   9.386   7.803   7.558 -0.7471 -0.2970  0.9623
19242SOL    HW269705   9.514   7.768   7.631  0.1945 -0.2191 -0.6071
19243SOL     OW69706   0.453   0.998   1.436 -0.1953 -0.7713  0.1583
19243SOL    HW169707   0.436   1.001   1.342  0.5864 -1.1930 -0.0118
19243SOL    HW269708   0.378   0.953   1.474  0.3046 -2.2401 -0.5033
19244SOL     OW69709   1.315   9.159   7.400 -0.1874 -0.3129 -0.4327
19244SOL    HW169710   1.329   9.074   7.360  2.0149 -0.5452  0.6633
19244SOL    HW269711   1.391   9.211   7.373  0.1080  0.2804  1.3795
19245SOL     OW69712   5.615   5.090   9.650 -0.2925  0.1704 -0.2746
19245SOL    HW169713   5.582   5.115   9.564 -0.3058 -2.1891 -1.0241
19245SOL    HW269714   5.537   5.076   9.703 -0.2847  1.6207  0.1499
19246SOL     OW69715   3.711   0.100   7.051  0.2701 -0.1401  0.7577
19246SOL    HW169716   3.747   0.176   7.096  1.4353 -0.0415 -0.2903
19246SOL    HW269717   3.684   0.041   7.122  1.8483  0.1028  1.6081
19247SOL     OW69718   0.757   2.875   0.861  0.3812  0.8078 -0.4223
19247SOL    HW169719   0.763   2.901   0.953 -0.3152 -0.5156  0.0341
19247SOL    HW269720   0.827   2.810   0.850 -0.6736 -0.3925 -0.2975
19248SOL     OW69721   3.465   0.939   5.926 -0.2990 -0.0359  0.5820
19248SOL    HW169722   3.412   0.979   5.995 -0.1052  0.6634  0.3341
19248SOL    HW269723   3.489   0.853   5.960 -0.5437  0.1454  1.2137
19249SOL     OW69724   8.754   3.291   9.261 -0.6613 -0.8406 -0.0120
19249SOL    HW169725   8.833   3.316   9.308 -0.3197  1.7871 -1.7555
19249SOL    HW269726   8.745   3.197   9.275  2.2373 -1.0413  0.9817
19250SOL     OW69727   8.268   0.010   6.841 -0.6672 -0.0808  0.6318
19250SOL    HW169728   8.186  -0.037   6.827 -1.9113  2.3716 -1.3299
19250SOL    HW269729   8.268   0.077   6.772  4.1533 -1.4183 -1.0235
19251SOL     OW69730   1.217   6.757  10.209  0.2802  0.5731 -0.2969
19251SOL    HW169731   1.229   6.715  10.294 -2.4654 -1.9752 -0.9840
19251SOL    HW269732   1.168   6.837  10.227  0.0568  0.2479  0.5600
19252SOL     OW69733   8.381   8.899   7.248  0.0418  0.1504 -0.5709
19252SOL    HW169734   8.292   8.918   7.218  0.1276 -0.4323 -1.2338
19252SOL    HW269735   8.434   8.969   7.211  0.2870 -1.0206 -2.6215
19253SOL     OW69736   6.354   7.451   5.606  0.0643  0.2646  0.1351
19253SOL    HW169737   6.396   7.413   5.683  2.6742  2.5723  0.0232
19253SOL    HW269738   6.336   7.542   5.630 -0.5744  0.5921 -1.4285
19254SOL     OW69739   0.669   7.054   9.117 -0.5161  0.1987  0.2485
19254SOL    HW169740   0.673   6.958   9.113 -2.7736  0.1025 -1.0033
19254SOL    HW269741   0.735   7.082   9.054 -1.2523 -0.5956 -0.9140
19255SOL     OW69742   1.076   8.079   7.691 -0.0689 -0.4182  0.1923
19255SOL    HW169743   1.054   8.025   7.767  0.5935 -0.1265  0.5976
19255SOL    HW269744   1.150   8.132   7.719 -0.5661  0.5590 -0.2733
19256SOL     OW69745   1.806   1.192   2.467  0.8256  0.2578 -0.1413
19256SOL    HW169746   1.743   1.264   2.471  0.3549 -0.1044 -0.8857
19256SOL    HW269747   1.759   1.117   2.504  1.5694  0.4856  1.3563
19257SOL     OW69748   7.046   1.005   8.569 -0.0999 -0.6990  0.5356
19257SOL    HW169749   6.992   1.036   8.641  1.0594 -1.2338  1.6869
19257SOL    HW269750   7.122   1.063   8.569 -0.3612 -0.3314 -0.6564
19258SOL     OW69751   6.595   2.613   7.646  0.2767  0.4509  0.3634
19258SOL    HW169752   6.661   2.650   7.587 -0.7559 -1.7704 -2.3874
19258SOL    HW269753   6.520   2.673   7.638  0.4868  0.6963  0.2141
19259SOL     OW69754   2.245   5.418   4.915 -0.3645  0.2346 -0.0046
19259SOL    HW169755   2.213   5.334   4.882  1.0792  0.4248 -2.0807
19259SOL    HW269756   2.166   5.466   4.939 -1.1931 -2.1966  2.7185
19260SOL     OW69757   6.035   4.395   1.944  0.2287  0.2734  0.1646
19260SOL    HW169758   6.094   4.461   1.907 -1.8155  1.6048 -0.9773
19260SOL    HW269759   5.987   4.442   2.013 -0.7050 -0.2176 -0.1271
19261SOL     OW69760   5.349   0.532   1.005 -0.0301  0.1596 -0.2759
19261SOL    HW169761   5.441   0.516   1.026 -0.3439 -1.2949  0.0868
19261SOL    HW269762   5.346   0.624   0.979  1.6991 -0.0298 -1.2844
19262SOL     OW69763   7.052   8.234  10.245 -0.1805 -0.2984 -0.1767
19262SOL    HW169764   7.148   8.235  10.244 -0.1596 -0.3694  0.8275
19262SOL    HW269765   7.027   8.322  10.219  0.1352 -0.5240 -1.2975
19263SOL     OW69766   1.759   2.261   4.167  0.4154  0.0144  0.2878
19263SOL    HW169767   1.802   2.327   4.221  0.0276  0.2678  0.2911
19263SOL    HW269768   1.803   2.179   4.190  1.2135  0.3375 -0.0592
19264SOL     OW69769   9.997   8.817  10.259  0.4202  0.2281  0.7180
19264SOL    HW169770  10.051   8.896  10.266  1.8045 -0.4399 -1.5330
19264SOL    HW269771   9.970   8.814  10.167  1.5600 -2.6223  0.4029
19265SOL     OW69772   3.830  10.179   0.280  0.6895  0.9403  0.1556
19265SOL    HW169773   3.843  10.089   0.251  0.1818  0.9922 -0.2517
19265SOL    HW269774   3.919  10.213   0.294  1.0456  1.1437 -2.1189
19266SOL     OW69775   4.266   9.739   6.254 -0.3819 -0.3438 -0.2131
19266SOL    HW169776   4.332   9.698   6.311 -0.5103  0.7288  0.7312
19266SOL    HW269777   4.282   9.699   6.168  0.6410 -1.0690  0.2816
19267SOL     OW69778   7.515   8.980   6.269 -0.0311 -0.1724 -0.1416
19267SOL    HW169779   7.510   8.940   6.356  1.1372  0.2864  0.1592
19267SOL    HW269780   7.501   8.907   6.208 -0.2371 -0.6131  0.4208
19268SOL     OW69781   0.146   3.035   4.617  0.4418  0.1324 -0.0965
19268SOL    HW169782   0.104   2.980   4.551  0.5580  0.4312 -0.4231
19268SOL    HW269783   0.076   3.093   4.649 -0.0894 -1.2759  1.4263
19269SOL     OW69784   0.916   1.432   6.871 -0.0394  0.1564  0.0724
19269SOL    HW169785   0.957   1.497   6.814  0.3553 -0.4718 -0.3599
19269SOL    HW269786   0.827   1.466   6.884  0.0546  0.6123 -0.4186
19270SOL     OW69787   3.030   1.281   0.645  0.2752 -0.4870  0.7252
19270SOL    HW169788   3.091   1.313   0.712  1.0979  0.2490 -0.3502
19270SOL    HW269789   3.017   1.188   0.667  0.6106 -0.2896  1.8253
19271SOL     OW69790   8.246   6.218   1.716  0.4510 -0.6812  0.0606
19271SOL    HW169791   8.340   6.201   1.729  0.6850  0.0653 -0.5869
19271SOL    HW269792   8.243   6.296   1.660 -0.5555 -0.9528 -0.2824
19272SOL     OW69793   1.023   7.337  10.014 -0.5468  0.1467 -0.4087
19272SOL    HW169794   0.965   7.287  10.072 -0.5840 -0.4818 -0.9815
19272SOL    HW269795   0.969   7.357   9.938 -0.3047  0.4152 -0.5111
19273SOL     OW69796   1.896   8.465   1.222 -0.5940 -0.9311  0.0144
19273SOL    HW169797   1.892   8.509   1.307  0.6492  1.1386 -0.9112
19273SOL    HW269798   1.829   8.509   1.169  0.8022  0.0820 -0.9921
19274SOL     OW69799   3.727   8.365   9.299 -0.1837 -0.4836 -0.0118
19274SOL    HW169800   3.798   8.349   9.236 -0.4426 -1.2118 -0.1230
19274SOL    HW269801   3.743   8.455   9.330  0.5925 -0.5176 -0.2831
19275SOL     OW69802   5.173   3.152   6.947 -0.1776  0.6097  0.6205
19275SOL    HW169803   5.108   3.182   6.883  0.5668  0.0341 -0.4232
19275SOL    HW269804   5.233   3.226   6.956 -0.5977  0.9005  1.0946
19276SOL     OW69805   3.863   6.987   3.077 -0.1508 -0.1915 -0.2743
19276SOL    HW169806   3.866   7.040   3.156 -2.4766 -1.0252  0.4667
19276SOL    HW269807   3.784   7.016   3.031  0.7028 -0.2992 -1.8973
19277SOL     OW69808   2.983   6.393   4.993  0.2153  0.3890 -0.0391
19277SOL    HW169809   2.897   6.385   5.035  0.0014  0.6328 -0.4323
19277SOL    HW269810   3.021   6.473   5.030  0.1767  0.4078 -0.0409
19278SOL     OW69811   6.492   7.477   8.329 -0.2949 -0.7301  0.5537
19278SOL    HW169812   6.419   7.423   8.296  0.1825 -1.0063 -0.0717
19278SOL    HW269813   6.451   7.536   8.392 -1.2290 -0.2731 -0.4513
19279SOL     OW69814   7.958   2.139   5.812 -0.0145  0.2445 -0.6002
19279SOL    HW169815   7.866   2.129   5.835 -0.1095  1.8298 -0.1334
19279SOL    HW269816   7.980   2.059   5.764 -1.3456 -0.6104  0.1503
19280SOL     OW69817   7.059   7.087   5.631  0.2509  0.6243 -0.1874
19280SOL    HW169818   7.124   7.101   5.562 -1.0782  0.9357 -1.4293
19280SOL    HW269819   6.978   7.122   5.595 -0.1431  2.4890  2.2668
19281SOL     OW69820   6.332   7.689   0.789  0.4082 -0.3305 -0.0399
19281SOL    HW169821   6.381   7.723   0.864  1.9855  0.5436 -1.4041
19281SOL    HW269822   6.315   7.765   0.735 -0.9932 -0.9021 -0.4596
19282SOL     OW69823   0.839   3.433  10.173  0.2719 -0.0449  0.6450
19282SOL    HW169824   0.897   3.482  10.232 -0.0786  0.6894  0.3872
19282SOL    HW269825   0.769   3.495  10.151 -0.3498 -0.7613  0.5580
19283SOL     OW69826   1.656   6.880   9.217 -0.5160 -0.2515  0.3217
19283SOL    HW169827   1.669   6.816   9.287  0.6606  1.1445  1.4665
19283SOL    HW269828   1.687   6.836   9.138  0.6779 -0.9534  1.1520
19284SOL     OW69829   2.087   7.953   2.528  0.0056 -0.1917  0.1146
19284SOL    HW169830   2.140   7.975   2.451  0.1346  0.4968  0.3942
19284SOL    HW269831   2.032   8.030   2.542  0.3552 -0.0900  1.0219
19285SOL     OW69832   7.012   1.338   3.194  0.2530  0.0384 -0.2882
19285SOL    HW169833   6.985   1.379   3.277  0.0151 -0.2253 -0.2306
19285SOL    HW269834   7.068   1.265   3.221 -0.2957 -0.4073 -0.3239
19286SOL     OW69835   8.269   2.914   8.772  0.5024 -0.3787 -0.3795
19286SOL    HW169836   8.344   2.974   8.770  1.0923 -1.1210 -2.0752
19286SOL    HW269837   8.259   2.891   8.865  0.7773  1.6586  0.2040
19287SOL     OW69838   1.691   4.731   2.402  0.2724  0.0593 -0.4499
19287SOL    HW169839   1.760   4.794   2.423 -0.3823  1.0558 -1.1203
19287SOL    HW269840   1.667   4.753   2.312  0.1750 -1.3252 -0.7731
19288SOL     OW69841   7.179   9.576   0.793 -0.3761 -0.3537 -0.0228
19288SOL    HW169842   7.234   9.654   0.798 -2.0053  0.9738 -1.2174
19288SOL    HW269843   7.150   9.561   0.883  1.0095 -0.4193  0.4340
19289SOL     OW69844   2.890   7.572   1.025 -0.0666 -0.1794 -0.5231
19289SOL    HW169845   2.913   7.543   0.937  1.0654  0.9131 -0.6091
19289SOL    HW269846   2.938   7.654   1.037 -1.0599  0.2635  0.7051
19290SOL     OW69847   2.594   3.700  10.027  0.2943  0.1665  0.0753
19290SOL    HW169848   2.501   3.705  10.005  0.7281 -0.5489 -2.1395
19290SOL    HW269849   2.595   3.662  10.115 -1.4948 -1.2335 -0.4405
19291SOL     OW69850   3.784   6.002   6.090  0.2350 -0.0617  0.1899
19291SOL    HW169851   3.711   6.026   6.146  0.5532  0.3711  0.4177
19291SOL    HW269852   3.861   6.037   6.134  0.6746 -1.2176  0.3687
19292SOL     OW69853   1.863   3.513   8.285 -0.3230  0.1979  0.3307
19292SOL    HW169854   1.813   3.492   8.206 -0.8726  2.2257  0.0703
19292SOL    HW269855   1.814   3.584   8.326  1.3377  0.9575  1.1035
19293SOL     OW69856   9.545   8.332   8.379 -0.1034  0.1667  0.2513
19293SOL    HW169857   9.567   8.265   8.444 -0.0470  2.6515  3.0623
19293SOL    HW269858   9.609   8.320   8.309  0.8264 -1.7526  1.3594
19294SOL     OW69859   5.430   7.961   1.363 -0.2055 -0.4516  0.1972
19294SOL    HW169860   5.380   7.886   1.332  1.8386 -1.2329 -1.4221
19294SOL    HW269861   5.506   7.923   1.407  0.8337  0.6361 -0.5924
19295SOL     OW69862   0.759   6.300   5.913 -0.3939 -0.1348  0.3857
19295SOL    HW169863   0.779   6.281   5.822  1.3737 -1.2520  0.9714
19295SOL    HW269864   0.826   6.254   5.963 -0.5158  1.5495  2.2159
19296SOL     OW69865   5.855   1.008   1.016 -0.4522  0.3035 -0.3709
19296SOL    HW169866   5.906   1.060   0.954 -0.8678  2.3317  0.8845
19296SOL    HW269867   5.794   0.958   0.962  0.2607  0.7935 -1.6674
19297SOL     OW69868   7.094   9.462  10.350  0.0188 -0.1322  0.2641
19297SOL    HW169869   7.114   9.458  10.256  2.9041  1.3206  0.7057
19297SOL    HW269870   7.120   9.550  10.376 -1.0829 -0.3827  2.3785
19298SOL     OW69871   3.370   6.663   6.548  0.7434 -0.4307 -0.4162
19298SOL    HW169872   3.433   6.708   6.605 -0.9156  1.8365 -0.2531
19298SOL    HW269873   3.290   6.657   6.601  0.3188 -1.9032 -1.1563
19299SOL     OW69874   7.897   8.012   4.835  0.6994  0.1743 -0.0303
19299SOL    HW169875   7.967   7.998   4.898 -0.7747  0.8033  1.8444
19299SOL    HW269876   7.904   7.938   4.774  3.5466  0.7240 -0.5452
19300SOL     OW69877   8.399   2.404   6.744 -0.0133  0.2732 -0.5090
19300SOL    HW169878   8.380   2.384   6.836  0.1810  0.7934 -0.3515
19300SOL    HW269879   8.313   2.420   6.705 -0.3874 -2.7235 -1.1182
19301SOL     OW69880   6.641   0.691   6.450  0.3346  0.3389  0.0712
19301SOL    HW169881   6.688   0.686   6.367 -0.8625 -1.9246 -0.5636
19301SOL    HW269882   6.706   0.721   6.513  1.7476  0.3789 -1.3455
19302SOL     OW69883   5.189   4.426   5.923 -0.6306  0.0594 -0.5066
19302SOL    HW169884   5.126   4.481   5.876 -0.5406 -0.0180 -0.7207
19302SOL    HW269885   5.173   4.445   6.015 -1.9844 -1.0255 -0.4687
19303SOL     OW69886   0.960   3.830   3.653  0.1209  0.2154  0.5080
19303SOL    HW169887   0.976   3.922   3.633 -0.6424  0.1613 -0.4148
19303SOL    HW269888   0.911   3.831   3.735  0.1482  0.6296  0.5186
19304SOL     OW69889   1.500   1.623   6.119 -0.1210 -0.4727 -0.3200
19304SOL    HW169890   1.493   1.667   6.203  1.0056 -0.2080 -0.3535
19304SOL    HW269891   1.524   1.533   6.140 -1.0494 -0.7330 -0.3172
19305SOL     OW69892   2.363   9.592   0.868  0.1098 -0.3706 -0.4952
19305SOL    HW169893   2.439   9.550   0.909  0.9643  0.2361 -1.3934
19305SOL    HW269894   2.345   9.539   0.791 -0.7249 -0.8149 -0.0025
19306SOL     OW69895  10.180   5.969   7.354  0.7665  0.4235  0.0889
19306SOL    HW169896  10.114   5.966   7.285  1.8322  0.1889 -0.9621
19306SOL    HW269897  10.219   6.056   7.346 -0.4491  1.1824  1.7539
19307SOL     OW69898   0.940   7.182   1.868  0.3897 -0.0596  0.4258
19307SOL    HW169899   0.967   7.181   1.777 -1.8419 -2.2037 -0.3125
19307SOL    HW269900   0.869   7.246   1.872  0.9650  0.5617  0.8337
19308SOL     OW69901   2.417   1.405   9.999 -0.3530  0.3634  0.5062
19308SOL    HW169902   2.440   1.485   9.951 -1.0465  0.0241 -0.4074
19308SOL    HW269903   2.337   1.428  10.047  0.2158  0.6326  1.3530
19309SOL     OW69904   9.019   6.763   3.645  0.4173 -0.1174 -0.4350
19309SOL    HW169905   9.002   6.853   3.617 -3.0673 -0.5019 -0.0146
19309SOL    HW269906   9.089   6.771   3.710 -1.6499  2.7715  1.6899
19310SOL     OW69907   9.363  10.096   1.164 -0.1937 -0.1148 -0.0140
19310SOL    HW169908   9.441  10.120   1.114  1.0442 -1.4699  1.1628
19310SOL    HW269909   9.353  10.165   1.229  0.7293 -0.5004  0.5561
19311SOL     OW69910   9.508   1.178   0.791  0.0902 -0.1144 -0.4323
19311SOL    HW169911   9.563   1.188   0.713 -0.2964 -0.4393 -0.7468
19311SOL    HW269912   9.565   1.136   0.856 -0.4960 -2.7684 -1.5562
19312SOL     OW69913   1.548   5.771   8.019  0.4869  0.0004  0.1457
19312SOL    HW169914   1.632   5.754   7.977  1.3862  1.2775  1.3454
19312SOL    HW269915   1.571   5.802   8.107 -1.2999 -3.4384  2.0263
19313SOL     OW69916   7.124   1.315   4.201  0.4607 -0.4606 -0.2772
19313SOL    HW169917   7.177   1.387   4.166  2.3377 -2.6433 -2.2317
19313SOL    HW269918   7.040   1.356   4.222  1.2381  2.1896 -1.8108
19314SOL     OW69919   0.738   7.976   5.056  0.0017  0.3304 -0.2398
19314SOL    HW169920   0.823   7.954   5.093 -0.6364  0.3213  1.2997
19314SOL    HW269921   0.757   8.004   4.966  1.6487  0.6367  0.1786
19315SOL     OW69922   4.717   1.816   6.039 -0.5127 -0.5432 -0.2826
19315SOL    HW169923   4.722   1.908   6.012  1.5609 -1.0101 -1.7636
19315SOL    HW269924   4.650   1.778   5.982 -0.2631 -0.2705 -0.7697
19316SOL     OW69925   0.711   0.014   7.544  0.8502  0.5066  0.0118
19316SOL    HW169926   0.766   0.071   7.599  1.7572  1.4719 -1.8093
19316SOL    HW269927   0.657   0.075   7.494  0.3624 -0.3322 -0.4931
19317SOL     OW69928   0.229   0.994   9.605 -0.1137  0.0559  0.2382
19317SOL    HW169929   0.220   1.072   9.661 -1.9486 -0.3931  0.6278
19317SOL    HW269930   0.236   1.029   9.516 -0.0582  0.6801  0.4821
19318SOL     OW69931  10.385   3.041   2.769 -0.2632 -0.0274  0.1122
19318SOL    HW169932  10.328   2.992   2.828  0.2201  1.0208  1.4935
19318SOL    HW269933  10.455   2.979   2.747 -0.4414 -0.4261  0.6475
19319SOL     OW69934   1.600   6.011   0.662  0.0119 -0.5543 -0.2139
19319SOL    HW169935   1.521   6.027   0.609  0.4852  0.8108 -0.5469
19319SOL    HW269936   1.671   6.046   0.609  0.6385 -0.2255  0.8357
19320SOL     OW69937   4.452   9.851   3.135  0.2561 -0.3822  0.2924
19320SOL    HW169938   4.445   9.755   3.138  0.4483 -0.4173 -0.3031
19320SOL    HW269939   4.428   9.879   3.223 -1.3261 -0.8770  0.0507
19321SOL     OW69940   6.670   8.462   1.752 -0.7307 -0.2059  0.7080
19321SOL    HW169941   6.682   8.544   1.799 -1.2391 -0.5589  1.4986
19321SOL    HW269942   6.575   8.454   1.742 -0.7026 -0.8075  0.8633
19322SOL     OW69943   3.627   7.203   9.616 -0.1439 -0.0484  0.6324
19322SOL    HW169944   3.663   7.190   9.704 -0.4430  0.1506  0.7848
19322SOL    HW269945   3.635   7.297   9.601  3.8162 -0.4773 -1.2482
19323SOL     OW69946   5.771   4.448   9.844 -0.1345  0.2094 -0.5911
19323SOL    HW169947   5.727   4.519   9.891  0.4065  0.4378 -0.4242
19323SOL    HW269948   5.709   4.423   9.776 -0.5425  0.5000 -0.3333
19324SOL     OW69949   2.523   8.402   6.616 -0.6735  0.2543  0.0740
19324SOL    HW169950   2.616   8.409   6.633 -1.0307  2.6912  1.4654
19324SOL    HW269951   2.510   8.310   6.590  1.9266 -0.3738  0.7261
19325SOL     OW69952   6.847   7.189   8.945 -0.1525  0.3241  0.1369
19325SOL    HW169953   6.914   7.125   8.919 -2.6855 -2.4235 -0.2183
19325SOL    HW269954   6.842   7.181   9.040 -0.7731 -0.3951  0.0537
19326SOL     OW69955   9.886   3.919   9.109  0.3737 -0.0741  0.3525
19326SOL    HW169956   9.810   3.940   9.055 -0.3525 -1.2985  0.8647
19326SOL    HW269957   9.909   3.829   9.084  2.2136  0.5605 -0.4275
19327SOL     OW69958   3.341   9.003   7.140  0.2667  0.0373 -0.6881
19327SOL    HW169959   3.255   8.976   7.172  0.0689  1.3570 -0.0436
19327SOL    HW269960   3.348   8.963   7.053 -0.3042 -1.4095 -0.0954
19328SOL     OW69961   5.818   2.595   8.920  0.3821 -0.2855 -0.0581
19328SOL    HW169962   5.906   2.630   8.907  0.8003 -1.2486  0.0958
19328SOL    HW269963   5.818   2.511   8.875 -1.1117  0.5635 -1.8370
19329SOL     OW69964   9.429   4.642   0.007  0.0241  0.4081 -0.0310
19329SOL    HW169965   9.396   4.699  -0.064 -0.5790 -0.2835 -0.3246
19329SOL    HW269966   9.422   4.696   0.085 -0.4866  0.7735 -0.3141
19330SOL     OW69967   4.574   3.099   7.246  1.1463  0.0976 -0.3563
19330SOL    HW169968   4.601   3.029   7.305  1.2637  1.2374  0.9831
19330SOL    HW269969   4.575   3.178   7.300 -1.2533  0.7936 -1.1961
19331SOL     OW69970   5.056   1.058   1.911  0.5136  0.4445  0.6619
19331SOL    HW169971   5.086   0.992   1.974 -0.6530 -0.5014  0.2833
19331SOL    HW269972   5.117   1.051   1.838  0.0224 -0.7326  0.3353
19332SOL     OW69973   4.117   9.601   7.161 -0.0376 -0.1904  0.6955
19332SOL    HW169974   4.175   9.666   7.200 -0.4948  0.1616  0.7972
19332SOL    HW269975   4.088   9.548   7.236  0.3214 -0.5076  0.6154
19333SOL     OW69976   1.692   7.634   4.186  0.0085  0.2194 -0.0035
19333SOL    HW169977   1.627   7.704   4.195  0.1064  0.4060 -0.6640
19333SOL    HW269978   1.710   7.630   4.092  2.4717  1.5396  0.3286
19334SOL     OW69979   1.713   0.890   0.432  0.6580  0.6202  0.1342
19334SOL    HW169980   1.625   0.862   0.458  0.9855  0.4356  1.0911
19334SOL    HW269981   1.698   0.957   0.366 -0.1736 -0.5912 -0.9752
19335SOL     OW69982   8.467   6.935   3.933 -0.4595  0.8431 -0.1212
19335SOL    HW169983   8.478   7.020   3.890 -1.3748  0.7511 -0.5623
19335SOL    HW269984   8.503   6.948   4.021  1.0076  1.1751 -0.7399
19336SOL     OW69985   5.251   2.512   7.241 -0.0728 -0.0903  0.3331
19336SOL    HW169986   5.173   2.498   7.295 -1.8647  1.8174 -1.5761
19336SOL    HW269987   5.232   2.465   7.159  0.6181  0.6999 -0.2903
19337SOL     OW69988   6.161   3.439   7.225 -0.3635  0.6187  0.0096
19337SOL    HW169989   6.141   3.356   7.267  0.7106  0.4325  0.1972
19337SOL    HW269990   6.094   3.450   7.158 -0.4894 -0.4207 -0.0419
19338SOL     OW69991   6.646   0.797   0.622 -0.1478  0.0151  0.7421
19338SOL    HW169992   6.583   0.749   0.676 -0.2192  0.2928  0.9076
19338SOL    HW269993   6.682   0.731   0.563 -2.1985  0.2429 -0.8903
19339SOL     OW69994   7.213  10.360   6.897  0.0464  0.5213  0.7412
19339SOL    HW169995   7.279  10.429   6.897  0.4697  0.1309  0.0599
19339SOL    HW269996   7.250  10.292   6.841 -0.4891 -0.1381  1.1659
19340SOL     OW69997   5.815   8.829   2.508  0.1996  0.3034  0.4102
19340SOL    HW169998   5.736   8.789   2.544  0.4223 -0.0594  0.5018
19340SOL    HW269999   5.804   8.823   2.413 -0.0686  0.6266  0.4193
19341SOL     OW70000   2.343   3.245   7.456  0.0676  0.3793 -0.1822
19341SOL    HW170001   2.390   3.308   7.401 -1.3964 -0.6449 -2.7878
19341SOL    HW270002   2.322   3.172   7.397 -1.7245 -0.7563  1.7123
19342SOL     OW70003   1.993   8.517   0.898  0.2436  0.1375 -0.3107
19342SOL    HW170004   1.958   8.556   0.818 -1.1614  0.1813  0.2928
19342SOL    HW270005   1.943   8.435   0.908  1.2264 -0.4535 -0.0877
19343SOL     OW70006   9.644   4.930   4.162  0.2184 -0.7147 -0.1943
19343SOL    HW170007   9.604   4.875   4.095 -0.8264 -0.3788  0.1329
19343SOL    HW270008   9.579   4.997   4.180  0.2782 -1.0602  1.4914
19344SOL     OW70009   6.664   0.257   7.341 -0.2385  0.2246 -0.6238
19344SOL    HW170010   6.661   0.174   7.389 -1.2274 -0.2624 -1.4838
19344SOL    HW270011   6.733   0.307   7.384  0.2926 -0.9919 -0.0112
19345SOL     OW70012   4.009   9.124   8.460  0.0444  0.4414 -0.3346
19345SOL    HW170013   4.036   9.161   8.544  2.6324 -0.9589 -0.4683
19345SOL    HW270014   4.035   9.032   8.464 -1.6369 -0.1751 -1.9232
19346SOL     OW70015   8.076   7.754   6.331  1.0323 -0.1709 -0.0797
19346SOL    HW170016   8.075   7.806   6.411 -1.2580 -1.2878  0.7070
19346SOL    HW270017   8.168   7.753   6.304  1.9171  0.0963  2.6399
19347SOL     OW70018   1.847   9.411   8.824 -0.2148  0.0366 -0.0483
19347SOL    HW170019   1.815   9.432   8.736  1.2070  2.1674 -0.1430
19347SOL    HW270020   1.847   9.316   8.828 -1.6281 -0.0813 -1.8447
19348SOL     OW70021   9.032   7.020   4.494  0.3703 -0.0709 -0.1882
19348SOL    HW170022   9.091   7.051   4.425  0.1509  0.0529 -0.3214
19348SOL    HW270023   8.944   7.035   4.459  0.2593 -0.1848  0.0406
19349SOL     OW70024   3.429   4.282   0.854 -0.0774 -0.2283  0.2876
19349SOL    HW170025   3.373   4.315   0.924  0.6915 -1.4503  1.5342
19349SOL    HW270026   3.471   4.205   0.892  3.6592  1.4617 -0.0267
19350SOL     OW70027   6.584   0.536   4.116  0.1018 -0.1381 -0.2213
19350SOL    HW170028   6.561   0.485   4.038  2.4256 -0.9004 -0.4796
19350SOL    HW270029   6.551   0.624   4.098 -2.9817 -1.1806 -0.2772
19351SOL     OW70030   9.564   1.699   9.221 -0.4544  1.0254  0.1993
19351SOL    HW170031   9.623   1.641   9.172  0.8072 -0.5799  3.2463
19351SOL    HW270032   9.478   1.684   9.183  0.3818 -0.3038 -1.3058
19352SOL     OW70033   0.974   3.167   1.123 -0.2131  0.0307 -0.0715
19352SOL    HW170034   1.065   3.147   1.144 -0.0028  1.3449  0.3916
19352SOL    HW270035   0.951   3.240   1.181 -1.3394  0.1878 -0.6722
19353SOL     OW70036   0.053   5.545   6.090 -0.0467 -0.1578  0.1453
19353SOL    HW170037   0.038   5.459   6.050  0.0171 -0.2003  0.2126
19353SOL    HW270038  -0.023   5.597   6.064 -0.3595 -0.4021  0.5709
19354SOL     OW70039   2.239   5.696   6.092  0.1425 -0.1912 -0.2921
19354SOL    HW170040   2.262   5.777   6.046 -0.0602  0.4708  0.7306
19354SOL    HW270041   2.143   5.693   6.089  0.1594 -0.4972 -0.5045
19355SOL     OW70042   8.462   4.687   7.415 -0.0755 -0.3249  0.1767
19355SOL    HW170043   8.416   4.710   7.334 -0.2132 -0.7258  0.1409
19355SOL    HW270044   8.441   4.595   7.430  1.3189 -0.7486 -0.2604
19356SOL     OW70045   7.277   1.439   1.798  0.2817 -0.1033 -0.1721
19356SOL    HW170046   7.369   1.439   1.774  1.0608 -2.4266  2.3266
19356SOL    HW270047   7.245   1.526   1.772  3.0486  0.6459 -1.3942
19357SOL     OW70048   7.590   0.648   2.946  0.1121 -0.5519 -0.5095
19357SOL    HW170049   7.560   0.574   2.998 -0.8422 -0.5627 -1.0391
19357SOL    HW270050   7.681   0.629   2.926 -0.1401 -1.6291 -0.7075
19358SOL     OW70051   5.403  10.165   8.116 -0.3389  0.3116  0.5641
19358SOL    HW170052   5.314  10.185   8.089 -1.4631 -1.7787  2.3610
19358SOL    HW270053   5.437  10.109   8.046 -1.7737 -1.7307  1.3731
19359SOL     OW70054   6.751   7.227   5.075 -0.3811  0.1610  0.3596
19359SOL    HW170055   6.772   7.291   5.142  1.6911  0.9305 -0.9346
19359SOL    HW270056   6.808   7.152   5.095 -1.8272 -0.8175  1.0742
19360SOL     OW70057   2.463   0.052   3.646  0.1392  0.5459  0.4475
19360SOL    HW170058   2.529   0.027   3.581 -0.2794  0.7561 -0.0672
19360SOL    HW270059   2.491   0.138   3.677  0.2082  0.5564  0.3573
19361SOL     OW70060   3.354   3.899   3.689 -0.1892 -0.0751  0.4740
19361SOL    HW170061   3.391   3.878   3.774  0.9340 -0.6984 -0.1454
19361SOL    HW270062   3.311   3.819   3.660 -0.1845 -0.0042  0.2628
19362SOL     OW70063   1.062   1.478   6.056 -0.3335 -0.1298  0.6260
19362SOL    HW170064   0.973   1.506   6.035 -0.0044  1.9584  1.7868
19362SOL    HW270065   1.115   1.557   6.048  1.2256 -1.0621  1.1669
19363SOL     OW70066   2.681   9.539   3.664  0.2420  0.1013  0.2505
19363SOL    HW170067   2.637   9.614   3.702  1.1946  0.5999  0.4111
19363SOL    HW270068   2.755   9.522   3.723  0.8514 -0.0706 -0.5391
19364SOL     OW70069   8.756   7.644  10.360 -0.4223  0.5732  0.0519
19364SOL    HW170070   8.761   7.731  10.400 -0.0416  0.7542 -0.3744
19364SOL    HW270071   8.674   7.607  10.392  0.1014  0.5158  1.3804
19365SOL     OW70072   3.969   0.917   5.365  0.6497 -0.4372 -0.8337
19365SOL    HW170073   3.969   0.830   5.405  1.9346 -0.0888 -0.0214
19365SOL    HW270074   4.059   0.931   5.336  0.4230  0.5499 -1.1148
19366SOL     OW70075   0.808   0.405   7.584  0.4725 -0.3423 -0.3213
19366SOL    HW170076   0.727   0.360   7.560  0.5729 -0.1444 -1.0572
19366SOL    HW270077   0.869   0.384   7.513  0.8996 -0.0564 -0.0431
19367SOL     OW70078   9.053   1.765   7.259  0.1043  0.4531 -0.3538
19367SOL    HW170079   9.098   1.846   7.235  0.4144  0.8237  1.3428
19367SOL    HW270080   9.095   1.737   7.341 -0.0959 -1.3534 -0.8232
19368SOL     OW70081   0.624   4.698   0.985  0.4308 -0.0524  0.9600
19368SOL    HW170082   0.612   4.675   1.077  0.6018 -0.3015  0.9213
19368SOL    HW270083   0.605   4.792   0.981 -1.2938 -0.3634  0.9509
19369SOL     OW70084   2.263   0.572   8.301 -0.5035  0.2342  0.0254
19369SOL    HW170085   2.238   0.536   8.216  1.0420  0.1722 -0.4412
19369SOL    HW270086   2.218   0.656   8.306  1.4250  1.5079 -2.0934
19370SOL     OW70087   3.783   5.823   8.975 -0.1438 -0.6207 -0.1671
19370SOL    HW170088   3.709   5.783   8.930  0.3190 -1.0886 -0.5363
19370SOL    HW270089   3.831   5.748   9.012 -0.2060 -0.2792  0.6193
19371SOL     OW70090   7.768   8.916   5.508 -0.2846  0.4722 -0.7699
19371SOL    HW170091   7.694   8.954   5.461 -1.1659 -1.0430 -0.6734
19371SOL    HW270092   7.735   8.832   5.541  0.5206  1.1390  1.9528
19372SOL     OW70093   9.563   5.433   2.423 -0.2556 -0.0396 -0.2244
19372SOL    HW170094   9.615   5.375   2.480 -0.7364 -0.6040 -0.3428
19372SOL    HW270095   9.615   5.442   2.344 -1.4017 -2.6984 -1.4068
19373SOL     OW70096   5.144   1.626  10.050  0.0157 -0.7923 -0.2117
19373SOL    HW170097   5.105   1.549  10.090  0.4838 -1.8113 -1.6570
19373SOL    HW270098   5.134   1.613   9.956  0.0219  0.9629 -0.4958
19374SOL     OW70099   6.929   3.096   6.247 -0.4038  0.0228 -1.2990
19374SOL    HW170100   7.007   3.106   6.302 -0.9228  0.5931 -0.6461
19374SOL    HW270101   6.962   3.056   6.167  0.1374 -2.2106 -0.0311
19375SOL     OW70102   5.468   7.350   6.100  0.0677 -0.5094 -0.5566
19375SOL    HW170103   5.525   7.358   6.023  1.8432 -2.0144  0.5300
19375SOL    HW270104   5.527   7.330   6.172 -1.7338 -0.9297  0.8780
19376SOL     OW70105   1.600   3.235   5.251  0.7068 -0.3786 -0.2345
19376SOL    HW170106   1.639   3.152   5.222  1.4550 -0.3332  0.6063
19376SOL    HW270107   1.606   3.292   5.175  1.4664 -0.6657 -0.3973
19377SOL     OW70108   7.183   7.174   5.396 -0.5101 -0.2537 -0.2208
19377SOL    HW170109   7.195   7.265   5.371 -0.5109 -0.2310 -0.1400
19377SOL    HW270110   7.256   7.128   5.355 -0.0047 -0.0812  0.4631
19378SOL     OW70111   3.395   7.098   0.374  0.0673 -0.0182  0.2607
19378SOL    HW170112   3.359   7.113   0.461  0.1442 -0.7880  0.4356
19378SOL    HW270113   3.366   7.010   0.351  1.6018 -0.5696  0.3053
19379SOL     OW70114   5.536   8.415   2.966 -0.5561 -0.5004  0.3426
19379SOL    HW170115   5.455   8.451   2.929 -1.0702  0.1467  1.9977
19379SOL    HW270116   5.507   8.360   3.038  0.4133 -1.8625 -0.2567
19380SOL     OW70117   9.646   8.148   1.755  0.3800 -0.1504  0.1373
19380SOL    HW170118   9.679   8.237   1.762  1.9786 -0.8289  2.4911
19380SOL    HW270119   9.721   8.092   1.773 -0.7098 -1.9926 -0.6305
19381SOL     OW70120   8.689   3.427   9.028  0.2922  0.2966 -0.8280
19381SOL    HW170121   8.698   3.354   8.967 -2.4062 -0.9936  0.1655
19381SOL    HW270122   8.709   3.390   9.114 -0.7243  0.7778 -0.3593
19382SOL     OW70123   0.071   6.194   4.443 -0.0682 -0.2066  0.2499
19382SOL    HW170124   0.098   6.199   4.351 -0.0949 -0.5962  0.2180
19382SOL    HW270125   0.020   6.273   4.458 -3.8609 -2.1392 -1.2997
19383SOL     OW70126  10.359   4.534   1.426  0.1447  0.5949 -0.1566
19383SOL    HW170127  10.385   4.461   1.369  1.7706  0.9247  0.1206
19383SOL    HW270128  10.296   4.495   1.487 -0.0010 -0.2688 -0.8395
19384SOL     OW70129   8.555   6.113   7.739  0.2207  0.0864  0.0205
19384SOL    HW170130   8.628   6.159   7.780  1.7391  0.5453 -2.9559
19384SOL    HW270131   8.567   6.021   7.764  1.3063  0.2854  0.2749
19385SOL     OW70132   8.884   7.827   7.888 -0.0180 -0.2564  0.1023
19385SOL    HW170133   8.929   7.911   7.877 -0.8004  0.0319 -1.3310
19385SOL    HW270134   8.796   7.851   7.919  0.0453 -0.6061  0.5469
19386SOL     OW70135   6.387   2.130   6.998 -0.0609 -0.3731  0.3039
19386SOL    HW170136   6.388   2.225   7.012 -2.2990 -0.3124  0.4230
19386SOL    HW270137   6.378   2.120   6.903 -1.1091 -0.4028  0.3912
19387SOL     OW70138   2.753   0.298  10.051 -0.1979 -0.3333  0.2577
19387SOL    HW170139   2.700   0.336   9.982 -0.6166  0.7683  1.1584
19387SOL    HW270140   2.691   0.252  10.107 -0.1218  0.3145  0.8909
19388SOL     OW70141   9.807   3.224   7.202 -0.2321  0.6493 -0.8119
19388SOL    HW170142   9.813   3.181   7.117 -2.4238 -0.8379 -0.2830
19388SOL    HW270143   9.728   3.277   7.197 -2.3451 -2.0104  1.2660
19389SOL     OW70144   4.806   0.928   8.943  0.0385 -0.6429 -0.2112
19389SOL    HW170145   4.876   0.990   8.924 -1.1948  0.9808  0.2852
19389SOL    HW270146   4.850   0.843   8.951  1.9026  0.2894 -0.0908
19390SOL     OW70147   5.886   4.095   8.097 -0.0625  0.3413  0.3225
19390SOL    HW170148   5.853   4.144   8.022  2.4106  0.1199 -1.0258
19390SOL    HW270149   5.931   4.160   8.151 -0.4094  0.2224  0.7655
19391SOL     OW70150   0.629   0.122   7.249 -0.1184 -0.3061 -0.0660
19391SOL    HW170151   0.633   0.031   7.221  2.3858 -0.3849  0.3497
19391SOL    HW270152   0.607   0.171   7.169  0.4521 -1.1154 -0.7339
19392SOL     OW70153   4.668   0.901   0.935 -0.5939  0.4835  0.4248
19392SOL    HW170154   4.693   0.994   0.934  2.1501 -0.1521 -0.7038
19392SOL    HW270155   4.697   0.868   0.850 -0.8523 -1.5606  1.0822
19393SOL     OW70156   5.522  10.031   4.347  0.5082 -0.5396  0.1284
19393SOL    HW170157   5.532  10.105   4.286  0.3004  0.0501  0.7950
19393SOL    HW270158   5.433  10.001   4.332 -0.0972  0.6020  1.2025
19394SOL     OW70159   5.794   0.502   5.133 -0.0485  0.2255  0.3225
19394SOL    HW170160   5.845   0.443   5.078  1.4526  0.1246  1.7163
19394SOL    HW270161   5.845   0.583   5.133  0.5473 -0.0915  2.2849
19395SOL     OW70162   7.701   2.779   7.608 -0.4341 -0.4512 -0.0637
19395SOL    HW170163   7.667   2.696   7.641  0.0815 -0.7406 -0.2544
19395SOL    HW270164   7.697   2.771   7.513 -2.1542  0.4793 -0.1313
19396SOL     OW70165   1.018   0.474   4.280  0.5162 -0.0012  0.2777
19396SOL    HW170166   1.012   0.387   4.241 -2.9648 -0.2437  0.9787
19396SOL    HW270167   0.974   0.466   4.365  0.4153  2.3568  0.5398
19397SOL     OW70168   2.339   2.592   5.189  0.1869 -0.7304 -0.1610
19397SOL    HW170169   2.303   2.572   5.276  0.6950  0.1497  0.2670
19397SOL    HW270170   2.354   2.506   5.150  2.1817 -1.2760  1.5652
19398SOL     OW70171   1.127   3.202   9.257 -0.3977 -0.2613 -0.5090
19398SOL    HW170172   1.204   3.146   9.269  0.7937  1.0518 -1.7194
19398SOL    HW270173   1.157   3.290   9.279 -2.0044  0.0863  0.4962
19399SOL     OW70174   8.080   0.440   0.195  0.3445  0.1033 -0.0862
19399SOL    HW170175   8.076   0.475   0.106 -0.2983  0.1896 -0.0293
19399SOL    HW270176   8.116   0.512   0.248 -1.3492  0.8644  0.1024
19400SOL     OW70177   3.894   1.211   7.994 -0.4246  0.9127  0.4009
19400SOL    HW170178   3.881   1.141   8.059  0.2157  0.8092  0.4248
19400SOL    HW270179   3.844   1.285   8.028 -0.8717  0.5551  0.5243
19401SOL     OW70180   5.633   8.535   7.409  0.4754 -0.1239 -0.3008
19401SOL    HW170181   5.598   8.615   7.447  0.9636  0.1584 -0.4384
19401SOL    HW270182   5.604   8.466   7.469  2.6981  0.4836  1.6027
19402SOL     OW70183   0.233   2.945  10.077  0.1289  0.3947  0.8772
19402SOL    HW170184   0.278   3.015  10.030 -0.7677  0.1226 -0.4434
19402SOL    HW270185   0.301   2.907  10.134  1.1466  1.0108  0.1088
19403SOL     OW70186   9.663   4.473   2.403  0.3282  0.7611  0.6787
19403SOL    HW170187   9.629   4.402   2.349 -1.1642  0.5615  1.8327
19403SOL    HW270188   9.712   4.430   2.472 -0.3958  0.8346  1.2536
19404SOL     OW70189   8.136   4.177   5.024  0.4314  0.0775 -0.6256
19404SOL    HW170190   8.219   4.215   4.995 -2.4356  4.8804 -3.9442
19404SOL    HW270191   8.117   4.222   5.106  1.2168 -1.4059  0.4082
19405SOL     OW70192   6.536   4.705   5.790  0.3495  0.0728 -0.5050
19405SOL    HW170193   6.613   4.759   5.769 -0.4214  2.4890  2.1463
19405SOL    HW270194   6.572   4.625   5.828  1.6322  1.1890  0.7443
19406SOL     OW70195   8.644   0.635   3.043 -0.2267 -0.9361  0.9016
19406SOL    HW170196   8.567   0.584   3.018  0.9054 -2.5747  0.6073
19406SOL    HW270197   8.718   0.583   3.012  1.0075  0.6409  1.1020
19407SOL     OW70198   2.686   8.227   7.147 -0.3464 -0.1272 -0.4312
19407SOL    HW170199   2.780   8.236   7.132 -0.4331  1.0562 -0.4289
19407SOL    HW270200   2.646   8.244   7.062 -0.5533 -1.0710 -0.5333
19408SOL     OW70201   1.294   5.151   9.033 -0.3972  0.2280 -0.2617
19408SOL    HW170202   1.370   5.202   9.005  0.5966 -1.3321 -0.5714
19408SOL    HW270203   1.241   5.212   9.084 -0.3675  2.1327 -2.3556
19409SOL     OW70204   9.910   7.986   4.457  0.5113  0.0077  0.2396
19409SOL    HW170205   9.850   8.052   4.492 -0.4324 -1.3109  1.2286
19409SOL    HW270206   9.951   7.948   4.535  1.3850 -0.2523 -0.3344
19410SOL     OW70207   2.291   7.155   9.074  0.2360  0.0009  0.6889
19410SOL    HW170208   2.208   7.201   9.065  0.2000  0.8980  4.1008
19410SOL    HW270209   2.357   7.225   9.072  1.0214 -0.7135 -2.1701
19411SOL     OW70210   6.274   4.023   6.095 -0.0841  0.0440 -0.1470
19411SOL    HW170211   6.235   3.957   6.038  0.6041  1.5018 -2.4408
19411SOL    HW270212   6.200   4.067   6.136 -0.6595 -0.3102 -0.7948
19412SOL     OW70213   4.335   0.202   1.128  0.4169  0.3045  0.4455
19412SOL    HW170214   4.349   0.152   1.048 -1.1600  0.4424  0.0583
19412SOL    HW270215   4.364   0.291   1.106 -1.4645  0.7318 -0.5447
19413SOL     OW70216  10.190   9.730   0.685  0.6204 -0.0723  0.8357
19413SOL    HW170217  10.218   9.640   0.704  0.0476 -0.0379  1.9678
19413SOL    HW270218  10.101   9.735   0.722 -1.2148 -0.3420 -3.0774
19414SOL     OW70219   4.532   9.626   2.377  0.2407 -0.2811  0.3269
19414SOL    HW170220   4.603   9.582   2.329  0.6161  0.6662 -0.0370
19414SOL    HW270221   4.511   9.702   2.322 -1.0414 -0.5266  0.4581
19415SOL     OW70222   2.843   1.208   5.192 -0.0527  0.4854 -0.0518
19415SOL    HW170223   2.815   1.131   5.242 -1.6978  1.1498  0.1411
19415SOL    HW270224   2.936   1.196   5.178 -0.5213 -2.3586 -1.4577
19416SOL     OW70225   6.893   7.749  10.318 -0.3828 -0.1167 -0.5833
19416SOL    HW170226   6.949   7.826  10.317 -0.5828  0.0800 -2.6795
19416SOL    HW270227   6.951   7.677  10.294 -0.3919 -0.4620  0.4146
19417SOL     OW70228   8.740   0.213   6.722  0.0163 -0.0458 -0.2431
19417SOL    HW170229   8.800   0.248   6.788  0.5734 -1.0357 -0.2089
19417SOL    HW270230   8.794   0.207   6.643  0.0668 -1.2665 -0.1249
19418SOL     OW70231   0.433   5.265   3.035  0.1199 -0.6461 -0.6112
19418SOL    HW170232   0.507   5.292   3.090 -1.7386 -0.5501  2.0515
19418SOL    HW270233   0.472   5.213   2.965  2.6883 -0.6564  0.7145
19419SOL     OW70234   3.440   7.765   9.787  0.4844 -0.0731  0.0777
19419SOL    HW170235   3.516   7.822   9.789  1.4444 -1.2916 -0.5835
19419SOL    HW270236   3.367   7.823   9.765  1.1764  1.1331  0.8480
19420SOL     OW70237   9.212   0.238   1.687 -0.5882  0.6260  0.1122
19420SOL    HW170238   9.194   0.144   1.678  1.7366  0.0993  0.3138
19420SOL    HW270239   9.229   0.250   1.780  1.1362  0.8068 -0.2036
19421SOL     OW70240   7.492   2.343  10.244 -0.1205  0.8069  0.6652
19421SOL    HW170241   7.587   2.348  10.238 -0.2162  1.7134 -0.4829
19421SOL    HW270242   7.469   2.407  10.311  0.0324  1.1947  0.3512
19422SOL     OW70243   9.977   9.541   8.254  0.0568 -0.1910 -0.7404
19422SOL    HW170244   9.905   9.491   8.214  0.9664 -1.8475 -0.3929
19422SOL    HW270245   9.938   9.580   8.332  0.0677 -3.2037  0.9222
19423SOL     OW70246   4.000   4.919   2.023  0.0148  0.6310 -0.1641
19423SOL    HW170247   3.921   4.965   2.050  0.4565  0.6924  1.0905
19423SOL    HW270248   4.046   4.901   2.104  1.4609  0.9001 -0.8900
19424SOL     OW70249   4.591   9.812   8.788  0.0308  0.2670 -0.3775
19424SOL    HW170250   4.566   9.904   8.798 -0.2791  0.0572  0.9773
19424SOL    HW270251   4.537   9.781   8.715 -0.5751  0.9131 -0.2206
19425SOL     OW70252   9.814   0.109   3.286  0.0451  0.5254 -0.1408
19425SOL    HW170253   9.787   0.142   3.372  1.2095 -0.7257  0.7531
19425SOL    HW270254   9.909   0.098   3.294  0.3452  1.4498 -1.9770
19426SOL     OW70255   5.890   5.701   9.315  0.1528  0.0456  0.0155
19426SOL    HW170256   5.871   5.607   9.313 -1.2448  0.3268 -0.5184
19426SOL    HW270257   5.971   5.707   9.367  0.3090 -1.4479 -0.0014
19427SOL     OW70258   7.683   2.450   9.468 -0.3707  0.2410 -0.4500
19427SOL    HW170259   7.686   2.393   9.391  2.1006 -1.5186  0.8130
19427SOL    HW270260   7.688   2.390   9.542 -1.0747  1.9689  1.0708
19428SOL     OW70261   9.521   4.865   1.799  0.3742 -0.5921  0.0126
19428SOL    HW170262   9.570   4.945   1.783  0.4715 -0.6612 -0.0392
19428SOL    HW270263   9.570   4.797   1.752 -0.6369 -0.4001 -1.3667
19429SOL     OW70264   7.923   7.750   2.638  0.2879  0.0502 -0.0960
19429SOL    HW170265   7.996   7.772   2.580  1.6259  0.6700  1.7231
19429SOL    HW270266   7.848   7.797   2.601  1.2265  0.9172 -0.9629
19430SOL     OW70267   9.840   6.089   5.778  0.3989  0.2406  0.1425
19430SOL    HW170268   9.753   6.122   5.800  0.4465  1.2228 -1.0317
19430SOL    HW270269   9.875   6.055   5.860 -0.6792  0.7990  0.8478
19431SOL     OW70270   3.297   2.898   8.575  0.2610 -0.5373  0.2869
19431SOL    HW170271   3.277   2.992   8.584  2.7506 -0.0905  2.0617
19431SOL    HW270272   3.293   2.883   8.480 -0.6056  1.2459 -0.0142
19432SOL     OW70273   7.916   2.505   0.586  0.3775  0.0839 -0.5963
19432SOL    HW170274   7.967   2.580   0.555 -0.0308 -0.0367 -1.6156
19432SOL    HW270275   7.850   2.543   0.643  2.1889  0.1471  1.5790
19433SOL     OW70276  10.341   2.835   8.651 -0.1559  0.2393  0.4486
19433SOL    HW170277  10.301   2.917   8.680  0.5612  0.2705  1.4043
19433SOL    HW270278  10.398   2.809   8.724 -1.3772 -1.8148  0.7743
19434SOL     OW70279   6.193   8.923   6.673  0.5236 -0.0853  1.0664
19434SOL    HW170280   6.277   8.932   6.629  1.8037 -2.3342  2.8402
19434SOL    HW270281   6.215   8.911   6.765 -1.8059  0.1612  1.7238
19435SOL     OW70282   7.799   8.450   5.013 -0.4268  0.2084 -0.7707
19435SOL    HW170283   7.810   8.404   4.930 -0.1016 -0.7460 -0.2154
19435SOL    HW270284   7.875   8.424   5.065 -0.7729  0.5609 -0.0696
19436SOL     OW70285   4.182   8.396   5.555  0.7052 -0.1957 -0.8764
19436SOL    HW170286   4.152   8.306   5.569  0.3227  0.1966  1.2417
19436SOL    HW270287   4.113   8.436   5.502 -0.7912 -0.3263  0.8540
19437SOL     OW70288   6.199   8.110   3.408  0.3635  0.2678 -0.1743
19437SOL    HW170289   6.210   8.029   3.357 -2.3868 -0.2490 -0.0983
19437SOL    HW270290   6.169   8.175   3.344 -0.9432  0.2107  0.3421
19438SOL     OW70291   3.983   5.978   6.514 -0.4053 -0.3887  0.4100
19438SOL    HW170292   3.894   6.008   6.498 -0.5230 -0.0098  1.6307
19438SOL    HW270293   4.001   5.915   6.445 -1.7940 -0.8347  0.4394
19439SOL     OW70294   3.893   1.122   7.408 -0.3475  0.2710  0.0812
19439SOL    HW170295   3.885   1.185   7.336  1.2883  0.6428  0.1857
19439SOL    HW270296   3.883   1.175   7.487  3.2263  0.9072  0.2476
19440SOL     OW70297   1.298   8.240   9.687  0.4953 -0.1942 -0.1647
19440SOL    HW170298   1.370   8.203   9.738 -0.3715  0.1031  1.3260
19440SOL    HW270299   1.318   8.333   9.681  0.3625 -0.1511  0.0471
19441SOL     OW70300   0.379   0.143   3.443  0.2497  0.0291  0.7711
19441SOL    HW170301   0.449   0.207   3.431  0.0131  0.1763  0.1423
19441SOL    HW270302   0.398   0.102   3.527  1.6470 -0.5983  0.1893
19442SOL     OW70303   3.525   8.134   0.210  0.4219 -0.3334 -0.4380
19442SOL    HW170304   3.597   8.132   0.273 -0.3902  0.1855  0.5258
19442SOL    HW270305   3.538   8.215   0.161  1.5336 -1.1434 -1.5464
19443SOL     OW70306  10.247   0.960   8.183 -0.2423 -0.1462 -1.2365
19443SOL    HW170307  10.278   1.002   8.263 -1.0201 -1.7731 -0.0289
19443SOL    HW270308  10.327   0.936   8.136  0.2146  0.8089 -0.9671
19444SOL     OW70309   4.321   2.351   7.517  0.4961  0.2292 -0.5218
19444SOL    HW170310   4.252   2.308   7.467  0.9781 -1.2346  0.0265
19444SOL    HW270311   4.374   2.395   7.450 -0.9163  1.3518 -0.9466
19445SOL     OW70312   0.328   6.046   8.239 -0.5607  0.3117 -0.1137
19445SOL    HW170313   0.414   6.088   8.243 -0.8956  0.9568  0.6553
19445SOL    HW270314   0.313   6.032   8.146 -0.5117  2.0948 -0.4323
19446SOL     OW70315   0.886   1.863   4.255 -0.1434  0.6347 -0.4222
19446SOL    HW170316   0.915   1.870   4.346  1.8201 -0.9647 -0.8706
19446SOL    HW270317   0.923   1.940   4.213  1.7597 -0.3034 -0.5302
19447SOL     OW70318   3.820   6.891   4.270 -0.9108 -0.4381 -0.4299
19447SOL    HW170319   3.897   6.844   4.239 -0.4693 -0.3284  0.4847
19447SOL    HW270320   3.796   6.948   4.196  1.4629  1.4788  0.1532
19448SOL     OW70321   3.408   6.407   8.072 -0.0654 -0.2696  0.1926
19448SOL    HW170322   3.401   6.503   8.075  3.2334  0.0848 -0.0123
19448SOL    HW270323   3.407   6.380   8.164  1.5759  0.2684  0.3936
19449SOL     OW70324   2.175   8.532   3.393  0.4342 -0.0329  0.0490
19449SOL    HW170325   2.166   8.625   3.372  2.7912  1.3776  4.2197
19449SOL    HW270326   2.217   8.494   3.315 -0.7166  2.2507 -1.8263
19450SOL     OW70327   4.235   2.656  10.062  0.4765  0.1033 -0.6241
19450SOL    HW170328   4.263   2.589  10.124 -1.3394 -1.5261 -1.4570
19450SOL    HW270329   4.288   2.732  10.084  1.1048 -0.9225  1.7892
19451SOL     OW70330   4.694   1.052   2.400  0.0071  0.1117 -0.2473
19451SOL    HW170331   4.734   1.139   2.411 -0.8242  0.2958  1.7270
19451SOL    HW270332   4.668   1.026   2.488 -0.2781 -1.9281 -0.8742
19452SOL     OW70333   8.259   0.263   5.267 -0.2266  0.6193 -0.4838
19452SOL    HW170334   8.194   0.249   5.336  0.4039  0.7010  0.1416
19452SOL    HW270335   8.250   0.187   5.210  0.5384 -0.4237  0.7472
19453SOL     OW70336   6.326   8.058   7.640 -0.2653 -0.3347 -0.0006
19453SOL    HW170337   6.408   8.009   7.649 -0.7167 -1.0927  0.1119
19453SOL    HW270338   6.348   8.147   7.667  0.9094 -0.1174 -1.5090
19454SOL     OW70339   2.842   1.415   8.089  0.0579 -0.6499 -0.0471
19454SOL    HW170340   2.823   1.509   8.095  1.8635 -0.2295 -0.3249
19454SOL    HW270341   2.777   1.382   8.026  1.1963  1.0059 -2.2404
19455SOL     OW70342   6.469   3.637   2.514  0.0867  0.5470 -0.6042
19455SOL    HW170343   6.385   3.661   2.553 -0.7242 -0.3404 -1.7719
19455SOL    HW270344   6.457   3.548   2.482  1.4968  0.3824 -0.7508
19456SOL     OW70345   8.028   1.737   5.010 -0.1400  0.5080  0.0860
19456SOL    HW170346   8.120   1.710   5.006  0.5444  2.3054  1.9352
19456SOL    HW270347   8.018   1.798   4.937  0.0862  0.2054 -0.2017
19457SOL     OW70348   1.580   6.407   4.543  0.6298  0.1584 -0.3816
19457SOL    HW170349   1.566   6.416   4.449  0.3349  0.4848 -0.3086
19457SOL    HW270350   1.502   6.445   4.583  0.6975 -0.0924 -0.0060
19458SOL     OW70351   6.632   3.408   6.518 -0.1415  0.2486 -0.2947
19458SOL    HW170352   6.584   3.469   6.463  0.5626  0.7852 -0.3211
19458SOL    HW270353   6.609   3.434   6.608  0.2120  0.6005 -0.3044
19459SOL     OW70354   5.005   0.244   0.103  0.2509  0.3290  0.0889
19459SOL    HW170355   5.043   0.282   0.183 -1.5823  3.5795 -0.4235
19459SOL    HW270356   4.991   0.319   0.045 -5.2519 -0.7321 -0.4391
19460SOL     OW70357   8.564   5.134   2.104  0.5281  0.4954  0.0547
19460SOL    HW170358   8.546   5.061   2.163 -0.2499 -0.2998 -1.1159
19460SOL    HW270359   8.659   5.132   2.092  0.4278 -0.9694 -0.7254
19461SOL     OW70360   8.311   7.701   0.113  0.0229 -0.1207 -0.3623
19461SOL    HW170361   8.237   7.687   0.173  0.7088 -1.8109  0.1675
19461SOL    HW270362   8.331   7.794   0.121  0.1931 -0.3013  2.1860
19462SOL     OW70363   4.541   1.400   6.706 -0.3355  0.2175 -0.7733
19462SOL    HW170364   4.457   1.356   6.722  0.1827 -0.4562  0.1474
19462SOL    HW270365   4.527   1.489   6.739 -0.1330 -0.4032  1.0991
19463SOL     OW70366   4.829   4.482   0.997  0.1842  0.3201  0.0923
19463SOL    HW170367   4.759   4.464   0.934 -2.2139  0.6159  2.4854
19463SOL    HW270368   4.902   4.427   0.969 -2.2645 -2.8861 -0.5322
19464SOL     OW70369   7.364   1.368   6.518 -0.5768 -0.0251 -0.2063
19464SOL    HW170370   7.306   1.418   6.461 -0.2063 -0.7143 -1.2197
19464SOL    HW270371   7.399   1.299   6.462 -0.5891 -1.0405  0.9756
19465SOL     OW70372   6.670   6.504   9.525 -0.1544  0.1409  0.2333
19465SOL    HW170373   6.686   6.595   9.502 -0.1587  0.1825  0.3955
19465SOL    HW270374   6.757   6.466   9.536 -0.1644  0.4266  1.3462
19466SOL     OW70375   8.903   5.167   7.475  0.6438  0.0322  0.4066
19466SOL    HW170376   8.893   5.230   7.404 -2.4130 -0.6597  0.0773
19466SOL    HW270377   8.874   5.084   7.437 -0.6191 -0.4421  2.2681
19467SOL     OW70378   1.888   6.862   4.714  0.1339  0.1335  0.2303
19467SOL    HW170379   1.980   6.890   4.716 -0.0610  1.2297 -2.2724
19467SOL    HW270380   1.839   6.942   4.697 -1.2022 -0.6118  0.4280
19468SOL     OW70381   3.664   5.407   2.726 -0.1058 -0.7978  0.7412
19468SOL    HW170382   3.717   5.395   2.648 -0.4158  1.5719  0.0634
19468SOL    HW270383   3.593   5.343   2.718  0.5005 -1.3563 -0.3233
19469SOL     OW70384   0.187   1.711   1.135 -0.1789  0.1594  0.4728
19469SOL    HW170385   0.270   1.712   1.087  0.5276 -1.0210  1.6139
19469SOL    HW270386   0.143   1.792   1.108  0.1902 -0.3958 -2.0890
19470SOL     OW70387   3.298   4.189   7.305 -0.4327 -0.4539  0.4543
19470SOL    HW170388   3.300   4.095   7.287 -1.1787 -0.4555  0.3718
19470SOL    HW270389   3.378   4.205   7.355  0.1624 -0.9706 -0.2942
19471SOL     OW70390   3.342   4.365   9.593 -0.1431 -0.1112 -0.0354
19471SOL    HW170391   3.371   4.310   9.521 -1.9748 -1.4473  0.1934
19471SOL    HW270392   3.422   4.383   9.643  1.1171  0.6569 -2.2106
19472SOL     OW70393   2.157   5.010   4.617  0.1731 -0.2033  0.1272
19472SOL    HW170394   2.099   5.066   4.669 -2.3239 -2.3603 -0.1430
19472SOL    HW270395   2.152   4.924   4.658  1.4874 -0.9855 -1.2282
19473SOL     OW70396   0.620   7.672   3.974 -0.0862  0.1504  0.7064
19473SOL    HW170397   0.657   7.758   3.953 -0.7203  0.6479  1.5452
19473SOL    HW270398   0.690   7.610   3.952  0.6479  0.9378  0.7590
19474SOL     OW70399   1.410   5.489   8.034  0.0732  0.0216 -0.4461
19474SOL    HW170400   1.459   5.571   8.031 -2.4421  1.7580  1.0965
19474SOL    HW270401   1.476   5.421   8.041  2.3267  1.7623 -2.9898
19475SOL     OW70402   5.627   9.978   0.240 -0.0519  0.4183 -0.0338
19475SOL    HW170403   5.630   9.899   0.187 -0.9467  0.3159  0.0660
19475SOL    HW270404   5.536   9.986   0.268  0.0634  1.3878  0.1019
19476SOL     OW70405   2.204   9.691   3.441  0.1762 -0.0159 -0.0512
19476SOL    HW170406   2.271   9.675   3.375  2.6363  1.5712  1.8937
19476SOL    HW270407   2.199   9.610   3.491  1.2081  0.0816  0.2240
19477SOL     OW70408   8.202   8.218   4.266  1.0748  0.1427  0.4578
19477SOL    HW170409   8.252   8.244   4.344  0.0107  1.1000  0.8408
19477SOL    HW270410   8.135   8.285   4.257  0.0987 -0.9047 -0.2876
19478SOL     OW70411   0.244   7.573   2.776 -0.4484 -0.2627  0.0064
19478SOL    HW170412   0.170   7.519   2.749 -0.3695 -0.6253  0.5082
19478SOL    HW270413   0.295   7.517   2.834 -0.3118  0.3183  0.4491
19479SOL     OW70414   0.103  10.126   3.729  0.4198  0.4000 -0.2430
19479SOL    HW170415   0.023  10.178   3.737  0.7729  0.8147  0.8462
19479SOL    HW270416   0.109  10.079   3.812  0.9606 -0.1373 -0.5800
19480SOL     OW70417   6.192   1.547   4.580  0.4816  0.0764  1.1824
19480SOL    HW170418   6.285   1.532   4.597  0.6150  0.8371  1.1313
19480SOL    HW270419   6.151   1.540   4.667  0.7614  0.9835  1.3988
19481SOL     OW70420   3.929   8.958   0.814  0.0555 -0.1798 -0.4641
19481SOL    HW170421   3.857   9.021   0.816  0.0502 -0.2060  1.0757
19481SOL    HW270422   3.892   8.878   0.851  0.7775 -0.3000  0.0105
19482SOL     OW70423   8.035   0.969   1.937  0.2894 -0.4512  0.2655
19482SOL    HW170424   8.056   0.878   1.957 -1.0068 -0.5483  1.2936
19482SOL    HW270425   7.942   0.969   1.917  0.4330  0.5411 -0.4692
19483SOL     OW70426   9.881   5.462  10.335 -0.7352 -0.8429  0.4763
19483SOL    HW170427   9.832   5.543  10.321 -0.9311 -0.9733  0.4125
19483SOL    HW270428   9.951   5.465  10.269  0.2338  0.0379  1.4936
19484SOL     OW70429   7.642   2.323   3.597 -0.4124  0.2137 -0.2865
19484SOL    HW170430   7.613   2.233   3.612  1.9116 -0.4090  1.0819
19484SOL    HW270431   7.615   2.370   3.676  1.7670 -0.2989  0.8531
19485SOL     OW70432   8.706   2.036   5.529  0.6445  0.2215 -0.0855
19485SOL    HW170433   8.661   2.119   5.512  1.8694  0.3289 -3.6055
19485SOL    HW270434   8.782   2.061   5.581  0.7958  1.2664 -0.7802
19486SOL     OW70435   7.415   9.477   4.262  0.0227 -0.3052 -0.6396
19486SOL    HW170436   7.385   9.562   4.229 -1.6922  0.2475  2.0495
19486SOL    HW270437   7.456   9.497   4.346 -0.2277 -2.1198 -0.0382
19487SOL     OW70438   3.932   0.075   5.514  0.2095 -0.1455 -0.1989
19487SOL    HW170439   3.856   0.134   5.522  0.4380  0.0938  0.1910
19487SOL    HW270440   3.907   0.014   5.444  0.3818  1.0464 -1.3331
19488SOL     OW70441   7.649   9.940   4.642  0.6589 -0.3618 -0.2272
19488SOL    HW170442   7.659   9.955   4.736  3.2253  0.2493 -0.5164
19488SOL    HW270443   7.637   9.846   4.634  1.0930 -0.5116  0.6843
19489SOL     OW70444   3.790   8.762   1.016  0.5115  0.1620 -0.3442
19489SOL    HW170445   3.730   8.689   1.033 -0.2743  0.6587 -0.9173
19489SOL    HW270446   3.771   8.789   0.927  0.6708  1.1812 -0.0839
19490SOL     OW70447   8.141   6.388   5.780  0.4194 -0.5264  0.6464
19490SOL    HW170448   8.105   6.351   5.861  1.0624 -2.1553  0.2293
19490SOL    HW270449   8.116   6.325   5.712 -0.2839  0.9085 -0.4782
19491SOL     OW70450   0.531   0.828   6.026 -0.2189  0.4346 -0.5496
19491SOL    HW170451   0.464   0.845   6.092  1.2059  0.2880  1.0226
19491SOL    HW270452   0.605   0.882   6.054  0.5037  0.2050 -1.9357
19492SOL     OW70453   5.051   8.230   4.107  0.8295 -0.2990 -0.2280
19492SOL    HW170454   4.995   8.264   4.037  1.9127 -0.6624 -1.3085
19492SOL    HW270455   4.999   8.160   4.147  0.5908 -0.8152 -1.3889
19493SOL     OW70456   2.269   1.198   1.596 -0.3750 -0.4696 -0.2792
19493SOL    HW170457   2.277   1.231   1.507 -1.9910  1.2538  0.1440
19493SOL    HW270458   2.329   1.253   1.647  1.0441 -1.8764 -0.3390
19494SOL     OW70459   8.464   0.350   6.921  0.0566 -0.5396  0.0541
19494SOL    HW170460   8.473   0.386   7.010  1.4731 -1.3673  0.2877
19494SOL    HW270461   8.528   0.400   6.869 -0.6225 -0.1987 -0.4642
19495SOL     OW70462   9.856   5.630   1.612  0.0093 -0.2223 -0.1839
19495SOL    HW170463   9.949   5.615   1.630  0.6667  0.1661 -2.7554
19495SOL    HW270464   9.819   5.542   1.602  0.5938 -0.3783 -1.1300
19496SOL     OW70465   7.971   3.174   9.192 -0.4759  0.2658  0.5110
19496SOL    HW170466   7.985   3.266   9.169  0.5986  0.2042  0.8413
19496SOL    HW270467   8.051   3.130   9.163 -1.1810 -0.6591 -0.0868
19497SOL     OW70468   3.136   6.673   6.699  0.1899  0.1124 -0.2809
19497SOL    HW170469   3.124   6.765   6.723  1.0714  0.6768 -1.8740
19497SOL    HW270470   3.151   6.629   6.782  1.3231  1.6710  0.3945
19498SOL     OW70471   9.935   2.478   9.047 -0.2203 -0.9676  0.0679
19498SOL    HW170472  10.005   2.541   9.066  0.7000 -2.2088  0.9028
19498SOL    HW270473   9.955   2.448   8.958 -0.7528 -0.0145 -0.3993
19499SOL     OW70474   9.581   2.544   0.972  0.1690 -0.0482  0.4747
19499SOL    HW170475   9.506   2.484   0.975  0.9118 -1.0580 -0.2299
19499SOL    HW270476   9.640   2.511   1.039  0.5799 -0.1156  0.0879
19500SOL     OW70477  10.274   5.245   7.749 -0.0503  0.4885 -0.2583
19500SOL    HW170478  10.287   5.250   7.844 -2.0553  0.1141  0.0771
19500SOL    HW270479  10.210   5.175   7.737  0.8090 -0.0604 -1.9794
19501SOL     OW70480   5.206   5.088   1.377 -0.0155  0.3962  0.1580
19501SOL    HW170481   5.278   5.150   1.368  0.1775  0.5588  2.3452
19501SOL    HW270482   5.182   5.066   1.287  1.5855  1.6833 -0.6331
19502SOL     OW70483   4.464   1.024   0.236  0.2564  0.2029 -0.0103
19502SOL    HW170484   4.508   0.944   0.266 -2.2492 -1.3084 -0.0351
19502SOL    HW270485   4.454   1.012   0.142  1.4190  1.4235 -0.3163
19503SOL     OW70486   7.849   3.338   5.998  0.2501  0.0890  0.5394
19503SOL    HW170487   7.861   3.256   6.047 -2.1659 -0.6618  0.0566
19503SOL    HW270488   7.864   3.407   6.062  0.1986 -0.7993  1.5423
19504SOL     OW70489   8.376   9.596   5.757  0.3116  0.3988 -0.1832
19504SOL    HW170490   8.371   9.500   5.750  0.2562  0.5096 -2.0848
19504SOL    HW270491   8.469   9.615   5.766  0.1885  0.0793  3.0339
19505SOL     OW70492   6.153   5.196   5.513  0.3123  0.1306 -0.1616
19505SOL    HW170493   6.231   5.167   5.559  0.5377  1.5812  0.4286
19505SOL    HW270494   6.093   5.225   5.582 -0.3321  0.0173 -0.6595
19506SOL     OW70495   4.127   8.504   7.377 -0.3356  0.2669  0.7882
19506SOL    HW170496   4.039   8.535   7.356  0.1138  0.0678 -1.7560
19506SOL    HW270497   4.185   8.557   7.323  0.6565 -2.9804 -1.6713
19507SOL     OW70498   0.460   2.181   6.766  0.0808  0.4018  0.1113
19507SOL    HW170499   0.516   2.252   6.796  0.2262  1.1541 -1.8318
19507SOL    HW270500   0.384   2.224   6.728  0.2744 -0.4319 -1.2958
19508SOL     OW70501   2.519   7.379   6.496 -0.0469  0.4383  0.4837
19508SOL    HW170502   2.470   7.314   6.546  0.1294  0.3822  0.5861
19508SOL    HW270503   2.452   7.432   6.452 -0.1906 -0.6354 -0.6649
19509SOL     OW70504   7.280   1.182   8.627 -0.5052 -0.1463 -0.1875
19509SOL    HW170505   7.289   1.264   8.578  2.6437 -0.0483  0.3447
19509SOL    HW270506   7.318   1.115   8.569  0.4299 -0.5314  0.8244
19510SOL     OW70507   4.975   9.274   5.387 -0.0724  0.4573 -0.1963
19510SOL    HW170508   4.916   9.228   5.328 -0.4627  0.8875 -0.1470
19510SOL    HW270509   5.041   9.313   5.330 -0.2984  0.6526 -0.3241
19511SOL     OW70510   1.592   8.585   5.639  0.0340  0.1353 -0.2226
19511SOL    HW170511   1.654   8.518   5.611  1.4257  0.5463  1.6599
19511SOL    HW270512   1.586   8.645   5.565  2.9641  0.8068 -0.0385
19512SOL     OW70513   3.110   1.486   5.370 -0.6540 -0.2810 -0.5636
19512SOL    HW170514   3.109   1.410   5.429  1.7410 -0.0573 -0.1213
19512SOL    HW270515   3.196   1.482   5.329 -1.0579  1.3959 -1.6466
19513SOL     OW70516   5.295   2.806   5.739  0.5779  0.9215 -0.3120
19513SOL    HW170517   5.363   2.874   5.747  0.6948  0.6161  1.8608
19513SOL    HW270518   5.343   2.728   5.710  1.1632  0.7840  0.9353
19514SOL     OW70519   6.836   9.191  10.106  0.3461 -0.0926  0.4494
19514SOL    HW170520   6.900   9.212  10.038  0.9857 -0.2469  0.9961
19514SOL    HW270521   6.864   9.106  10.140  1.0423  0.7452  2.0641
19515SOL     OW70522   1.610   7.287   2.114 -0.0681 -1.3011  0.0499
19515SOL    HW170523   1.541   7.353   2.125  0.8649 -0.2252 -0.3944
19515SOL    HW270524   1.674   7.328   2.056  1.6513 -1.6991  1.5727
19516SOL     OW70525   7.895   3.939   9.620  0.0847  0.1209 -0.4837
19516SOL    HW170526   7.834   3.911   9.689 -0.2974 -0.9972 -1.2535
19516SOL    HW270527   7.956   3.997   9.665 -1.1408  0.7328  0.4490
19517SOL     OW70528   9.542   5.055   9.351  0.0049  0.0947  0.3311
19517SOL    HW170529   9.495   5.099   9.280  0.1680 -0.0715  0.1201
19517SOL    HW270530   9.631   5.091   9.347  0.2924 -0.6442 -0.1907
19518SOL     OW70531   9.804   1.764   5.655  0.1228 -0.0633 -0.1531
19518SOL    HW170532   9.827   1.855   5.677 -0.2229  0.2265 -0.9350
19518SOL    HW270533   9.731   1.743   5.713 -2.7883  1.7120 -2.8568
19519SOL     OW70534   4.781   9.258   9.955 -0.3983  0.6393 -1.2739
19519SOL    HW170535   4.698   9.210   9.950 -0.8285  1.2585 -0.2671
19519SOL    HW270536   4.778   9.302  10.040  1.8189 -0.8566 -0.3442
19520SOL     OW70537   1.880   0.687   1.806 -0.2785  1.4268 -0.5430
19520SOL    HW170538   1.856   0.692   1.899 -0.7573  0.6082 -0.6155
19520SOL    HW270539   1.845   0.767   1.768 -1.5644  1.0004 -0.3297
19521SOL     OW70540   1.749   7.948   5.238 -0.1105  0.1229 -0.2139
19521SOL    HW170541   1.744   7.872   5.296  1.8180 -0.5394 -0.8637
19521SOL    HW270542   1.685   7.928   5.169 -1.3559  0.2447  0.8434
19522SOL     OW70543   0.217   5.107   4.139 -0.2851  0.0864  0.3117
19522SOL    HW170544   0.219   5.172   4.068 -0.0314  1.0532  1.1735
19522SOL    HW270545   0.124   5.094   4.157 -0.3886 -1.0085 -0.9345
19523SOL     OW70546   5.638   4.176   6.916 -0.0064  0.5050 -0.4775
19523SOL    HW170547   5.697   4.208   6.984  0.5437  0.5123 -0.9526
19523SOL    HW270548   5.645   4.081   6.921 -0.0250  0.5039 -0.4742
19524SOL     OW70549   7.912   5.286   4.850  0.1498  0.1183  0.5549
19524SOL    HW170550   7.819   5.276   4.869  0.1037  0.7812  0.6945
19524SOL    HW270551   7.937   5.367   4.895  0.3731  0.9123 -0.9329
19525SOL     OW70552   8.860   2.135   3.512  0.6695 -0.5199 -0.4821
19525SOL    HW170553   8.905   2.074   3.571 -1.4268 -1.6526  0.0209
19525SOL    HW270554   8.835   2.208   3.568 -0.0742 -0.9433 -0.2462
19526SOL     OW70555  10.221   0.316   7.052  0.2829 -0.0001  0.3599
19526SOL    HW170556  10.215   0.309   6.957 -1.1589 -1.6117  0.5316
19526SOL    HW270557  10.161   0.250   7.086  1.1677  0.1549  2.4159
19527SOL     OW70558   3.931   3.498   6.593  0.3832 -0.4954  0.3487
19527SOL    HW170559   3.943   3.430   6.659  1.8253 -0.5423  0.0653
19527SOL    HW270560   3.966   3.577   6.634  2.7708 -0.8358 -0.8745
19528SOL     OW70561   2.154   3.383   3.200 -0.6744  0.2931 -0.3752
19528SOL    HW170562   2.059   3.385   3.208 -0.6988  0.4495 -0.6878
19528SOL    HW270563   2.183   3.332   3.276 -0.9873  0.5022 -0.1104
19529SOL     OW70564   6.669  10.146   3.227 -0.4237 -0.1797  0.2232
19529SOL    HW170565   6.589  10.127   3.176  0.2997  0.8255 -1.3711
19529SOL    HW270566   6.642  10.213   3.289 -1.3423 -1.4586  1.2667
19530SOL     OW70567   5.686   2.375   8.224 -0.3390  0.2057  0.1257
19530SOL    HW170568   5.628   2.416   8.158 -1.2649 -0.8635  0.2427
19530SOL    HW270569   5.765   2.354   8.175 -0.5684  0.4640 -0.3764
19531SOL     OW70570   3.945   5.438   7.465 -0.4991  0.1193 -0.0579
19531SOL    HW170571   4.009   5.405   7.402  0.3019  0.0198  0.7784
19531SOL    HW270572   3.982   5.522   7.494 -0.0602 -0.5449  1.3939
19532SOL     OW70573   1.522   5.371   0.194  0.0130 -0.0909 -0.3838
19532SOL    HW170574   1.617   5.366   0.202  0.0054  0.0756 -0.1888
19532SOL    HW270575   1.492   5.393   0.282 -0.2184 -0.3133 -0.4049
19533SOL     OW70576   6.555   0.542   2.202 -0.2822  0.5741  0.2825
19533SOL    HW170577   6.644   0.574   2.192 -0.2321  0.6099  0.8528
19533SOL    HW270578   6.501   0.621   2.210 -0.2627  0.5353  0.8024
19534SOL     OW70579   1.021   1.963   6.090 -0.6592 -0.0568 -0.0231
19534SOL    HW170580   0.931   1.945   6.118 -1.0013 -0.3455 -1.2685
19534SOL    HW270581   1.060   1.877   6.080 -0.6625  0.0250 -0.7863
19535SOL     OW70582   5.760   4.831   1.088 -0.4355 -0.3903 -0.0524
19535SOL    HW170583   5.798   4.808   1.173 -0.3664 -1.2345 -0.3099
19535SOL    HW270584   5.831   4.814   1.025 -0.2241  0.9639 -0.2103
19536SOL     OW70585   5.767   0.464   7.953  0.6829  0.1150  0.3635
19536SOL    HW170586   5.725   0.525   8.013  1.3947  1.1159 -0.1191
19536SOL    HW270587   5.695   0.422   7.907  0.1801  1.5971 -0.2599
19537SOL     OW70588   8.168   8.397  10.007 -0.0484 -0.6253 -0.7826
19537SOL    HW170589   8.182   8.389  10.101 -2.8969  0.1646 -0.2001
19537SOL    HW270590   8.170   8.307   9.974  4.0170 -0.7880 -0.6317
19538SOL     OW70591   1.780  10.067   5.738 -0.0358 -0.3569  0.1991
19538SOL    HW170592   1.802  10.037   5.826  3.3673 -1.0373 -0.7312
19538SOL    HW270593   1.782  10.163   5.744 -3.0949 -0.2617  1.4570
19539SOL     OW70594   9.836   5.538   0.287 -0.2404  0.4989 -0.8201
19539SOL    HW170595   9.827   5.610   0.224 -1.1079  1.4949  0.3900
19539SOL    HW270596   9.876   5.579   0.365  2.3174 -1.0267 -1.1998
19540SOL     OW70597   1.480   0.369   3.885  0.5626 -0.3673 -0.2889
19540SOL    HW170598   1.545   0.415   3.938  0.8639 -0.5775 -0.4774
19540SOL    HW270599   1.494   0.276   3.905 -0.1164 -0.3795  0.1798
19541SOL     OW70600   0.288  10.158   5.320 -0.1753 -0.0494 -0.0686
19541SOL    HW170601   0.356  10.158   5.253  0.7443 -0.1061  0.8350
19541SOL    HW270602   0.272  10.066   5.338  1.1898 -0.0594  1.3299
19542SOL     OW70603   3.812  10.322   8.380  0.2671  0.0518 -0.1400
19542SOL    HW170604   3.853  10.401   8.344  1.2591 -0.2723  0.2401
19542SOL    HW270605   3.863  10.250   8.344  0.2103 -0.3493  0.5643
19543SOL     OW70606   5.281   8.194   9.781 -0.0274 -0.5013  0.0696
19543SOL    HW170607   5.298   8.286   9.764  0.4792 -0.3198  1.4328
19543SOL    HW270608   5.226   8.193   9.859  0.8817 -1.3595  0.7378
19544SOL     OW70609   6.693   3.617   3.693 -0.1247  0.0126 -0.1082
19544SOL    HW170610   6.722   3.551   3.756  0.7818  0.4902 -0.0181
19544SOL    HW270611   6.658   3.688   3.746  0.8615  0.5210 -0.1131
19545SOL     OW70612   6.511   6.799   0.392 -0.0131 -0.0774  0.1436
19545SOL    HW170613   6.488   6.734   0.459 -0.4342  0.1096  0.1786
19545SOL    HW270614   6.569   6.860   0.438 -0.4876  0.1821  0.4007
19546SOL     OW70615   8.331   2.245   6.192  0.4707  0.0923 -0.9061
19546SOL    HW170616   8.392   2.211   6.126  0.8309 -1.2175  0.0500
19546SOL    HW270617   8.297   2.166   6.235  0.4261  0.9123  0.6235
19547SOL     OW70618   9.138   2.289   5.173 -0.5318 -0.4815 -0.1784
19547SOL    HW170619   9.222   2.243   5.166  0.0280  0.2166  1.6069
19547SOL    HW270620   9.112   2.279   5.265 -1.2309  1.3264 -0.1367
19548SOL     OW70621   8.471   0.650   9.744  0.4210 -0.0154 -0.0200
19548SOL    HW170622   8.491   0.687   9.658  0.1485 -1.5080 -0.7648
19548SOL    HW270623   8.378   0.626   9.739 -0.1489  1.6795  1.4085
19549SOL     OW70624   2.785   6.942   9.935  0.3774  0.2085 -0.0882
19549SOL    HW170625   2.870   6.974   9.965 -0.0705  1.9906 -0.6248
19549SOL    HW270626   2.770   6.985   9.851 -0.9204 -0.3212 -0.1651
19550SOL     OW70627   1.382   9.520   1.740  1.1568  0.3293  0.0708
19550SOL    HW170628   1.345   9.549   1.656 -0.2901  1.8257  1.1621
19550SOL    HW270629   1.329   9.444   1.764  0.4476  0.9142  0.4030
19551SOL     OW70630   9.240   5.374   6.343  0.2754 -0.2552  0.2576
19551SOL    HW170631   9.148   5.388   6.368  0.3592 -0.4746  0.7068
19551SOL    HW270632   9.236   5.352   6.250 -0.3941 -2.5862  0.7496
19552SOL     OW70633   9.508   3.076   5.142 -0.0842  0.3317  0.1671
19552SOL    HW170634   9.465   3.069   5.227 -0.9610 -0.9572 -0.3546
19552SOL    HW270635   9.544   2.989   5.126 -0.3042  0.4344 -0.9687
19553SOL     OW70636   0.553   6.234   5.242 -0.0356  0.5485 -0.2837
19553SOL    HW170637   0.499   6.158   5.259  0.6249  0.3298  0.9565
19553SOL    HW270638   0.492   6.302   5.214 -0.7937 -0.0309 -0.0510
19554SOL     OW70639   3.733   0.265   5.475 -0.0557  0.4096  0.1323
19554SOL    HW170640   3.761   0.354   5.496 -1.5868  1.0385 -0.3583
19554SOL    HW270641   3.705   0.269   5.384 -0.8966 -0.3853  0.3420
19555SOL     OW70642   0.259   0.828   6.223 -0.0841 -0.1695  0.4651
19555SOL    HW170643   0.204   0.823   6.302  0.0978  0.7062  0.6529
19555SOL    HW270644   0.347   0.845   6.256 -0.2209  1.5113  0.0223
19556SOL     OW70645   0.824   5.652   8.545 -0.2443  0.1682  0.0838
19556SOL    HW170646   0.869   5.574   8.512  0.0810  0.1534  0.5448
19556SOL    HW270647   0.736   5.645   8.509 -0.2187 -0.4172  0.1164
19557SOL     OW70648   0.765   9.018   0.091 -0.3682 -0.0327 -0.1249
19557SOL    HW170649   0.782   9.085   0.026  0.1583  0.9228  0.9669
19557SOL    HW270650   0.670   9.006   0.089 -0.5038  0.9791 -0.1213
19558SOL     OW70651   3.921   5.572   4.158 -0.2882 -0.3697  0.0769
19558SOL    HW170652   3.895   5.656   4.120 -0.3226 -0.1124  0.6622
19558SOL    HW270653   3.879   5.570   4.243  0.3808 -0.6215  0.4115
19559SOL     OW70654   3.686   3.909   7.079 -0.1735  0.5405  0.0330
19559SOL    HW170655   3.739   3.840   7.039 -1.0667 -0.6369  0.8164
19559SOL    HW270656   3.749   3.961   7.129  0.5403  0.4058 -0.6947
19560SOL     OW70657   2.469   9.597   2.638  0.5264  0.1531  0.0334
19560SOL    HW170658   2.547   9.568   2.591  0.6220  0.4106  0.0329
19560SOL    HW270659   2.427   9.516   2.668  0.7949  0.0146  0.0356
19561SOL     OW70660   0.639   5.289   7.109  0.2743  0.0106 -0.2341
19561SOL    HW170661   0.658   5.359   7.171  1.1988 -0.4565  0.0341
19561SOL    HW270662   0.639   5.209   7.162 -2.5363 -0.0714 -0.1998
19562SOL     OW70663   0.205   6.262  10.209  0.2931  0.1980 -0.4730
19562SOL    HW170664   0.118   6.265  10.250  0.6846  1.6603  0.3156
19562SOL    HW270665   0.264   6.235  10.279  0.9246  2.4241 -0.0799
19563SOL     OW70666   7.850   0.069   4.635  0.1621  0.0112  0.2107
19563SOL    HW170667   7.837  -0.019   4.670  2.4145 -0.4330  0.0484
19563SOL    HW270668   7.793   0.073   4.559 -2.0113 -0.3091  1.7190
19564SOL     OW70669   7.481   2.394   6.285  0.1806  0.8244 -0.1505
19564SOL    HW170670   7.512   2.360   6.201  0.8595 -0.8435  0.7418
19564SOL    HW270671   7.493   2.489   6.278  1.2712  0.6186 -1.4992
19565SOL     OW70672   8.074   4.026   6.246 -0.3225  0.0814 -0.4555
19565SOL    HW170673   7.989   4.060   6.274 -0.6061 -1.2700  0.3794
19565SOL    HW270674   8.113   4.098   6.197 -1.0069  1.5228  1.0286
19566SOL     OW70675   1.292   8.345   8.665  0.0758  0.2728 -0.2164
19566SOL    HW170676   1.293   8.430   8.622 -1.3788  0.2674 -0.3105
19566SOL    HW270677   1.376   8.305   8.642  0.6728  1.5780 -0.3551
19567SOL     OW70678   9.707   3.787   6.863 -0.0209 -0.1982 -0.8006
19567SOL    HW170679   9.740   3.874   6.844 -1.6834  1.3097  2.4537
19567SOL    HW270680   9.778   3.744   6.911 -0.5446  0.9111  1.0750
19568SOL     OW70681   3.837  10.232   6.415  0.1095 -0.0490  0.1992
19568SOL    HW170682   3.928  10.207   6.400  0.8361  2.6978 -0.5756
19568SOL    HW270683   3.833  10.251   6.509  0.3528 -0.1313  0.2274
19569SOL     OW70684   4.942   1.462  10.137 -0.1574 -0.0907 -0.6182
19569SOL    HW170685   4.972   1.381  10.178  5.0337  2.7004  2.1856
19569SOL    HW270686   4.889   1.505  10.204 -0.2836  0.1194 -0.8523
19570SOL     OW70687   3.299   5.405   1.447 -0.0418 -0.3162 -0.3194
19570SOL    HW170688   3.265   5.411   1.357 -0.8182  1.5646  0.0482
19570SOL    HW270689   3.377   5.351   1.440 -1.4199 -2.2782 -1.7163
19571SOL     OW70690   2.049   5.688   9.947 -0.4180  0.2291 -0.4744
19571SOL    HW170691   2.020   5.779   9.957 -2.1049 -0.0900 -1.9115
19571SOL    HW270692   1.968   5.638   9.942  0.4649 -1.1868 -1.1126
19572SOL     OW70693  10.026   1.786   8.339  0.4960 -0.1769 -0.4582
19572SOL    HW170694  10.048   1.700   8.372  0.8438  0.6450  1.5983
19572SOL    HW270695   9.937   1.777   8.305 -0.0989 -0.9976  1.2172
19573SOL     OW70696   3.335   0.294   4.469 -0.0186  0.1918 -0.3145
19573SOL    HW170697   3.359   0.330   4.555  0.4413  0.5425 -0.5891
19573SOL    HW270698   3.419   0.277   4.426 -0.2516  1.3692 -1.2608
19574SOL     OW70699   6.837  10.167   0.577 -0.6235 -0.2443 -0.1997
19574SOL    HW170700   6.803  10.186   0.489 -0.7432  1.6510  0.2216
19574SOL    HW270701   6.767  10.119   0.620 -1.5982  1.0306 -0.3264
19575SOL     OW70702   8.639   3.943   5.618  0.1447 -0.2297 -0.9514
19575SOL    HW170703   8.719   3.993   5.600 -0.7573  0.6436 -2.8868
19575SOL    HW270704   8.588   3.999   5.677  0.1636  0.0798 -1.2233
19576SOL     OW70705   2.386   0.230   5.289  0.2070  0.1536 -0.1794
19576SOL    HW170706   2.442   0.164   5.247 -0.2209  0.8853 -2.0233
19576SOL    HW270707   2.317   0.246   5.225  1.0421  3.3791 -0.4537
19577SOL     OW70708   3.155   1.811   8.683 -0.6254  0.1990  0.2715
19577SOL    HW170709   3.121   1.754   8.752 -1.6498 -1.0467 -1.2086
19577SOL    HW270710   3.230   1.855   8.724 -1.0682 -0.6509  2.1011
19578SOL     OW70711   2.889   3.554   1.793  0.0985 -0.3999 -0.6090
19578SOL    HW170712   2.961   3.491   1.798  2.3848  2.0973  0.3831
19578SOL    HW270713   2.918   3.628   1.846 -2.4267  1.5274 -1.6995
19579SOL     OW70714   4.667   0.920   7.196 -1.3299  0.3721  0.3718
19579SOL    HW170715   4.672   0.944   7.288 -2.0523  0.1813  0.4684
19579SOL    HW270716   4.586   0.870   7.188  0.1552 -2.2462  0.2216
19580SOL     OW70717   7.374   7.360   6.833  0.3662 -0.1739 -0.2370
19580SOL    HW170718   7.462   7.335   6.803  1.3779  2.3122  0.3486
19580SOL    HW270719   7.348   7.431   6.775 -0.0014  0.9959  1.2729
19581SOL     OW70720   8.767   9.219   9.302  0.2524  0.4503  0.0232
19581SOL    HW170721   8.708   9.280   9.347  0.0826  0.9441 -0.8524
19581SOL    HW270722   8.843   9.213   9.360 -0.3410  0.3468  0.8292
19582SOL     OW70723   1.413   4.432   6.674 -0.3106 -0.0455 -0.4929
19582SOL    HW170724   1.488   4.485   6.649  0.4402 -1.0488 -0.4516
19582SOL    HW270725   1.412   4.434   6.770 -0.7828  0.5565 -0.5057
19583SOL     OW70726   7.683   8.121   9.388 -0.1635 -0.2314 -0.5983
19583SOL    HW170727   7.638   8.081   9.314  1.3340 -1.3519 -0.9528
19583SOL    HW270728   7.727   8.048   9.432  0.8886  0.7306  0.0134
19584SOL     OW70729   8.176   7.024   3.773  0.0688  0.0818  0.1173
19584SOL    HW170730   8.234   7.008   3.699 -1.4142  0.7564 -1.2550
19584SOL    HW270731   8.220   7.092   3.824  1.1334 -0.4235 -0.1060
19585SOL     OW70732   9.592   2.350   7.131 -0.5560 -0.1038  0.0014
19585SOL    HW170733   9.555   2.405   7.201  0.2116 -0.9108  1.0904
19585SOL    HW270734   9.557   2.387   7.050  0.3152  2.2958  0.6403
19586SOL     OW70735   5.522   7.060   5.599  0.1929 -0.1987  0.0024
19586SOL    HW170736   5.598   7.096   5.646 -0.0566  0.8279 -0.3494
19586SOL    HW270737   5.464   7.136   5.587  0.3485 -0.3751 -2.1688
19587SOL     OW70738  10.346   9.133   1.290 -0.5521  0.4514 -0.4222
19587SOL    HW170739  10.430   9.166   1.260 -1.2745  1.5408 -1.3677
19587SOL    HW270740  10.363   9.044   1.319  0.8684  0.5775 -0.8276
19588SOL     OW70741   1.414   2.391   6.601 -0.5076 -1.1693 -0.9553
19588SOL    HW170742   1.410   2.400   6.506 -1.2671 -2.1035 -1.0211
19588SOL    HW270743   1.323   2.383   6.629 -0.3543 -0.1349 -0.0538
19589SOL     OW70744   9.228   5.289   6.088 -0.5107 -0.6251 -0.4586
19589SOL    HW170745   9.157   5.229   6.067  0.7963 -2.5851  0.3991
19589SOL    HW270746   9.303   5.232   6.107  0.7299  1.2764  0.7478
19590SOL     OW70747   3.057   6.712   3.904 -0.0408  0.1828 -0.2128
19590SOL    HW170748   2.979   6.749   3.864  0.4230 -0.1007 -1.4505
19590SOL    HW270749   3.041   6.716   3.998 -1.4039  0.4047 -0.4365
19591SOL     OW70750   2.396  10.166   2.181 -0.4956 -0.2218 -0.7713
19591SOL    HW170751   2.473  10.145   2.233 -1.0820 -1.0701 -0.2297
19591SOL    HW270752   2.431  10.206   2.101  0.5494 -1.2684 -0.8536
19592SOL     OW70753   2.613   0.495   7.424 -0.4611 -0.2404 -0.1173
19592SOL    HW170754   2.636   0.588   7.421 -0.9333 -0.0801  0.7882
19592SOL    HW270755   2.692   0.449   7.394 -0.7097  0.4997 -2.0100
19593SOL     OW70756   0.936   3.146   0.585 -0.1592  0.1301 -0.2976
19593SOL    HW170757   0.899   3.170   0.670  0.3803  0.8061 -0.2404
19593SOL    HW270758   0.865   3.099   0.540 -0.6557  0.3078  0.2860
19594SOL     OW70759   5.927   7.017   9.507 -0.2038  0.0661  0.2908
19594SOL    HW170760   5.840   7.057   9.505 -0.1167  0.2866  0.7669
19594SOL    HW270761   5.956   7.027   9.598  0.4892  0.3585  0.0422
19595SOL     OW70762   6.794   9.648   2.410 -0.7488 -0.1895  0.0427
19595SOL    HW170763   6.764   9.700   2.484 -1.1879 -0.1221 -0.1809
19595SOL    HW270764   6.731   9.576   2.404 -1.9224  0.8973 -1.5064
19596SOL     OW70765   0.051   4.329   6.358 -0.3950 -0.3853 -0.0454
19596SOL    HW170766   0.066   4.244   6.400 -0.3537  0.4854  1.8143
19596SOL    HW270767  -0.007   4.375   6.419 -0.1039  1.0698 -0.8306
19597SOL     OW70768   8.468  10.336   1.025  0.1138 -0.4190 -0.0331
19597SOL    HW170769   8.563  10.343   1.030  0.0870  0.4302 -0.5022
19597SOL    HW270770   8.444  10.390   0.949 -0.5770 -2.2082 -1.1340
19598SOL     OW70771   1.744   1.215   9.978  0.7421  0.0741 -0.2356
19598SOL    HW170772   1.759   1.224  10.072  3.0503  0.9585 -0.6170
19598SOL    HW270773   1.683   1.285   9.956 -0.3076 -0.5188  0.6589
19599SOL     OW70774   8.438   5.851   2.699  0.2923  0.0448 -0.3049
19599SOL    HW170775   8.483   5.909   2.636 -0.3618  1.1103  0.1831
19599SOL    HW270776   8.433   5.902   2.779 -0.0259 -0.8228  0.2434
19600SOL     OW70777   1.915   5.899   9.271 -0.3756  0.0511  0.0102
19600SOL    HW170778   1.955   5.829   9.220 -0.9757 -0.2046 -0.1167
19600SOL    HW270779   1.937   5.877   9.362 -0.1204 -0.0182 -0.0678
19601SOL     OW70780   9.416   1.863   0.329  0.2465  0.5234 -0.2125
19601SOL    HW170781   9.506   1.866   0.297  0.4369  1.2636  0.3668
19601SOL    HW270782   9.415   1.921   0.405 -0.9136  1.1614 -0.6922
19602SOL     OW70783   6.815   9.517   9.801  0.2305 -0.1836 -0.0814
19602SOL    HW170784   6.828   9.510   9.895  3.9463 -3.2399 -0.5824
19602SOL    HW270785   6.758   9.443   9.779  0.4193 -0.2492 -0.3540
19603SOL     OW70786   6.514   5.127   6.852  0.0507 -0.0686  0.4630
19603SOL    HW170787   6.456   5.098   6.922  0.6254 -2.2972  0.0945
19603SOL    HW270788   6.602   5.107   6.884  0.4053  0.2142 -0.3170
19604SOL     OW70789   2.294   1.583   6.716 -0.4496  0.7076 -0.0662
19604SOL    HW170790   2.373   1.629   6.688  1.0832 -0.7424  1.6744
19604SOL    HW270791   2.285   1.604   6.809 -0.0305 -1.9481  0.6314
19605SOL     OW70792   7.035   2.146   8.346  0.6306 -0.0442  0.2209
19605SOL    HW170793   7.007   2.234   8.319  0.5505  0.0495  0.5965
19605SOL    HW270794   7.130   2.146   8.335  0.4048 -0.7921 -2.3039
19606SOL     OW70795   4.211   8.934   5.800  0.0273 -0.0935  0.6988
19606SOL    HW170796   4.192   8.908   5.710 -0.1740 -0.7281  0.9180
19606SOL    HW270797   4.127   8.926   5.845 -0.0579  1.0081  0.7727
19607SOL     OW70798   7.375   2.374   4.806  0.0949 -0.5949 -0.5268
19607SOL    HW170799   7.323   2.453   4.796  0.6263  0.4686  3.4563
19607SOL    HW270800   7.425   2.367   4.724 -0.7763  2.5257 -1.4375
19608SOL     OW70801   1.203   2.649   2.172  0.4156  0.3710  0.0438
19608SOL    HW170802   1.295   2.676   2.169  0.0863  1.5626  0.1599
19608SOL    HW270803   1.202   2.564   2.128  1.8552 -0.5592  1.7140
19609SOL     OW70804   3.151   2.139   6.260  0.4285 -0.0535  0.0489
19609SOL    HW170805   3.127   2.053   6.225  1.0183 -0.6875  1.1524
19609SOL    HW270806   3.207   2.119   6.335 -0.2368  1.2724  0.9242
19610SOL     OW70807   9.020   4.903   5.290 -0.2087 -0.3465  0.0855
19610SOL    HW170808   9.010   4.818   5.247  0.2449 -0.4363  0.1493
19610SOL    HW270809   8.937   4.917   5.335 -0.2849 -0.7604  0.0797
19611SOL     OW70810   3.725   6.501   6.279  0.4874 -0.2783  0.0485
19611SOL    HW170811   3.648   6.471   6.327 -1.0492  0.4679 -1.8606
19611SOL    HW270812   3.763   6.569   6.335 -1.4023  0.7590  0.1353
19612SOL     OW70813   9.969   0.766   2.348  0.2310 -0.1627 -0.2051
19612SOL    HW170814   9.974   0.818   2.268  0.4313 -0.3604 -0.3238
19612SOL    HW270815   9.926   0.823   2.412  1.5282  0.5942  0.0238
19613SOL     OW70816   1.114   8.893   4.574 -0.1019  0.1696 -0.0253
19613SOL    HW170817   1.164   8.974   4.563  0.2388 -0.1449 -0.8420
19613SOL    HW270818   1.181   8.827   4.590 -0.3241 -0.0896 -0.1676
19614SOL     OW70819   4.048   4.543   1.565  0.0214 -0.4337  0.0606
19614SOL    HW170820   4.010   4.455   1.562 -2.3232  0.5229 -2.0692
19614SOL    HW270821   4.133   4.534   1.522  0.5845 -1.9174  1.3928
19615SOL     OW70822   2.860   4.722   7.050 -0.3224 -0.0088 -0.3059
19615SOL    HW170823   2.954   4.726   7.034  0.0245 -1.7040  1.0535
19615SOL    HW270824   2.836   4.811   7.077  1.1170  0.1734  0.4391
19616SOL     OW70825   8.074   3.894   6.909 -0.1879  0.0771 -0.1861
19616SOL    HW170826   8.111   3.914   6.823 -0.6501  0.5429 -0.2786
19616SOL    HW270827   7.980   3.887   6.895 -0.3169  0.6136  0.3611
19617SOL     OW70828   2.897   6.451   0.657  0.1843 -0.2188 -0.4032
19617SOL    HW170829   2.966   6.386   0.643  0.8879  0.5119 -0.4019
19617SOL    HW270830   2.943   6.534   0.664 -0.7352  0.3437 -0.7854
19618SOL     OW70831   6.551   7.802   9.403 -0.0427  0.3177 -0.0531
19618SOL    HW170832   6.552   7.850   9.320 -1.1232  0.7880  0.1849
19618SOL    HW270833   6.632   7.752   9.403  0.2564  0.7758 -1.1223
19619SOL     OW70834   5.425   7.032   4.501 -0.0231  0.0601 -0.2134
19619SOL    HW170835   5.387   7.117   4.523 -0.7021 -0.4195  0.5790
19619SOL    HW270836   5.489   7.016   4.571 -0.2817 -0.3111 -0.0602
19620SOL     OW70837   6.705  10.182   0.025  0.7611  0.1306  0.1299
19620SOL    HW170838   6.736  10.134  -0.051 -3.0782 -0.5665 -1.2122
19620SOL    HW270839   6.677  10.267  -0.009  1.0190  0.6822  1.2209
19621SOL     OW70840   0.720   2.941   0.066 -0.4428 -1.2684  0.1574
19621SOL    HW170841   0.676   2.924  -0.017  0.1615 -0.9106 -0.2473
19621SOL    HW270842   0.736   2.854   0.103 -1.3178 -1.4078  0.2299
19622SOL     OW70843  10.328   2.064   7.494 -0.2435 -0.0148  0.2816
19622SOL    HW170844  10.278   2.053   7.413  0.6486 -1.1317 -0.1322
19622SOL    HW270845  10.375   2.146   7.482 -3.0893  1.9280  1.3144
19623SOL     OW70846   0.723   8.459   1.775 -0.5848  0.2881  0.2581
19623SOL    HW170847   0.743   8.366   1.785 -0.4124  0.2973  0.0111
19623SOL    HW270848   0.650   8.462   1.714  0.5734  0.3976 -1.1760
19624SOL     OW70849   8.114   4.711   6.562  0.0271  0.1016 -0.5214
19624SOL    HW170850   8.059   4.712   6.484  0.3185 -0.8825 -0.7475
19624SOL    HW270851   8.127   4.619   6.582 -0.6788  0.3338  1.1651
19625SOL     OW70852   0.879   5.870   0.056  0.1000 -0.1773 -0.0817
19625SOL    HW170853   0.969   5.872   0.025 -0.0212 -1.4522 -0.5959
19625SOL    HW270854   0.885   5.848   0.149  0.3577  0.9920  0.1891
19626SOL     OW70855   1.570   1.980   2.497 -0.0912  0.0111  0.5098
19626SOL    HW170856   1.609   1.898   2.465 -1.1337 -0.0785 -0.5579
19626SOL    HW270857   1.477   1.972   2.477 -0.0718  1.8900 -0.5477
19627SOL     OW70858   7.035   8.626   9.652 -0.1003  0.7769  0.3135
19627SOL    HW170859   6.981   8.547   9.659 -0.5360  1.0345 -0.0897
19627SOL    HW270860   7.029   8.651   9.560  0.4741  0.9770  0.3272
19628SOL     OW70861   2.832   7.875   9.934  0.3996 -0.0910 -0.1341
19628SOL    HW170862   2.833   7.843  10.025  1.7727 -0.4359 -0.2531
19628SOL    HW270863   2.783   7.957   9.939 -1.0819 -0.9557  0.5937
19629SOL     OW70864   1.599   4.121  10.293  0.0788  0.4168  0.6155
19629SOL    HW170865   1.686   4.128  10.255  0.4816  3.3850  1.7961
19629SOL    HW270866   1.539   4.131  10.219  0.7837  1.2090  0.1409
19630SOL     OW70867   0.284   9.007   8.575 -0.1251  0.0496  0.7536
19630SOL    HW170868   0.322   8.977   8.658 -1.1177  0.7041  1.4552
19630SOL    HW270869   0.200   8.961   8.569 -1.9331  2.9074  2.0947
19631SOL     OW70870   0.037   5.253   7.041  0.8132 -0.0164  0.2904
19631SOL    HW170871  -0.042   5.298   7.010  1.9941  2.6510  0.9188
19631SOL    HW270872   0.053   5.289   7.128  2.0837 -1.4146  0.6819
19632SOL     OW70873   8.983   6.458   0.326 -0.5601 -1.0195 -0.5167
19632SOL    HW170874   8.901   6.409   0.329 -2.4163  1.9285  1.3877
19632SOL    HW270875   8.957   6.550   0.335  2.9667  0.0407  0.5208
19633SOL     OW70876   7.521  10.106   6.160 -0.6629  0.3139 -0.6000
19633SOL    HW170877   7.493  10.190   6.124 -1.1492  0.4729  0.1375
19633SOL    HW270878   7.588  10.075   6.099 -0.7507  1.0545 -1.0821
19634SOL     OW70879   2.058   0.573   5.993  0.3101 -0.3550 -0.0817
19634SOL    HW170880   2.057   0.557   6.087  0.1123  0.3579  0.0397
19634SOL    HW270881   2.134   0.629   5.979  0.2648 -0.3550 -0.3342
19635SOL     OW70882   9.935   2.695   2.385 -0.1939  0.3327  0.3606
19635SOL    HW170883   9.868   2.757   2.414 -0.9201 -0.1750 -0.1916
19635SOL    HW270884  10.018   2.736   2.410 -0.6927  1.1300  0.7549
19636SOL     OW70885   1.645   1.645   8.516 -0.1712 -0.7906 -0.1578
19636SOL    HW170886   1.605   1.713   8.462  0.1796  0.7529  1.4157
19636SOL    HW270887   1.595   1.566   8.498 -1.4793  0.2093 -1.0455
19637SOL     OW70888   0.307   8.950   6.378 -0.1848 -0.0358  0.6271
19637SOL    HW170889   0.357   8.891   6.434 -2.3510 -1.7251  0.9083
19637SOL    HW270890   0.257   8.892   6.320 -1.7500  1.5359  0.3155
19638SOL     OW70891   0.266  10.134   9.153  0.4005 -0.6590  0.3954
19638SOL    HW170892   0.193  10.178   9.109  0.7873  0.6564  1.0196
19638SOL    HW270893   0.266  10.046   9.116  0.4513  0.2573 -1.9482
19639SOL     OW70894   7.570   7.152   2.588 -0.3154 -0.5021  0.0731
19639SOL    HW170895   7.536   7.109   2.666 -0.7365  0.3619  0.3770
19639SOL    HW270896   7.656   7.185   2.614  0.1565 -1.4252 -0.2613
19640SOL     OW70897   6.435   1.434   5.024  0.2003 -0.5434 -1.1537
19640SOL    HW170898   6.477   1.348   5.022 -1.6911 -1.5227 -0.4685
19640SOL    HW270899   6.343   1.417   5.005  0.0178  1.5367 -2.5612
19641SOL     OW70900   3.762   5.766   9.979  0.3318  0.3471 -0.7657
19641SOL    HW170901   3.805   5.850   9.993 -0.6021  0.7110 -0.0745
19641SOL    HW270902   3.679   5.787   9.937  0.3792 -0.2935 -1.2149
19642SOL     OW70903   9.772   1.465  10.047 -0.4426  0.1228 -0.5283
19642SOL    HW170904   9.734   1.395   9.994 -0.5918  0.0760 -0.3620
19642SOL    HW270905   9.699   1.496  10.100 -0.0175 -0.6786  0.5576
19643SOL     OW70906   5.521   5.006   5.028 -0.4213  0.1294 -0.3866
19643SOL    HW170907   5.525   4.917   5.063 -0.7514 -0.3054 -1.4129
19643SOL    HW270908   5.463   5.053   5.088  0.0538 -0.2401  0.3752
19644SOL     OW70909   1.253   7.286   6.244  0.1915 -0.3570 -0.5588
19644SOL    HW170910   1.219   7.269   6.332  0.6175  0.0661 -0.3126
19644SOL    HW270911   1.177   7.273   6.187 -0.5745  1.2614  0.0536
19645SOL     OW70912   4.977   3.680   0.926 -0.5113  0.1840 -0.5034
19645SOL    HW170913   5.023   3.675   1.011 -1.0431  0.9568 -0.1615
19645SOL    HW270914   5.036   3.731   0.870 -1.0935  1.5070  0.0490
19646SOL     OW70915   1.639   8.241   9.563  0.1472  0.1931  0.7556
19646SOL    HW170916   1.584   8.163   9.575 -0.2729  0.2652 -0.5086
19646SOL    HW270917   1.602   8.284   9.485 -0.1277  2.0878  1.8782
19647SOL     OW70918   9.475   5.546   5.998 -0.1670  0.2681 -0.1284
19647SOL    HW170919   9.481   5.629   5.950  0.7076  0.2325 -0.0869
19647SOL    HW270920   9.429   5.569   6.079  1.0324  0.9575  0.3851
19648SOL     OW70921   3.485   8.940   0.855 -0.2810 -0.1846 -0.7778
19648SOL    HW170922   3.528   9.024   0.870 -1.7289  0.2992  0.9279
19648SOL    HW270923   3.425   8.956   0.782 -0.4068  0.1855 -0.5903
19649SOL     OW70924   6.185   9.483   0.234  0.6981  0.2085 -0.4405
19649SOL    HW170925   6.140   9.503   0.316  0.4162  1.6667 -0.9189
19649SOL    HW270926   6.124   9.427   0.186 -0.0204  1.0045 -0.4831
19650SOL     OW70927   9.533   2.898   5.403 -0.8837  0.0394  0.4998
19650SOL    HW170928   9.476   2.950   5.460 -1.3762 -0.2807  0.3125
19650SOL    HW270929   9.494   2.810   5.405 -0.4172 -0.1726  0.3348
19651SOL     OW70930   2.633   6.284   6.946  0.6721 -0.3395 -0.0976
19651SOL    HW170931   2.538   6.286   6.953  0.5550 -0.6193 -1.3799
19651SOL    HW270932   2.663   6.353   7.006 -0.5008  2.0206 -2.0880
19652SOL     OW70933   5.409   2.467   3.758 -0.1805 -0.2339 -0.1912
19652SOL    HW170934   5.423   2.380   3.797 -2.4593 -0.3856  0.4505
19652SOL    HW270935   5.392   2.449   3.666 -1.3158 -0.5815  0.0674
19653SOL     OW70936   6.916   3.484   5.491  0.0956  0.2447  0.4949
19653SOL    HW170937   6.896   3.496   5.584  0.2933  2.6258  0.2985
19653SOL    HW270938   6.945   3.393   5.484 -1.0256 -0.3334  2.5397
19654SOL     OW70939   3.259   9.602   3.315  0.5148  0.3681  0.1928
19654SOL    HW170940   3.243   9.693   3.336 -2.1538  0.1068 -0.3915
19654SOL    HW270941   3.293   9.603   3.226 -0.8536  0.7590 -0.3480
19655SOL     OW70942   0.331   2.267  10.061  0.2649  0.2599 -0.2912
19655SOL    HW170943   0.281   2.191  10.090 -0.7324  0.4074 -1.5373
19655SOL    HW270944   0.390   2.287  10.134  0.7015 -1.8335 -0.0317
19656SOL     OW70945   8.090  10.075   2.141 -0.3872 -0.0228  0.4639
19656SOL    HW170946   8.175  10.040   2.169 -0.1415  0.3059  0.1332
19656SOL    HW270947   8.049  10.003   2.094  0.0749  0.0910 -0.1259
19657SOL     OW70948   9.155   7.739   8.728  0.6196  0.6184 -0.1789
19657SOL    HW170949   9.092   7.666   8.729  1.4801 -0.1453  0.8076
19657SOL    HW270950   9.240   7.697   8.743  1.7007  1.3523 -3.4339
19658SOL     OW70951   9.807   3.625   2.561  0.4230 -0.2154  0.0101
19658SOL    HW170952   9.860   3.696   2.598 -1.2534  1.9873 -1.5283
19658SOL    HW270953   9.871   3.560   2.533  2.0426  0.6422  1.4926
19659SOL     OW70954   5.208   3.586   8.882 -0.3211 -0.0732  0.3044
19659SOL    HW170955   5.287   3.624   8.921 -0.3524  0.2938  0.0195
19659SOL    HW270956   5.212   3.611   8.790 -0.0413 -1.2854 -0.0229
19660SOL     OW70957   7.159   3.724   8.883  0.0998  0.2418 -0.4464
19660SOL    HW170958   7.224   3.759   8.944 -0.5390 -1.1990  1.1785
19660SOL    HW270959   7.210   3.695   8.807  1.1847  0.3703  0.2111
19661SOL     OW70960   2.901   5.218   8.040 -0.5101  0.4967 -0.7070
19661SOL    HW170961   2.987   5.194   8.006  0.6045 -1.6350  3.0350
19661SOL    HW270962   2.906   5.313   8.050  2.3517  0.2776  1.3135
19662SOL     OW70963   6.086   1.010   1.583 -0.2078  0.8262  0.1285
19662SOL    HW170964   5.996   0.994   1.555  0.2678 -0.8165 -0.6220
19662SOL    HW270965   6.140   0.964   1.518  1.1943  1.9720  0.4223
19663SOL     OW70966   9.547   8.722   7.657 -0.1850 -0.1042  0.0454
19663SOL    HW170967   9.560   8.705   7.750  2.5863  2.1054  0.1742
19663SOL    HW270968   9.457   8.753   7.651 -1.1184 -2.2448  1.5949
19664SOL     OW70969   9.953   0.539   6.209  0.0802  0.2692 -0.1677
19664SOL    HW170970   9.871   0.533   6.259  0.1201  0.5332 -0.0653
19664SOL    HW270971   9.984   0.449   6.202 -0.6595  0.0681 -0.9483
19665SOL     OW70972   5.823   0.829   8.692  0.0584 -0.0966 -0.2134
19665SOL    HW170973   5.813   0.859   8.602  0.0464 -1.0971 -0.5569
19665SOL    HW270974   5.746   0.865   8.738  0.6401  1.3626 -0.3174
19666SOL     OW70975  10.195   5.127   9.431 -0.8647 -0.1126 -0.1735
19666SOL    HW170976  10.144   5.162   9.503  0.3983  1.4000  0.0105
19666SOL    HW270977  10.170   5.181   9.356  0.5822  0.7656 -0.0392
19667SOL     OW70978   8.439   9.684   4.863  0.1037  0.9565 -0.4334
19667SOL    HW170979   8.488   9.610   4.900 -0.8043  1.3992  1.8377
19667SOL    HW270980   8.482   9.702   4.779  2.3098 -0.1634  0.3740
19668SOL     OW70981   2.627   1.496   4.153  0.4086 -0.1212 -0.0626
19668SOL    HW170982   2.588   1.567   4.204 -1.3966 -0.7212 -0.5447
19668SOL    HW270983   2.559   1.429   4.148  1.3152 -0.9952 -1.4059
19669SOL     OW70984   8.909   1.079   9.572 -0.1581  0.1007  0.0851
19669SOL    HW170985   8.986   1.022   9.564  1.8186  2.6090  0.1139
19669SOL    HW270986   8.936   1.161   9.532 -3.0805  0.9152 -0.4374
19670SOL     OW70987   5.342   6.972   7.903 -0.8879  0.4689 -0.0079
19670SOL    HW170988   5.283   6.981   7.829  0.4079  1.1637 -0.9895
19670SOL    HW270989   5.339   6.878   7.924 -0.0964 -0.0507 -1.9730
19671SOL     OW70990   4.438   6.263   5.082 -0.0810 -0.3560  0.3860
19671SOL    HW170991   4.411   6.255   5.173 -0.5305  1.3683  0.4354
19671SOL    HW270992   4.481   6.349   5.077  0.5396 -0.7157 -0.8816
19672SOL     OW70993   9.975   7.219   8.635 -0.1577 -0.2832  0.1087
19672SOL    HW170994   9.979   7.310   8.662  2.1414 -0.2881  0.0252
19672SOL    HW270995   9.971   7.170   8.717 -0.6254 -0.1267  0.1799
19673SOL     OW70996   0.008   3.390   2.641 -0.1581  0.2717 -1.0698
19673SOL    HW170997  -0.005   3.333   2.717 -0.0198 -0.1769 -1.3778
19673SOL    HW270998   0.099   3.375   2.615  0.2245  1.4752 -0.4800
19674SOL     OW70999  10.277   3.901   1.451 -0.0483 -0.2457 -0.1282
19674SOL    HW171000  10.360   3.907   1.405  0.2984  0.4952  0.5673
19674SOL    HW271001  10.297   3.849   1.530 -0.4272 -0.7234 -0.3379
19675SOL     OW71002   1.418   2.857   1.185  0.3444  0.2246  0.6425
19675SOL    HW171003   1.359   2.888   1.254 -1.7398 -0.9572 -0.4887
19675SOL    HW271004   1.366   2.861   1.105  0.6564 -3.6794  0.0148
19676SOL     OW71005   1.194   6.271   3.648 -0.0939 -0.2116 -0.0746
19676SOL    HW171006   1.166   6.180   3.635 -0.7316 -0.0549  0.1573
19676SOL    HW271007   1.288   6.270   3.632 -0.0235 -0.9964  0.3731
19677SOL     OW71008   0.856   0.826   8.363  0.1429 -0.0876 -0.1192
19677SOL    HW171009   0.944   0.809   8.395 -0.2885 -1.4464  0.4156
19677SOL    HW271010   0.801   0.762   8.408 -1.1525  0.8494 -0.2943
19678SOL     OW71011   6.363   3.406   5.857 -0.5727 -0.3822  0.0737
19678SOL    HW171012   6.388   3.324   5.899 -0.8965 -1.4992 -1.7746
19678SOL    HW271013   6.268   3.403   5.854 -0.5483 -0.5201 -1.0251
19679SOL     OW71014   3.056   1.792   9.366 -0.5836 -0.7082  0.0755
19679SOL    HW171015   3.014   1.846   9.299  0.0860  1.2735  1.1469
19679SOL    HW271016   2.997   1.718   9.378 -1.7266 -0.0618 -1.2592
19680SOL     OW71017   1.123   8.703   0.901  0.0214 -0.1144 -0.0866
19680SOL    HW171018   1.193   8.760   0.869 -2.7709  2.6449 -1.8959
19680SOL    HW271019   1.118   8.720   0.995 -0.6099  2.6831 -0.5473
19681SOL     OW71020   0.097   0.446   8.052  0.8198  0.2220  0.3946
19681SOL    HW171021   0.009   0.433   8.087  0.0326 -0.7319 -1.7711
19681SOL    HW271022   0.153   0.391   8.106 -0.3657 -1.3060  0.1245
19682SOL     OW71023   1.412   5.357   0.723  0.1504  0.2120  0.9256
19682SOL    HW171024   1.345   5.414   0.760 -0.6844  0.0769 -0.3101
19682SOL    HW271025   1.378   5.268   0.736  0.4760  0.1007  1.0238
19683SOL     OW71026   6.434   8.002   5.090 -0.0405 -0.0115 -0.2603
19683SOL    HW171027   6.385   7.961   5.162  1.7580 -0.5451  0.7334
19683SOL    HW271028   6.432   7.937   5.020 -1.0937  0.1638 -0.4201
19684SOL     OW71029   9.525   4.746   8.943 -0.0773  0.4110 -0.5311
19684SOL    HW171030   9.603   4.694   8.964 -0.4977 -0.1604 -0.3378
19684SOL    HW271031   9.551   4.836   8.959  1.2942  0.4792 -2.7350
19685SOL     OW71032   8.371   4.617   5.894  0.5205 -0.0266  0.7765
19685SOL    HW171033   8.458   4.599   5.859  0.5257 -1.6531  1.5201
19685SOL    HW271034   8.353   4.708   5.870  1.6071 -0.2585 -1.0976
19686SOL     OW71035  10.276   8.078   9.338 -0.0607 -0.4831 -0.0421
19686SOL    HW171036  10.199   8.028   9.364 -1.4651  1.1827 -0.7309
19686SOL    HW271037  10.263   8.096   9.245 -0.0974  1.8132  0.3326
19687SOL     OW71038   3.008   6.256   1.471 -0.1416 -0.0869  0.1150
19687SOL    HW171039   3.043   6.314   1.403  0.6988 -2.5808 -1.7295
19687SOL    HW271040   2.930   6.217   1.431 -0.9046  0.0126  1.4491
19688SOL     OW71041   5.547   0.145   9.120  0.6088  0.0105 -0.1161
19688SOL    HW171042   5.550   0.125   9.214 -0.6852 -1.1973 -0.2959
19688SOL    HW271043   5.581   0.066   9.078 -0.6827 -0.2523 -0.7087
19689SOL     OW71044   3.024   2.466   5.617  0.1336  0.2186  0.3123
19689SOL    HW171045   3.009   2.422   5.533 -0.5515  2.2392 -0.6912
19689SOL    HW271046   3.119   2.478   5.621  0.1835 -0.0056 -0.1182
19690SOL     OW71047   3.581   8.438   9.954  0.0486 -0.3240 -0.2471
19690SOL    HW171048   3.562   8.347   9.933 -0.4708 -0.5307  1.0382
19690SOL    HW271049   3.496   8.481   9.952  0.0036 -0.2986  1.0721
19691SOL     OW71050   2.985   4.441   9.355  0.2354  0.1106  0.3655
19691SOL    HW171051   3.058   4.388   9.324  1.0567  0.9392  0.8260
19691SOL    HW271052   2.940   4.468   9.274 -0.3249 -1.4216  0.1390
19692SOL     OW71053   2.436   3.442   0.094  0.5679 -0.5915 -0.0135
19692SOL    HW171054   2.377   3.515   0.111  0.6362 -0.6029  0.2737
19692SOL    HW271055   2.420   3.381   0.166  1.9040  0.0089  0.8381
19693SOL     OW71056   1.896   3.299   6.232  0.0841  0.1298 -0.3425
19693SOL    HW171057   1.841   3.371   6.201 -1.0949  0.1009  1.5002
19693SOL    HW271058   1.891   3.233   6.163 -0.6271  0.9336 -1.0799
19694SOL     OW71059   5.799  10.232   0.920  0.3369  0.3336 -0.4966
19694SOL    HW171060   5.787  10.245   0.826  1.1591  0.6220 -0.5748
19694SOL    HW271061   5.728  10.280   0.961 -1.3575 -1.5963 -1.0093
19695SOL     OW71062   6.259   1.322   8.917  0.0344  0.3344  0.1715
19695SOL    HW171063   6.295   1.374   8.989 -0.2008 -0.4971  0.9076
19695SOL    HW271064   6.334   1.274   8.883 -0.0735 -0.1911  0.6634
19696SOL     OW71065   9.417   5.402   4.440  0.3289 -0.0640  0.4734
19696SOL    HW171066   9.483   5.333   4.448 -0.5308 -1.1137 -1.0909
19696SOL    HW271067   9.380   5.409   4.528  0.9105 -1.1041  0.8269
19697SOL     OW71068   5.253   2.111   5.754  0.0149  0.5434  0.3138
19697SOL    HW171069   5.300   2.153   5.826  0.1469  2.0249 -0.5828
19697SOL    HW271070   5.320   2.095   5.688 -0.0471 -1.0895  0.6171
19698SOL     OW71071   7.822  10.013   1.751  0.3578 -0.1811 -0.0722
19698SOL    HW171072   7.740  10.032   1.705  0.1372  1.7427  0.9716
19698SOL    HW271073   7.833   9.919   1.744 -2.5740 -0.6962  0.7333
19699SOL     OW71074   2.249   1.735   6.992  0.2605  0.2557 -0.2219
19699SOL    HW171075   2.233   1.814   7.044  0.8079 -0.2342  0.7173
19699SOL    HW271076   2.161   1.705   6.969 -0.0565  0.0127  1.1738
19700SOL     OW71077   7.014   0.036   1.503  0.1566 -0.3461 -0.5579
19700SOL    HW171078   6.958   0.066   1.431 -0.2641  0.1147 -0.0484
19700SOL    HW271079   7.053   0.117   1.537 -0.4164 -0.4471  0.3639
19701SOL     OW71080   2.947   3.192   7.260 -0.1900  0.3533  0.2482
19701SOL    HW171081   2.895   3.194   7.180 -1.8254  1.3316  1.2598
19701SOL    HW271082   3.037   3.200   7.231 -0.7249  0.4884 -1.5003
19702SOL     OW71083   0.960   9.901   1.652  0.0830 -0.1852  0.3962
19702SOL    HW171084   0.917   9.865   1.729 -0.3794 -1.0936 -0.2609
19702SOL    HW271085   0.897   9.965   1.617 -0.1844 -0.5778  0.1555
19703SOL     OW71086   4.724   0.702   5.986 -0.2894 -0.8436  0.7155
19703SOL    HW171087   4.639   0.707   5.942 -0.6005  1.5745  1.4056
19703SOL    HW271088   4.703   0.679   6.076  0.2503 -4.6379  0.0221
19704SOL     OW71089   1.565   6.158   7.567  0.2461 -0.6502 -0.0070
19704SOL    HW171090   1.579   6.230   7.629 -1.1754 -0.9951  0.7410
19704SOL    HW271091   1.652   6.142   7.530  0.7944  0.7421  0.5794
19705SOL     OW71092   5.568   4.945   9.168 -0.0208  0.2034  0.3060
19705SOL    HW171093   5.632   4.980   9.106  0.6072 -0.2218  0.7036
19705SOL    HW271094   5.508   5.018   9.184  0.9374  0.9347  0.6927
19706SOL     OW71095   6.016   1.343   0.529  0.6376 -0.2238 -0.0763
19706SOL    HW171096   6.062   1.275   0.480  1.4906 -0.0543  0.4768
19706SOL    HW271097   5.952   1.377   0.466 -0.0013 -1.7033 -0.2733
19707SOL     OW71098   2.611   0.583   4.533  0.2599 -0.3856 -0.3066
19707SOL    HW171099   2.537   0.585   4.473  1.3827 -2.1371 -1.8648
19707SOL    HW271100   2.688   0.588   4.476  1.3857  1.2961  1.2582
19708SOL     OW71101   1.809   3.172   2.493 -0.2277  0.2446  0.2442
19708SOL    HW171102   1.750   3.146   2.564 -0.1639 -2.3191 -0.5677
19708SOL    HW271103   1.893   3.187   2.536 -0.6706  0.8017  0.9565
19709SOL     OW71104   0.153   8.457   2.026 -0.0394  0.1873 -0.0119
19709SOL    HW171105   0.099   8.532   2.002 -0.1592  0.5069  1.2225
19709SOL    HW271106   0.161   8.407   1.944 -1.3659  0.6483 -0.4538
19710SOL     OW71107   6.564  10.316   1.491  0.3677  0.4452  0.0989
19710SOL    HW171108   6.630  10.380   1.521 -1.0015  1.7612  0.4615
19710SOL    HW271109   6.508  10.304   1.568  0.0006 -0.4046 -0.3039
19711SOL     OW71110   0.122   8.495   8.691 -1.0582  0.5511 -0.1412
19711SOL    HW171111   0.077   8.444   8.624  0.3888 -1.3049  0.2090
19711SOL    HW271112   0.087   8.463   8.774 -0.5425  0.5334  0.0732
19712SOL     OW71113   5.798   6.433   9.066  0.1803 -0.1857 -0.8248
19712SOL    HW171114   5.860   6.373   9.024 -0.4488 -0.8227 -0.8706
19712SOL    HW271115   5.776   6.496   8.997 -0.0432 -0.6006 -1.1387
19713SOL     OW71116   6.110   8.274   1.483  0.1794  0.0479  0.0142
19713SOL    HW171117   6.128   8.200   1.426  0.9336  1.3540 -1.5443
19713SOL    HW271118   6.037   8.320   1.440 -0.7570 -0.1709  1.3387
19714SOL     OW71119   7.525   6.483   9.752  0.1762 -0.2769  0.9248
19714SOL    HW171120   7.493   6.566   9.786 -0.0069  0.5230 -1.0755
19714SOL    HW271121   7.614   6.475   9.787 -0.1160  0.3209  1.8270
19715SOL     OW71122   0.757   6.446   9.709 -0.4934  0.0285  0.0391
19715SOL    HW171123   0.816   6.381   9.669 -1.5075 -0.2431 -1.0803
19715SOL    HW271124   0.789   6.455   9.799  0.1962 -1.3836 -0.0272
19716SOL     OW71125   5.811   6.394   6.578  0.4849  0.3306  0.6012
19716SOL    HW171126   5.778   6.475   6.538  0.2374 -0.1013 -0.0676
19716SOL    HW271127   5.754   6.325   6.544  0.8917 -0.1736  0.9301
19717SOL     OW71128   9.082   5.278   1.396 -0.4441  0.4263 -0.2060
19717SOL    HW171129   9.074   5.328   1.315  0.3038 -1.2905 -1.4016
19717SOL    HW271130   9.176   5.264   1.407 -0.4905  1.0084  1.2391
19718SOL     OW71131   9.543   7.273   4.242 -0.0476 -0.3821 -0.6242
19718SOL    HW171132   9.541   7.327   4.163  0.4367 -2.4641 -2.1430
19718SOL    HW271133   9.483   7.316   4.303  0.3995  1.8710 -1.7017
19719SOL     OW71134   0.608   4.786   8.934 -0.1229  0.5308  0.5900
19719SOL    HW171135   0.590   4.879   8.919  0.4547  0.6789  0.7797
19719SOL    HW271136   0.661   4.759   8.859 -0.8269  0.1863  0.2092
19720SOL     OW71137   1.119   3.488   9.277  0.6107  0.5122 -0.5665
19720SOL    HW171138   1.190   3.548   9.302  0.3048  0.5657  0.2272
19720SOL    HW271139   1.051   3.505   9.342  0.2209 -0.1663 -0.7923
19721SOL     OW71140   6.908   5.695   7.695  0.0545 -0.3827  0.6043
19721SOL    HW171141   6.964   5.623   7.667 -0.7388 -0.6969 -0.2314
19721SOL    HW271142   6.968   5.769   7.706  0.6409 -0.7010 -0.3105
19722SOL     OW71143   5.765   9.761   4.561 -0.3245  0.5473 -0.0454
19722SOL    HW171144   5.683   9.715   4.578  0.7522 -0.8829  1.5577
19722SOL    HW271145   5.796   9.787   4.648  1.0590  0.8258 -0.6019
19723SOL     OW71146   6.001   4.798   8.992 -0.8966 -0.0093  0.2311
19723SOL    HW171147   5.949   4.872   9.024 -0.7226 -0.5108  1.8027
19723SOL    HW271148   5.936   4.729   8.976 -0.9780  0.2189 -0.4181
19724SOL     OW71149  10.045   1.468   3.794 -0.6698 -0.3363  0.2862
19724SOL    HW171150  10.085   1.440   3.711  0.9198  0.3709  0.7775
19724SOL    HW271151  10.070   1.399   3.856 -2.2152 -1.0858  0.1267
19725SOL     OW71152   1.103   0.474   6.172 -0.1287 -0.5267 -0.0307
19725SOL    HW171153   1.046   0.503   6.243  0.7253 -1.3450  1.0196
19725SOL    HW271154   1.095   0.542   6.105  0.2669  1.0823  1.5082
19726SOL     OW71155   2.640   9.946   4.756 -0.6645 -0.2585  0.3566
19726SOL    HW171156   2.612  10.023   4.707 -1.5830 -1.2784 -0.7676
19726SOL    HW271157   2.559   9.908   4.789 -0.2820 -1.1749  0.2512
19727SOL     OW71158   4.827   5.427   8.107 -0.0585  0.0268 -0.3320
19727SOL    HW171159   4.910   5.442   8.062  0.4099 -0.9939  0.1499
19727SOL    HW271160   4.761   5.436   8.039  0.6054 -1.1137 -1.1662
19728SOL     OW71161   6.061   1.314   8.697 -0.2572 -0.3116 -0.2089
19728SOL    HW171162   5.990   1.265   8.740  0.9625 -0.9978  1.1065
19728SOL    HW271163   6.137   1.299   8.753  0.1419  3.3475  0.4258
19729SOL     OW71164   0.810   3.777   8.220  0.1798  0.6055 -0.1199
19729SOL    HW171165   0.806   3.684   8.195 -2.2025  0.0771  1.8479
19729SOL    HW271166   0.736   3.817   8.175 -0.7398  0.8143  1.5092
19730SOL     OW71167   1.820   1.924   0.814 -0.1253  0.4729  0.3978
19730SOL    HW171168   1.905   1.909   0.772 -1.4026 -1.7155 -1.6519
19730SOL    HW271169   1.793   1.837   0.844 -2.0515  0.9600  0.1859
19731SOL     OW71170   0.559   2.282   8.130  0.1734 -0.5854 -0.1498
19731SOL    HW171171   0.502   2.319   8.197  1.2095  0.3997  0.2141
19731SOL    HW271172   0.647   2.299   8.161  0.6778 -1.2238 -1.1690
19732SOL     OW71173   8.970   9.322   0.459  0.3219 -0.5620 -0.1359
19732SOL    HW171174   8.943   9.361   0.542  2.8113  1.3685 -0.1320
19732SOL    HW271175   8.911   9.360   0.394 -0.8470 -1.1515  0.5375
19733SOL     OW71176   3.573   7.993   5.558 -0.1413 -0.0311 -0.4976
19733SOL    HW171177   3.577   7.930   5.486  0.6000  0.0739 -0.5534
19733SOL    HW271178   3.543   8.074   5.519  1.9678  0.5305 -1.0605
19734SOL     OW71179   2.857   6.389   9.317 -0.2512 -0.4060  0.0257
19734SOL    HW171180   2.860   6.469   9.264  0.0583  0.8647  1.8606
19734SOL    HW271181   2.815   6.416   9.398 -0.1929 -2.1459  0.6685
19735SOL     OW71182   8.013   8.093   5.483 -0.4447 -0.2300 -0.1237
19735SOL    HW171183   8.072   8.112   5.410 -1.6319  0.2100 -1.0085
19735SOL    HW271184   7.984   8.003   5.468  0.7895 -0.8219  0.9010
19736SOL     OW71185   6.777   9.756   6.877 -0.3530 -0.0543  0.0964
19736SOL    HW171186   6.700   9.753   6.934 -1.2722  0.5520 -1.0652
19736SOL    HW271187   6.745   9.723   6.793  1.2021 -1.8540  0.1390
19737SOL     OW71188   5.180  10.181   3.069  0.0656  0.3225 -0.5753
19737SOL    HW171189   5.201  10.131   3.148  1.2915  0.8312 -0.5529
19737SOL    HW271190   5.210  10.270   3.088 -2.7716  1.3296 -0.3104
19738SOL     OW71191   6.866   0.433   8.549  0.4027 -0.1989  0.3268
19738SOL    HW171192   6.939   0.452   8.607  0.2471 -1.4559  0.9739
19738SOL    HW271193   6.820   0.360   8.591 -0.0761 -0.7380 -1.0616
19739SOL     OW71194   0.004   3.835   3.537  0.0485  0.0441  0.3306
19739SOL    HW171195   0.030   3.747   3.510  2.5555  1.4989 -2.6227
19739SOL    HW271196   0.086   3.879   3.560 -1.0490  1.8255  1.0694
19740SOL     OW71197   7.432   6.748   3.618  0.1209  0.1026 -0.4043
19740SOL    HW171198   7.356   6.747   3.676  1.5811 -0.4697  1.5942
19740SOL    HW271199   7.432   6.835   3.579  1.0153  1.8742  3.1973
19741SOL     OW71200   2.755   0.434   4.159 -0.5112  0.3587 -0.7243
19741SOL    HW171201   2.742   0.469   4.247  0.7721  3.2992 -1.5861
19741SOL    HW271202   2.842   0.393   4.162 -0.3931  0.6128 -0.6520
19742SOL     OW71203   0.125   6.070   9.458 -0.7401 -0.1348 -0.3828
19742SOL    HW171204   0.158   6.036   9.542 -0.7077  1.2107  0.1816
19742SOL    HW271205   0.154   6.006   9.393  0.7742 -0.3192  0.4184
19743SOL     OW71206   3.033   7.307   7.556 -0.4725 -0.0906 -0.6771
19743SOL    HW171207   3.023   7.213   7.539 -0.9991 -0.3992  1.0776
19743SOL    HW271208   2.947   7.345   7.539 -1.1697 -0.4955  1.5525
19744SOL     OW71209   8.783   6.786   3.373 -0.4645  0.6370 -0.4102
19744SOL    HW171210   8.803   6.808   3.282 -0.8348  2.0689 -0.1625
19744SOL    HW271211   8.691   6.759   3.371  0.0746 -1.3588 -0.7664
19745SOL     OW71212   5.592   7.928   4.215 -0.5225  0.5541 -0.2272
19745SOL    HW171213   5.568   7.971   4.297  0.3685  2.2621 -0.8133
19745SOL    HW271214   5.509   7.917   4.168 -0.9497  0.1889  0.5814
19746SOL     OW71215   3.232   7.685   6.558  0.1672 -0.0717  0.4876
19746SOL    HW171216   3.224   7.640   6.642  1.8362  0.0540  0.7477
19746SOL    HW271217   3.310   7.647   6.518  0.6968  1.4451  0.0066
19747SOL     OW71218   5.780   8.764   9.695 -0.6520  0.7543 -0.2180
19747SOL    HW171219   5.703   8.809   9.730 -0.2749  1.6792 -0.5359
19747SOL    HW271220   5.833   8.743   9.773 -2.2747 -2.0454  0.2663
19748SOL     OW71221   4.531   5.690   8.045  0.1810  0.4123 -0.2635
19748SOL    HW171222   4.590   5.639   7.988 -0.5606 -1.8108  0.8361
19748SOL    HW271223   4.465   5.724   7.985  1.2874  1.0210 -1.1894
19749SOL     OW71224   5.482   7.029   4.225  0.3425 -0.3243 -0.2280
19749SOL    HW171225   5.490   7.050   4.318  1.5589  1.1615 -0.6265
19749SOL    HW271226   5.391   7.050   4.204  0.7112  1.7623  0.0966
19750SOL     OW71227   4.327   4.192   6.522  0.2498 -0.3753 -0.1969
19750SOL    HW171228   4.260   4.260   6.519  0.4925 -0.1339 -0.1859
19750SOL    HW271229   4.304   4.132   6.451  0.7075  0.3490 -0.9722
19751SOL     OW71230   7.538   3.977   6.001 -0.1786  0.3355 -0.5617
19751SOL    HW171231   7.605   4.041   5.979  1.0593 -1.3439 -2.0441
19751SOL    HW271232   7.525   3.927   5.920 -2.1462 -0.3697  0.1197
19752SOL     OW71233  10.043   2.462   0.615  0.4707  0.3900 -0.1849
19752SOL    HW171234  10.003   2.378   0.640 -0.7766  1.1359  0.4571
19752SOL    HW271235  10.077   2.447   0.527  2.7906 -1.6094  0.9374
19753SOL     OW71236   5.393   5.022   6.585  0.1686 -0.1633  0.0870
19753SOL    HW171237   5.381   4.951   6.648  0.2810 -0.5294 -0.2997
19753SOL    HW271238   5.463   4.991   6.528 -0.0920  0.0628 -0.3596
19754SOL     OW71239   1.964   7.352   8.695 -0.0926  0.6523 -0.1369
19754SOL    HW171240   1.896   7.332   8.759 -0.0764 -0.5457 -0.4639
19754SOL    HW271241   1.926   7.326   8.611  0.1653  1.5004 -0.5224
19755SOL     OW71242   5.719   9.792   6.708 -0.4489  0.1411 -0.2827
19755SOL    HW171243   5.761   9.765   6.626 -1.0483 -2.1084  0.0966
19755SOL    HW271244   5.789   9.787   6.773 -0.8295 -1.9583  0.0315
19756SOL     OW71245   9.803   4.893   7.378  0.2257 -0.1605 -0.5218
19756SOL    HW171246   9.714   4.918   7.356  0.2132  1.2634  0.9399
19756SOL    HW271247   9.858   4.938   7.313 -0.1054 -1.1674 -1.5184
19757SOL     OW71248   4.973   2.781   9.470  0.2526 -0.3861 -0.1574
19757SOL    HW171249   5.001   2.697   9.435  3.1219  0.7628 -0.9471
19757SOL    HW271250   4.992   2.776   9.564 -2.9884 -1.7836  0.5514
19758SOL     OW71251  10.197   7.944   3.720 -0.1795  0.0153  0.4382
19758SOL    HW171252  10.229   7.975   3.635  0.4903 -0.6468  0.4409
19758SOL    HW271253  10.109   7.911   3.702 -0.0279 -0.1559 -0.0094
19759SOL     OW71254   1.610   0.568   3.408  0.6220  0.7263 -0.1098
19759SOL    HW171255   1.542   0.631   3.433  1.1080  1.7342 -1.2048
19759SOL    HW271256   1.562   0.491   3.378 -0.0062  0.8592  0.5294
19760SOL     OW71257   8.547   4.988   8.630 -0.2550  0.0851  0.0353
19760SOL    HW171258   8.629   4.978   8.678  0.2389  0.3984 -0.7420
19760SOL    HW271259   8.495   4.913   8.657 -0.7040  1.1554  2.4488
19761SOL     OW71260   8.399   0.206   9.544  0.0355  0.3792 -0.0409
19761SOL    HW171261   8.479   0.184   9.495  0.3080  0.6751  0.2693
19761SOL    HW271262   8.381   0.297   9.520 -0.5938  0.1018 -0.6395
19762SOL     OW71263   7.776   4.389   9.545 -0.4056  0.1279 -0.3895
19762SOL    HW171264   7.794   4.396   9.638  2.3169 -0.3077 -0.8002
19762SOL    HW271265   7.748   4.298   9.532 -1.1444  0.2848  0.0039
19763SOL     OW71266   9.798   3.484   6.970 -0.0456  0.9527 -0.8497
19763SOL    HW171267   9.815   3.418   6.902 -0.5454  1.0208 -1.0409
19763SOL    HW271268   9.875   3.541   6.967 -0.1192  1.0263 -1.4373
19764SOL     OW71269  10.084   0.650   7.943  0.0327  0.2442  0.3807
19764SOL    HW171270  10.152   0.583   7.939 -0.3851 -0.1984  0.5324
19764SOL    HW271271  10.007   0.608   7.904  0.0230  0.9622 -0.4003
19765SOL     OW71272   1.717   0.889   9.712  0.5013  0.0558  0.3663
19765SOL    HW171273   1.696   0.875   9.804  2.2695  0.4649  0.8722
19765SOL    HW271274   1.681   0.975   9.692 -2.3856 -1.1454 -0.1959
19766SOL     OW71275   3.506   0.412   3.225  0.3236  0.2373 -0.3816
19766SOL    HW171276   3.528   0.342   3.164  2.4018  0.8243 -0.3808
19766SOL    HW271277   3.415   0.395   3.249  0.6654 -2.2831 -0.5943
19767SOL     OW71278   8.246   9.697   2.021  0.1263  0.5717  0.1511
19767SOL    HW171279   8.225   9.632   2.089 -1.1526  2.2994  1.4852
19767SOL    HW271280   8.331   9.732   2.047  1.0878 -0.8565 -0.8725
19768SOL     OW71281   3.514   4.582   2.077  0.0561 -0.5049 -0.0299
19768SOL    HW171282   3.503   4.526   2.153 -0.9748 -0.6764 -0.2876
19768SOL    HW271283   3.447   4.650   2.087  2.6827  2.1184  1.4596
19769SOL     OW71284   0.677   3.455   3.478 -0.2098 -0.1708  0.1632
19769SOL    HW171285   0.736   3.396   3.524 -0.8920 -0.8827  0.1463
19769SOL    HW271286   0.611   3.398   3.438  0.5303  0.3950 -1.9978
19770SOL     OW71287   7.052   1.689   4.804 -0.1545  0.0064 -0.0852
19770SOL    HW171288   6.977   1.708   4.862  0.6721 -2.2408  1.9001
19770SOL    HW271289   7.014   1.690   4.716 -2.4194 -0.4094  0.7924
19771SOL     OW71290   7.460   1.750   2.951 -0.2384  0.5299  0.5602
19771SOL    HW171291   7.370   1.760   2.922 -1.2509 -0.2415  3.1857
19771SOL    HW271292   7.484   1.661   2.923 -0.6368  0.3679  0.7303
19772SOL     OW71293   1.142   0.827   8.361 -0.3568 -0.6740  0.4604
19772SOL    HW171294   1.202   0.799   8.292  1.5091  1.8901  0.9112
19772SOL    HW271295   1.163   0.919   8.376 -2.0886 -0.5888  3.0445
19773SOL     OW71296   2.718   0.997   1.859 -0.3971 -0.0831  0.1805
19773SOL    HW171297   2.765   1.080   1.862  0.8443 -0.7829  0.9346
19773SOL    HW271298   2.654   1.003   1.930  1.0686 -0.5183  1.6149
19774SOL     OW71299   7.388   7.532   8.700  0.6012  0.3135 -1.0752
19774SOL    HW171300   7.304   7.576   8.692  0.9481  0.8702 -1.8391
19774SOL    HW271301   7.399   7.518   8.793 -0.0679  0.7743 -0.9162
19775SOL     OW71302   1.596   2.354   0.898  0.5284  0.4339 -0.1170
19775SOL    HW171303   1.664   2.287   0.892  0.8758  0.8215 -0.5780
19775SOL    HW271304   1.640   2.435   0.874  0.6347  1.2142  2.4584
19776SOL     OW71305   0.007   9.157   9.086 -0.4476 -1.0068  0.1460
19776SOL    HW171306   0.081   9.153   9.147 -0.7487 -1.7225  0.4833
19776SOL    HW271307  -0.059   9.100   9.126 -0.2421 -2.3769 -1.3966
19777SOL     OW71308   1.557   3.702   1.683 -0.2986 -0.3583 -0.2309
19777SOL    HW171309   1.558   3.731   1.592 -2.6935 -0.5899 -0.4109
19777SOL    HW271310   1.602   3.617   1.682 -0.7192 -0.5830 -1.2995
19778SOL     OW71311   0.992   8.359   3.373 -0.0208  0.1648 -0.4064
19778SOL    HW171312   0.902   8.365   3.340 -0.0614 -0.2689 -0.3740
19778SOL    HW271313   0.981   8.342   3.467  0.0961 -0.5151 -0.5166
19779SOL     OW71314   4.602   2.755   8.555  0.0266  0.8010 -0.3337
19779SOL    HW171315   4.629   2.837   8.513  0.2023  0.9983  0.1526
19779SOL    HW271316   4.506   2.760   8.557  0.0718  1.7764  1.1766
19780SOL     OW71317   3.578   8.529   5.355 -0.3241  0.0468  0.1403
19780SOL    HW171318   3.493   8.508   5.316  0.3217 -0.3037 -1.1155
19780SOL    HW271319   3.576   8.624   5.365 -1.4608 -0.0910  1.5957
19781SOL     OW71320   9.212   2.536   9.080  0.0483 -0.0255  0.8907
19781SOL    HW171321   9.252   2.546   8.994  0.4474 -1.0187  0.9394
19781SOL    HW271322   9.153   2.610   9.089  0.0838  0.1405 -0.1926
19782SOL     OW71323   8.384   1.375   8.319 -0.3138  0.0031 -0.0132
19782SOL    HW171324   8.372   1.281   8.330  0.4994 -0.3214 -1.4656
19782SOL    HW271325   8.310   1.415   8.363 -2.1340 -1.4430 -1.6019
19783SOL     OW71326   2.447   2.773   4.497 -0.1549  0.9904 -0.5824
19783SOL    HW171327   2.436   2.801   4.406 -4.4454  0.3219 -0.4686
19783SOL    HW271328   2.384   2.825   4.546 -0.0567 -0.7388  1.5293
19784SOL     OW71329   0.735   0.361   6.686 -0.2124  0.3522  0.0735
19784SOL    HW171330   0.677   0.373   6.611  0.5275 -0.4247 -0.6348
19784SOL    HW271331   0.824   0.370   6.651  0.1700 -0.7667  0.7011
19785SOL     OW71332   8.790   4.197   3.959  0.6551  0.2826 -0.0135
19785SOL    HW171333   8.851   4.160   3.895  0.7313  0.6446 -0.1543
19785SOL    HW271334   8.835   4.275   3.991 -0.3896  1.4226 -1.2456
19786SOL     OW71335   7.714   7.988   0.828 -0.0193 -0.2809 -0.0754
19786SOL    HW171336   7.770   8.056   0.864  0.1007 -0.1265 -0.5442
19786SOL    HW271337   7.744   7.907   0.869  0.8552 -0.2647 -0.6614
19787SOL     OW71338   8.337   1.926   1.537 -0.3277 -0.4521  0.2907
19787SOL    HW171339   8.249   1.892   1.517  0.5615 -3.3563  0.9231
19787SOL    HW271340   8.395   1.878   1.480  0.9611  1.0592  0.2602
19788SOL     OW71341   6.663   3.911   5.699  0.2870 -0.2134 -0.1323
19788SOL    HW171342   6.650   3.901   5.793 -0.3620 -2.4375 -0.3966
19788SOL    HW271343   6.738   3.855   5.679  0.8478  0.7640 -0.8679
19789SOL     OW71344   8.215   4.050   5.468  0.5315 -0.4642  0.3632
19789SOL    HW171345   8.300   4.008   5.458 -0.4617 -2.7027  0.8462
19789SOL    HW271346   8.202   4.055   5.563  0.7456  1.2754  0.3303
19790SOL     OW71347   0.239   8.209   3.452  0.5033  0.3037  0.0872
19790SOL    HW171348   0.263   8.208   3.545  0.0212  1.1621  0.2259
19790SOL    HW271349   0.149   8.241   3.450  0.3413 -0.1534 -0.6496
19791SOL     OW71350   5.994   5.755   8.259 -0.6149 -0.2068  0.0978
19791SOL    HW171351   6.070   5.772   8.315 -1.3080  0.5299  0.8421
19791SOL    HW271352   5.923   5.738   8.321 -1.2445 -0.0533 -0.5799
19792SOL     OW71353   7.472   7.595   5.577 -0.0858  0.3901 -0.2782
19792SOL    HW171354   7.412   7.568   5.507  0.7415  1.5087 -1.4864
19792SOL    HW271355   7.439   7.680   5.605  0.0881  0.3385  0.0816
19793SOL     OW71356   2.004   6.600   4.933 -0.2577  0.0052 -0.3715
19793SOL    HW171357   1.979   6.689   4.955 -0.1771  0.1593 -0.9022
19793SOL    HW271358   1.964   6.546   5.002  0.4285  0.5244  0.4585
19794SOL     OW71359   7.968   4.860  10.104 -0.6327 -0.9142  0.6629
19794SOL    HW171360   7.941   4.796  10.038 -0.0193 -1.8585  1.3196
19794SOL    HW271361   7.899   4.926  10.102 -0.6834 -0.9684 -0.8503
19795SOL     OW71362   9.511   9.244   7.731  0.4112 -0.4763 -0.2328
19795SOL    HW171363   9.439   9.265   7.672 -0.1187 -2.3552 -0.3285
19795SOL    HW271364   9.513   9.148   7.732  2.6011 -0.4720  0.1517
19796SOL     OW71365   7.116   7.549   9.641 -0.8915 -0.2188  0.0735
19796SOL    HW171366   7.200   7.553   9.686 -0.8895  1.5999 -0.0395
19796SOL    HW271367   7.054   7.588   9.703 -1.0434  1.4856 -1.0957
19797SOL     OW71368   7.653   4.302   6.455  0.3795  0.4507 -0.5142
19797SOL    HW171369   7.658   4.335   6.545 -0.6506  0.3826 -0.4186
19797SOL    HW271370   7.574   4.342   6.420  0.3938 -0.0828 -1.1681
19798SOL     OW71371   9.676   0.570   6.328 -1.1067 -0.5542 -0.8742
19798SOL    HW171372   9.680   0.563   6.423  0.2982 -1.1516 -0.9523
19798SOL    HW271373   9.627   0.492   6.300  3.2626 -3.6717 -0.9005
19799SOL     OW71374   4.159   7.879   2.575 -0.1231 -0.5997 -0.2931
19799SOL    HW171375   4.245   7.878   2.617 -1.4937  3.1116  3.3295
19799SOL    HW271376   4.101   7.836   2.638 -1.4858  0.4557 -0.7727
19800SOL     OW71377   6.125   5.736   6.556 -0.2113 -0.0459 -0.3954
19800SOL    HW171378   6.125   5.831   6.554 -0.7236  0.0230  1.2912
19800SOL    HW271379   6.074   5.710   6.478 -0.3861  1.0501 -0.6600
19801SOL     OW71380   3.530   4.035   5.665 -0.2851  0.0984  0.1837
19801SOL    HW171381   3.513   3.969   5.732  1.7920  0.3286  1.0002
19801SOL    HW271382   3.498   4.117   5.704 -0.0150  0.0636  0.4869
19802SOL     OW71383   6.716   7.038   7.192 -0.6690  0.3428  0.2747
19802SOL    HW171384   6.751   6.993   7.268  1.4625  1.6567  0.1548
19802SOL    HW271385   6.702   6.969   7.127  1.7453 -0.3221  0.3625
19803SOL     OW71386   4.176   4.250   3.655  0.1328 -0.0980  0.2285
19803SOL    HW171387   4.262   4.273   3.620  0.6213 -3.2016 -0.8599
19803SOL    HW271388   4.115   4.305   3.606  1.2818  0.1024 -1.0357
19804SOL     OW71389   2.935   7.864   1.116  0.6505 -0.4152  0.0388
19804SOL    HW171390   2.968   7.905   1.036 -0.1534  1.1221  0.4708
19804SOL    HW271391   3.013   7.855   1.171  0.7512  1.1757  0.2000
19805SOL     OW71392  10.148   5.970   9.011  0.3585 -0.1127 -0.3100
19805SOL    HW171393  10.206   5.894   9.018  0.2384 -0.1077  0.9545
19805SOL    HW271394  10.063   5.933   8.988  0.1416 -0.4502  0.9720
19806SOL     OW71395   7.874   2.368  10.061 -0.1820 -0.4985 -0.3540
19806SOL    HW171396   7.962   2.330  10.064 -0.0381 -0.1031  1.4559
19806SOL    HW271397   7.832   2.339  10.142 -1.4730 -0.0671 -0.8346
19807SOL     OW71398   3.039   2.494   2.801 -0.1093  0.4885 -0.4474
19807SOL    HW171399   3.016   2.429   2.735  1.2779  1.3373 -1.8273
19807SOL    HW271400   2.997   2.462   2.881 -1.4555 -0.8106 -1.6091
19808SOL     OW71401   7.251   4.590   9.362  0.0240  0.0676 -0.1043
19808SOL    HW171402   7.166   4.547   9.374 -0.0260 -0.2242 -1.3025
19808SOL    HW271403   7.232   4.666   9.307  0.3203  0.8862  0.8918
19809SOL     OW71404   9.592   5.838   2.604  0.5516  0.0630  0.1956
19809SOL    HW171405   9.641   5.829   2.686 -0.3985  1.6072  0.9727
19809SOL    HW271406   9.603   5.930   2.580 -0.3253 -0.0507 -0.6859
19810SOL     OW71407   1.596   1.187   5.491 -0.0842  0.3092  0.3834
19810SOL    HW171408   1.614   1.203   5.584 -0.9899  0.5819  0.5172
19810SOL    HW271409   1.504   1.160   5.489 -0.6032  2.0726 -0.6318
19811SOL     OW71410   1.193   6.206   6.806 -0.1120 -0.8873  0.0874
19811SOL    HW171411   1.257   6.142   6.839  1.8911  0.1581 -1.5270
19811SOL    HW271412   1.240   6.289   6.805 -1.9103  0.1906 -0.0670
19812SOL     OW71413   1.214   5.516   7.845 -0.6324  0.0876 -0.0013
19812SOL    HW171414   1.203   5.609   7.829 -3.5276  0.0064  0.9154
19812SOL    HW271415   1.301   5.508   7.883  0.7622  2.0054 -2.5289
19813SOL     OW71416   3.315   4.431   6.761 -0.6476  0.1662 -0.3097
19813SOL    HW171417   3.339   4.348   6.803 -0.8541 -0.2635 -1.0192
19813SOL    HW271418   3.373   4.496   6.801  1.2000 -0.7060 -1.4460
19814SOL     OW71419  10.066   9.299   6.670 -0.0835  0.2222  0.3520
19814SOL    HW171420  10.122   9.256   6.605  1.8509  2.9968  0.0111
19814SOL    HW271421  10.052   9.232   6.737  1.6773 -1.3209 -0.7233
19815SOL     OW71422   4.982   8.521   6.668  0.0204  0.0183 -0.0976
19815SOL    HW171423   4.893   8.546   6.644  1.3978  3.4785 -2.4125
19815SOL    HW271424   4.996   8.561   6.753 -0.1873  0.8240 -0.4325
19816SOL     OW71425  10.288   6.523   3.573  0.0404 -0.3454 -0.0901
19816SOL    HW171426  10.239   6.463   3.517 -1.3062  1.0132 -0.4450
19816SOL    HW271427  10.259   6.501   3.662  0.3208 -0.8686 -0.1218
19817SOL     OW71428   9.580   8.094   7.478  0.2782 -0.0480  0.1095
19817SOL    HW171429   9.656   8.096   7.420 -0.7579 -1.6819 -1.3768
19817SOL    HW271430   9.517   8.154   7.438 -0.2603 -0.8175 -0.2034
19818SOL     OW71431   1.389   4.783   4.538  0.0776 -0.6542 -0.4939
19818SOL    HW171432   1.296   4.760   4.534 -0.1611  0.3816 -1.4972
19818SOL    HW271433   1.429   4.713   4.591 -1.5165 -0.2781  1.3205
19819SOL     OW71434   0.043   3.210   4.008  0.2427 -0.2757  0.5449
19819SOL    HW171435   0.073   3.157   4.081  2.7926  1.7395  1.1190
19819SOL    HW271436   0.083   3.296   4.022 -1.0542  0.8897 -2.0091
19820SOL     OW71437   7.419   1.054   8.268 -0.1987  0.3294 -0.0781
19820SOL    HW171438   7.427   1.013   8.182 -0.1592  1.2173 -0.5190
19820SOL    HW271439   7.404   0.982   8.329 -0.2644 -0.3061 -0.8366
19821SOL     OW71440   9.531   8.354   3.737  0.1816  0.0206 -0.5968
19821SOL    HW171441   9.471   8.287   3.704  0.0366  0.2877 -0.8761
19821SOL    HW271442   9.616   8.311   3.741  0.0238 -0.2828 -0.4477
19822SOL     OW71443   3.953   6.805   3.848 -0.7042 -0.6877  0.0684
19822SOL    HW171444   4.036   6.842   3.817  0.5448 -1.5868  2.1373
19822SOL    HW271445   3.895   6.881   3.856 -0.3993 -0.1400 -2.1373
19823SOL     OW71446   2.234   2.752   3.860  0.1835 -0.2405 -0.5379
19823SOL    HW171447   2.168   2.738   3.928  1.5669 -0.7917  0.7371
19823SOL    HW271448   2.277   2.834   3.885  1.1563 -0.7955 -0.3148
19824SOL     OW71449   0.691   1.237   0.957 -0.1889  0.1808  0.3287
19824SOL    HW171450   0.668   1.330   0.967 -0.0304  0.2557 -0.0002
19824SOL    HW271451   0.624   1.203   0.897 -0.0880  0.1430  0.2390
19825SOL     OW71452   5.984   8.903   3.151 -0.4211  0.3791 -0.0688
19825SOL    HW171453   5.918   8.972   3.153  0.4036  1.2094  1.7018
19825SOL    HW271454   5.950   8.835   3.209 -0.1882  0.3553  0.0428
19826SOL     OW71455   9.125   3.863   7.098  0.0388  0.2330  0.2792
19826SOL    HW171456   9.073   3.896   7.025  1.5422  1.4206 -0.3123
19826SOL    HW271457   9.211   3.843   7.059  0.4368 -0.4540  1.4523
19827SOL     OW71458   1.942   6.351   7.318  0.2067  0.4630  0.2971
19827SOL    HW171459   1.872   6.414   7.331 -0.8175 -0.6292  0.3259
19827SOL    HW271460   1.944   6.301   7.399 -0.6480 -1.0700 -0.5672
19828SOL     OW71461   5.637   1.092   6.234 -0.5682 -0.6861  0.0640
19828SOL    HW171462   5.683   1.013   6.263  1.3133 -0.1208 -1.2055
19828SOL    HW271463   5.707   1.153   6.211 -1.9445  1.8804  2.2001
19829SOL     OW71464   2.783   3.703   3.147  0.2538 -0.4558  0.1896
19829SOL    HW171465   2.710   3.642   3.150  0.3260 -0.4978  1.7968
19829SOL    HW271466   2.850   3.658   3.095 -0.3395 -0.9825 -0.1300
19830SOL     OW71467   2.977   0.583  10.002 -0.1804  0.1655 -0.6015
19830SOL    HW171468   2.963   0.554  10.092 -1.9457 -0.4215 -1.0059
19830SOL    HW271469   2.972   0.503   9.950 -0.6945  0.6607 -1.3468
19831SOL     OW71470   8.169   2.834   4.805  0.0711  0.7724 -0.0673
19831SOL    HW171471   8.240   2.792   4.756  0.7889  3.8542 -1.9593
19831SOL    HW271472   8.214   2.888   4.870 -0.7528 -0.3916  1.5098
19832SOL     OW71473   9.431   9.385   5.703  0.1084  0.2565  0.1180
19832SOL    HW171474   9.489   9.384   5.626 -0.0991  0.0592 -0.0362
19832SOL    HW271475   9.473   9.327   5.766 -0.3068 -0.4887 -0.2805
19833SOL     OW71476   7.590   9.569   1.162  0.1829  0.1032 -0.5662
19833SOL    HW171477   7.609   9.555   1.255  1.2869  1.0343 -0.6270
19833SOL    HW271478   7.496   9.555   1.154 -0.4195  2.5365  1.1971
19834SOL     OW71479   9.078   7.476  10.128 -0.1373  0.0993 -0.7192
19834SOL    HW171480   9.079   7.572  10.129  0.6957  0.1008  0.5745
19834SOL    HW271481   9.130   7.452  10.052 -1.3150  0.6544 -1.7412
19835SOL     OW71482   9.902   7.008   4.690 -0.5682  0.0676 -0.4135
19835SOL    HW171483   9.936   7.040   4.607 -0.4070  0.6544 -0.1294
19835SOL    HW271484   9.890   6.914   4.677  4.7764 -1.1064  0.5186
19836SOL     OW71485   9.761  10.201   5.321  0.2499  0.1575 -0.0313
19836SOL    HW171486   9.845  10.198   5.367  1.0930  0.4593 -1.4607
19836SOL    HW271487   9.748  10.294   5.301 -1.5900  0.4413  2.1217
19837SOL     OW71488   0.871   3.742   7.254 -0.4851 -0.0084 -0.3236
19837SOL    HW171489   0.887   3.823   7.206 -0.5992 -0.4467 -1.1280
19837SOL    HW271490   0.939   3.739   7.321 -0.8050  1.0113  0.0725
19838SOL     OW71491   8.225   5.849   8.232 -0.3761 -0.2659 -0.6533
19838SOL    HW171492   8.137   5.857   8.195  0.5136  0.7436 -2.7398
19838SOL    HW271493   8.211   5.817   8.321 -2.9986  1.8253 -0.1663
19839SOL     OW71494   0.095   2.834  10.310  0.4138  0.1517 -0.2114
19839SOL    HW171495   0.027   2.778  10.273  1.0298 -0.3686 -0.5792
19839SOL    HW271496   0.151   2.857  10.235 -0.1522  1.7552 -0.1852
19840SOL     OW71497   5.670   0.864   0.145  0.0125 -0.0045  0.3867
19840SOL    HW171498   5.650   0.771   0.155 -2.3828  0.5534  1.5063
19840SOL    HW271499   5.686   0.875   0.051  0.5542 -1.5799  0.2777
19841SOL     OW71500   3.995   2.525   9.944  0.2547 -0.1223 -0.3482
19841SOL    HW171501   4.011   2.436   9.911  0.3552 -0.7182  1.1875
19841SOL    HW271502   4.073   2.545   9.995  0.0312  0.6792 -0.3115
19842SOL     OW71503   6.829   1.793   5.695  0.3595 -0.2517 -0.2493
19842SOL    HW171504   6.765   1.721   5.695  1.5664 -1.3537 -0.8714
19842SOL    HW271505   6.854   1.803   5.604 -0.5601  1.7191 -0.3428
19843SOL     OW71506  10.263   5.538   0.428  0.3475 -0.0244  0.4986
19843SOL    HW171507  10.228   5.573   0.346  3.8128 -1.0610 -1.6742
19843SOL    HW271508  10.239   5.445   0.427 -0.1642  0.1004  1.0121
19844SOL     OW71509   9.392   5.416   7.780  0.0119 -0.9040  0.1837
19844SOL    HW171510   9.438   5.336   7.754 -0.8784 -1.2397 -0.4223
19844SOL    HW271511   9.456   5.486   7.766  1.1407 -1.5829  1.6394
19845SOL     OW71512   8.428   0.424   5.571 -0.2675 -0.0160 -0.2772
19845SOL    HW171513   8.521   0.429   5.594 -0.1197 -1.0810 -0.6003
19845SOL    HW271514   8.422   0.469   5.487 -0.1023  0.2987 -0.1250
19846SOL     OW71515   0.853   3.692   4.183  0.0334  0.2485  0.5032
19846SOL    HW171516   0.806   3.612   4.159  0.3368  0.0857  0.4508
19846SOL    HW271517   0.937   3.662   4.216  0.7369  0.6130 -0.8832
19847SOL     OW71518   0.327   5.997   5.331 -0.0635  0.3905  0.4740
19847SOL    HW171519   0.363   5.978   5.417  1.3210  3.1157  0.5988
19847SOL    HW271520   0.233   5.983   5.340  0.3106 -1.8142  1.6490
19848SOL     OW71521   1.002   2.283   7.908 -0.0092  0.3591  0.0442
19848SOL    HW171522   1.006   2.264   8.002 -1.3267  0.6677  0.1770
19848SOL    HW271523   1.015   2.378   7.903  1.2468  0.1983 -0.2034
19849SOL     OW71524   2.161   0.123   6.383  0.1539 -0.5424  0.1397
19849SOL    HW171525   2.171   0.109   6.477 -1.3311 -1.4702  0.2015
19849SOL    HW271526   2.069   0.147   6.372  0.7555  1.5770 -0.8917
19850SOL     OW71527   4.617   6.134   8.092 -0.3454  0.0119 -0.4855
19850SOL    HW171528   4.630   6.229   8.089  2.0796 -0.1651  1.3026
19850SOL    HW271529   4.705   6.099   8.100 -1.3012 -2.2894  0.8181
19851SOL     OW71530   1.376   0.169   4.820 -0.1641 -0.3306  0.3689
19851SOL    HW171531   1.310   0.228   4.784  0.8031 -0.0926 -1.1584
19851SOL    HW271532   1.453   0.225   4.833 -0.1017 -0.6965  1.6204
19852SOL     OW71533   0.736   6.832   5.196  0.0823 -0.0695  0.5526
19852SOL    HW171534   0.769   6.916   5.166  0.5698 -0.9210 -1.5281
19852SOL    HW271535   0.683   6.800   5.122  0.6085 -1.9381  0.9227
19853SOL     OW71536   0.257   3.358   2.018 -0.1244 -0.4743 -0.5216
19853SOL    HW171537   0.219   3.325   1.937 -0.2969 -0.8623 -0.2825
19853SOL    HW271538   0.230   3.450   2.021 -0.6408 -0.6237 -0.5923
19854SOL     OW71539   7.238   7.702   9.163  0.1957 -0.2233  0.3899
19854SOL    HW171540   7.235   7.723   9.070  1.2828 -1.0316  0.1496
19854SOL    HW271541   7.176   7.762   9.204 -0.9636 -0.4462 -0.9646
19855SOL     OW71542   9.607   1.191   7.905 -1.3282  0.6293 -0.0079
19855SOL    HW171543   9.700   1.195   7.880 -0.8385 -1.7541  1.1683
19855SOL    HW271544   9.588   1.278   7.940  1.0064  0.6414  1.4150
19856SOL     OW71545   8.693   8.750   0.250 -0.4590  0.1488  0.0110
19856SOL    HW171546   8.711   8.834   0.291  0.2412  0.1599 -0.3082
19856SOL    HW271547   8.601   8.733   0.269 -0.9014  1.5043 -0.8840
19857SOL     OW71548   4.769   8.568   9.950 -0.5780  0.1589  0.3024
19857SOL    HW171549   4.779   8.619   9.870 -1.2142 -0.5816 -0.2709
19857SOL    HW271550   4.804   8.481   9.927  0.3165  0.2687  1.1974
19858SOL     OW71551   9.697   1.523   9.056  0.0337 -0.3500  0.1650
19858SOL    HW171552   9.788   1.525   9.087  0.0365 -0.5764  0.1760
19858SOL    HW271553   9.705   1.500   8.963  0.0245  0.3353 -0.0089
19859SOL     OW71554   4.754   9.409   2.806  0.0565  0.7998  0.4051
19859SOL    HW171555   4.767   9.315   2.794  1.2861  0.8786  0.8974
19859SOL    HW271556   4.685   9.432   2.744  0.2337 -0.3010 -0.2373
19860SOL     OW71557   1.390   4.471   6.038 -0.3599  0.1663  0.0826
19860SOL    HW171558   1.350   4.387   6.015  1.0387 -0.8696  1.2168
19860SOL    HW271559   1.335   4.506   6.107 -1.2714  0.4757 -0.7837
19861SOL     OW71560   0.573   4.874   2.850 -0.5116 -0.0507 -0.1382
19861SOL    HW171561   0.553   4.864   2.943  1.8614  0.5593  0.4938
19861SOL    HW271562   0.589   4.967   2.839 -1.4996  0.0025 -1.3576
19862SOL     OW71563   3.358   3.786   1.328 -0.3927 -0.0995 -0.0019
19862SOL    HW171564   3.315   3.841   1.393  0.2736 -0.5263  0.8250
19862SOL    HW271565   3.441   3.830   1.311 -0.3887 -0.2078 -0.2642
19863SOL     OW71566   6.293   9.999   6.551  0.1972 -0.0793 -0.0241
19863SOL    HW171567   6.241   9.923   6.523 -0.1624 -0.3092  1.1685
19863SOL    HW271568   6.232  10.072   6.551  0.2618 -0.0251 -0.0995
19864SOL     OW71569   8.999   3.981   5.032  0.0521  0.6367  0.3805
19864SOL    HW171570   8.930   3.916   5.015 -1.1727  2.0088 -0.0213
19864SOL    HW271571   8.999   3.991   5.127 -0.0498  0.3793  0.4097
19865SOL     OW71572   4.237   4.515   8.365  0.3754 -0.0360 -0.1165
19865SOL    HW171573   4.258   4.483   8.453 -1.2215 -0.6879  0.0683
19865SOL    HW271574   4.298   4.470   8.307  0.5917 -0.5845  0.5351
19866SOL     OW71575   9.312   8.291   7.788  0.0094 -0.0291  0.4068
19866SOL    HW171576   9.392   8.271   7.836 -0.3087 -1.2294  0.4755
19866SOL    HW271577   9.342   8.336   7.709  0.6014  1.1615  1.2753
19867SOL     OW71578   1.023   1.093   3.974  0.1423  0.5881 -0.4171
19867SOL    HW171579   1.006   1.152   4.047  1.6193 -0.1247  0.5520
19867SOL    HW271580   0.939   1.085   3.929 -1.3666 -0.5448  2.3733
19868SOL     OW71581   5.194   9.534   6.705 -0.7019  0.3328  0.7344
19868SOL    HW171582   5.236   9.543   6.791 -0.3321 -1.0450  0.7322
19868SOL    HW271583   5.142   9.454   6.713  1.0208 -1.0502 -0.9481
19869SOL     OW71584   2.288   2.521   6.726 -0.0616  0.5413 -0.1133
19869SOL    HW171585   2.361   2.460   6.736 -0.2878  0.4096  0.9002
19869SOL    HW271586   2.310   2.593   6.786 -0.2461  1.0072 -0.6074
19870SOL     OW71587   8.022   1.198   5.969  0.2165  0.2024  0.2756
19870SOL    HW171588   8.106   1.242   5.980  0.2626  0.8041 -1.9500
19870SOL    HW271589   7.958   1.270   5.964 -0.0743 -0.1145 -0.6617
19871SOL     OW71590   4.494   9.188   5.298  0.0255 -0.2805 -0.0599
19871SOL    HW171591   4.493   9.193   5.202 -0.6978  0.2270 -0.0271
19871SOL    HW271592   4.530   9.101   5.316 -1.9133 -1.2914 -0.8306
19872SOL     OW71593   7.273   1.017   0.529  0.2205 -0.2375 -0.0732
19872SOL    HW171594   7.368   1.026   0.527  0.1930  0.1264 -2.1785
19872SOL    HW271595   7.258   0.926   0.554  1.1896 -0.7487 -1.2569
19873SOL     OW71596   6.251   3.610   6.594 -0.4144 -0.2416  0.3985
19873SOL    HW171597   6.296   3.569   6.668  1.4133 -1.4051 -1.2388
19873SOL    HW271598   6.210   3.536   6.548  0.3653  0.1402 -0.9450
19874SOL     OW71599   6.573   8.408   2.820 -0.1149 -0.0154  0.2780
19874SOL    HW171600   6.605   8.498   2.826  0.9340 -0.4578  2.0609
19874SOL    HW271601   6.480   8.414   2.840 -0.2368  0.7700 -0.4952
19875SOL     OW71602   2.063   0.535   0.468  0.2382  0.2424 -0.3620
19875SOL    HW171603   2.007   0.462   0.492  0.0749  0.8220  1.1378
19875SOL    HW271604   2.005   0.610   0.463  0.7461  0.7050  0.4563
19876SOL     OW71605   8.364   9.660   8.320  0.1094  0.4439  0.3074
19876SOL    HW171606   8.287   9.637   8.268 -0.2315 -1.3494  1.5100
19876SOL    HW271607   8.343   9.745   8.358 -1.6069 -0.3032  1.1462
19877SOL     OW71608   4.527  10.016   7.977  0.5675 -0.0433 -0.1486
19877SOL    HW171609   4.583   9.943   7.949  1.5089  0.4341  0.4354
19877SOL    HW271610   4.491  10.051   7.896  1.0125 -0.4440 -0.5283
19878SOL     OW71611   9.579   4.058   6.699  0.4121  0.4042 -0.6165
19878SOL    HW171612   9.601   4.055   6.606  1.0584  0.6583 -0.4791
19878SOL    HW271613   9.662   4.043   6.744 -0.2628 -1.9812 -0.0551
19879SOL     OW71614   9.350   4.527   5.984  0.5510  0.3994  0.6337
19879SOL    HW171615   9.266   4.528   5.937 -0.6083 -0.7318  2.5336
19879SOL    HW271616   9.338   4.462   6.053  2.6168  1.0273  1.6685
19880SOL     OW71617   9.113  10.209   9.646  0.4474  0.2134  0.2899
19880SOL    HW171618   9.098  10.299   9.615  2.0809  1.0866  1.9073
19880SOL    HW271619   9.037  10.190   9.701 -0.1220  0.4056 -0.4019
19881SOL     OW71620  10.238   7.254   3.905 -0.2741 -0.3133  1.0063
19881SOL    HW171621  10.215   7.162   3.893  1.6729 -0.6325 -0.9376
19881SOL    HW271622  10.241   7.290   3.816 -0.9532  1.6394  1.7186
19882SOL     OW71623   1.399   8.041   9.887  0.0302  0.5284 -0.0555
19882SOL    HW171624   1.489   8.066   9.866  0.2698 -2.8451 -4.7085
19882SOL    HW271625   1.404   7.947   9.907 -2.2236  0.8433  2.6138
19883SOL     OW71626   5.911   1.737   6.435 -0.2402 -0.7464  0.5258
19883SOL    HW171627   5.850   1.724   6.507 -0.2539  2.3041  1.1760
19883SOL    HW271628   5.986   1.782   6.474 -0.0504  0.5976 -1.2247
19884SOL     OW71629   0.148   1.801   4.420 -0.1213 -0.0052  0.0492
19884SOL    HW171630   0.114   1.772   4.504  0.5239  0.7202  0.5747
19884SOL    HW271631   0.112   1.738   4.356  0.7430 -1.5910  1.0565
19885SOL     OW71632   7.659  10.020   4.220  0.2398  0.4332 -0.2193
19885SOL    HW171633   7.652  10.115   4.218  0.8158  0.4737 -0.4310
19885SOL    HW271634   7.576   9.991   4.258 -0.0400  1.0053 -0.3787
19886SOL     OW71635   0.439   8.008   6.540 -0.3172 -0.3219 -0.2196
19886SOL    HW171636   0.389   7.932   6.568 -1.6660  0.9989  1.1024
19886SOL    HW271637   0.463   8.053   6.620  0.9187  0.3994 -0.9534
19887SOL     OW71638   9.972  10.214   2.605  0.1455 -0.3258 -0.0260
19887SOL    HW171639  10.044  10.274   2.584  0.2062 -0.1586  0.6500
19887SOL    HW271640   9.893  10.263   2.584  0.1628  0.3688  1.4536
19888SOL     OW71641   5.771   2.376   8.746 -0.2442 -0.2119  0.0308
19888SOL    HW171642   5.793   2.289   8.714 -0.2741  0.0727 -0.7764
19888SOL    HW271643   5.687   2.396   8.706  0.4190  0.7618 -0.9326
19889SOL     OW71644   9.469   8.249   4.257  0.2140  0.2221 -0.6490
19889SOL    HW171645   9.375   8.251   4.274  0.2803  0.2893 -0.2808
19889SOL    HW271646   9.507   8.215   4.337  0.5898  1.2139 -0.3931
19890SOL     OW71647   3.378   0.551   8.701 -0.1671 -0.7798 -0.1711
19890SOL    HW171648   3.303   0.554   8.761 -0.8797 -1.1319 -1.0221
19890SOL    HW271649   3.449   0.515   8.753 -1.1982 -2.6210  0.0480
19891SOL     OW71650   8.659   3.958   7.617 -0.5211 -0.0656  0.2306
19891SOL    HW171651   8.564   3.954   7.620 -0.6045 -0.4100 -1.6517
19891SOL    HW271652   8.681   3.946   7.524  1.2991  1.1754  0.4373
19892SOL     OW71653   6.265   3.083   9.791 -0.0819  0.0368 -0.1323
19892SOL    HW171654   6.337   3.059   9.733  1.7499  2.6762  0.8208
19892SOL    HW271655   6.198   3.118   9.733  0.3423 -0.3822 -0.8876
19893SOL     OW71656   1.537   7.272   4.756 -0.1279  0.0890 -0.0104
19893SOL    HW171657   1.472   7.264   4.687 -0.6036  1.2158  0.2775
19893SOL    HW271658   1.492   7.318   4.827  0.7581  0.2162  0.4918
19894SOL     OW71659   8.069   3.275   6.498  0.0232 -0.5662  0.2260
19894SOL    HW171660   7.991   3.327   6.517 -0.4289 -1.4387  0.8048
19894SOL    HW271661   8.112   3.322   6.426 -1.5252 -0.5880 -0.7473
19895SOL     OW71662   5.281   4.861   5.938  0.3296 -0.1101  0.3001
19895SOL    HW171663   5.306   4.793   5.876 -0.7862  0.1490 -0.4620
19895SOL    HW271664   5.284   4.942   5.888  4.0504  0.8812  1.7782
19896SOL     OW71665   3.204   7.645   9.446  0.2694  0.6434 -0.3657
19896SOL    HW171666   3.206   7.669   9.353  0.8020 -0.4724 -0.6543
19896SOL    HW271667   3.271   7.577   9.455 -0.6636 -0.1849  0.5671
19897SOL     OW71668   8.019   3.612   2.389 -0.3289  0.1230  0.1642
19897SOL    HW171669   8.076   3.548   2.432  1.3371  1.9881  0.8675
19897SOL    HW271670   8.079   3.672   2.344 -1.7728  1.5430  0.0369
19898SOL     OW71671   8.241   0.890   9.369  0.4793 -0.4242  0.6391
19898SOL    HW171672   8.316   0.901   9.312 -1.8130  1.3857 -2.2831
19898SOL    HW271673   8.194   0.814   9.333 -0.3756 -0.0204  0.8699
19899SOL     OW71674   0.769   1.806   0.305 -0.5119  0.2844  0.1622
19899SOL    HW171675   0.768   1.895   0.269  0.5634  0.2367 -0.0242
19899SOL    HW271676   0.681   1.773   0.288 -0.2528  0.4997 -1.8666
19900SOL     OW71677   7.188   1.278   2.361 -0.6138  0.0193  0.6091
19900SOL    HW171678   7.180   1.184   2.379  0.7805 -0.4073 -0.7879
19900SOL    HW271679   7.282   1.297   2.371 -0.8437  1.2314  0.6519
19901SOL     OW71680   9.416   5.775   9.465 -0.2346  0.0958 -0.3700
19901SOL    HW171681   9.469   5.755   9.389  0.3578  0.2003  0.0098
19901SOL    HW271682   9.479   5.792   9.535 -0.7487 -1.1145  0.4416
19902SOL     OW71683   0.673  10.279   9.215  0.3384 -0.3942 -0.5330
19902SOL    HW171684   0.659  10.330   9.135 -0.5418 -1.0817 -0.8478
19902SOL    HW271685   0.585  10.261   9.248  0.5966 -1.8513 -0.5466
19903SOL     OW71686   7.797   2.359   5.030  0.6613 -0.4285  0.2819
19903SOL    HW171687   7.865   2.293   5.041 -0.9066 -1.9137  1.6050
19903SOL    HW271688   7.750   2.332   4.951  0.9786  0.0363 -0.0738
19904SOL     OW71689   0.850   1.615   9.333  0.1347  0.8002 -0.1718
19904SOL    HW171690   0.903   1.639   9.409 -1.0783  0.3693  0.8450
19904SOL    HW271691   0.908   1.560   9.280  0.9380  0.9448  0.5368
19905SOL     OW71692   2.895   4.506   9.099  0.0044 -0.6952  0.4272
19905SOL    HW171693   2.844   4.429   9.072 -1.4635  0.6852 -1.0087
19905SOL    HW271694   2.954   4.522   9.025 -0.6397  0.2899  0.0990
19906SOL     OW71695   8.643  10.260   9.339 -0.5784 -0.1638 -0.0519
19906SOL    HW171696   8.583  10.244   9.266 -0.0792 -2.6795  0.0029
19906SOL    HW271697   8.593  10.234   9.417 -0.1199 -0.3182  0.1933
19907SOL     OW71698   0.694   2.919  10.168  0.1568 -0.2574  0.3608
19907SOL    HW171699   0.748   2.847  10.136  0.0294 -0.0282 -0.3875
19907SOL    HW271700   0.747   2.997  10.154  0.6834 -0.2876  2.0607
19908SOL     OW71701   3.191  10.099   6.479 -0.4475  0.2635 -0.2495
19908SOL    HW171702   3.154  10.023   6.435  0.8010 -0.9668  0.7424
19908SOL    HW271703   3.115  10.151   6.504 -1.3896 -1.1170 -0.1447
19909SOL     OW71704   3.114   5.099   2.704 -0.3711 -0.4937 -0.0537
19909SOL    HW171705   3.208   5.118   2.698 -0.5264 -0.0495 -1.3881
19909SOL    HW271706   3.107   5.008   2.676 -0.6845  0.5124 -3.6666
19910SOL     OW71707   3.244   7.508   1.939 -0.1285 -0.3248  0.3636
19910SOL    HW171708   3.216   7.597   1.915 -2.4931 -1.1364 -0.1183
19910SOL    HW271709   3.332   7.500   1.901  0.5941  2.1261  1.3056
19911SOL     OW71710   0.564   3.707   0.808 -0.0651 -0.2054 -0.5722
19911SOL    HW171711   0.489   3.711   0.868  0.8401 -1.2142  0.6747
19911SOL    HW271712   0.612   3.788   0.824  1.3403 -1.3814  1.7406
19912SOL     OW71713   0.608   7.361   8.590 -0.4195  0.2030  0.2527
19912SOL    HW171714   0.702   7.346   8.602 -0.3842  1.3175  1.8030
19912SOL    HW271715   0.603   7.434   8.528 -0.2812 -0.2070 -0.2424
19913SOL     OW71716   8.900   4.732   3.475 -0.0765 -0.1923  0.6432
19913SOL    HW171717   8.836   4.688   3.419 -2.9281  2.3337  1.5896
19913SOL    HW271718   8.875   4.708   3.564  1.2110 -0.2318  1.0113
19914SOL     OW71719   6.661   0.204   1.949 -0.0676  0.3689 -0.0787
19914SOL    HW171720   6.692   0.294   1.963 -1.5564  1.0112 -0.7084
19914SOL    HW271721   6.645   0.170   2.037 -0.7711  1.1962  0.1190
19915SOL     OW71722   8.895   6.251   4.719 -0.3788 -0.2144 -0.7607
19915SOL    HW171723   8.922   6.206   4.639  1.0599 -1.6359  0.4605
19915SOL    HW271724   8.836   6.319   4.689 -0.9669 -1.5696 -2.9137
19916SOL     OW71725   9.199   3.008   0.738  0.1005 -0.5564 -0.2442
19916SOL    HW171726   9.208   2.971   0.826 -0.8599  0.3069  0.2295
19916SOL    HW271727   9.270   3.072   0.731 -0.1977 -0.1770  0.1466
19917SOL     OW71728   3.447   6.008   4.785  0.0355  0.3204  0.5389
19917SOL    HW171729   3.435   5.913   4.783 -0.2811  0.3545  0.6669
19917SOL    HW271730   3.541   6.020   4.799  0.2051  0.0356 -0.2758
19918SOL     OW71731   9.872   2.799   0.660 -0.1915 -0.0567 -0.8996
19918SOL    HW171732   9.866   2.869   0.724  0.9821 -0.2826 -0.5330
19918SOL    HW271733   9.946   2.745   0.688  0.4536 -0.0831 -2.5047
19919SOL     OW71734   4.136   8.028   1.953 -0.1930 -0.0818 -1.1590
19919SOL    HW171735   4.202   7.978   2.000  0.5038  0.7831 -1.1870
19919SOL    HW271736   4.175   8.046   1.868  0.3398  2.0225 -0.5309
19920SOL     OW71737   4.461   4.250   6.952 -0.0616  0.1718 -0.0507
19920SOL    HW171738   4.443   4.274   7.043  0.1119  0.7707 -0.1715
19920SOL    HW271739   4.423   4.322   6.901 -0.6691 -0.4460 -0.4829
19921SOL     OW71740   3.721   5.671   8.699 -0.2846 -0.1521 -0.0529
19921SOL    HW171741   3.813   5.681   8.724  0.5846 -3.1985 -1.4595
19921SOL    HW271742   3.697   5.584   8.731 -2.3349  0.1260 -0.6969
19922SOL     OW71743   9.667   4.588   0.129 -0.3950 -0.9158  0.0525
19922SOL    HW171744   9.702   4.499   0.133  1.2755 -0.3099 -0.2009
19922SOL    HW271745   9.597   4.584   0.064 -1.1229 -2.2780  0.8948
19923SOL     OW71746   7.365   1.092   9.390  0.1770 -0.1381  0.7053
19923SOL    HW171747   7.390   1.171   9.343 -1.0693  1.4009  2.4888
19923SOL    HW271748   7.448   1.046   9.405  1.0232  1.1902  0.2313
19924SOL     OW71749   2.978   5.632   7.387 -0.9797  0.1243 -0.5381
19924SOL    HW171750   2.896   5.663   7.425 -0.6586 -1.2554  1.4455
19924SOL    HW271751   3.006   5.560   7.445  0.3942 -1.0513 -2.5189
19925SOL     OW71752   1.784   6.925   3.911  0.1260  0.0791 -0.5409
19925SOL    HW171753   1.757   7.017   3.917 -0.1121  0.0190 -0.6590
19925SOL    HW271754   1.715   6.883   3.858 -0.6957 -0.5232  0.9381
19926SOL     OW71755   9.363   2.114   1.398  0.2524  0.0379 -0.3392
19926SOL    HW171756   9.308   2.168   1.454 -0.3126 -0.1168 -0.7235
19926SOL    HW271757   9.448   2.157   1.396 -0.3054  1.1477 -0.9653
19927SOL     OW71758   7.906   7.280   6.414 -0.2792 -0.4881 -0.6399
19927SOL    HW171759   7.888   7.372   6.395  0.5836  0.1374  1.2485
19927SOL    HW271760   7.949   7.247   6.336 -0.4293  0.7805 -1.2845
19928SOL     OW71761  10.129   7.893   3.028  0.0967  0.1530  0.5580
19928SOL    HW171762  10.052   7.864   2.979  0.0884  1.2288 -0.0762
19928SOL    HW271763  10.174   7.954   2.970 -0.5526  2.4243  2.2953
19929SOL     OW71764   5.277   0.213   2.506  0.7506 -0.8224 -0.6112
19929SOL    HW171765   5.206   0.152   2.525  1.3430 -1.2921  0.1777
19929SOL    HW271766   5.350   0.156   2.479  1.0381 -0.3971 -0.7320
19930SOL     OW71767   4.307   2.475   0.415  0.3006 -0.3578  0.8937
19930SOL    HW171768   4.302   2.405   0.349  0.7735  0.1434  0.3117
19930SOL    HW271769   4.243   2.450   0.481 -0.9833 -0.3242 -0.2906
19931SOL     OW71770   8.817   8.339   0.160 -0.5079  0.3612 -0.1121
19931SOL    HW171771   8.815   8.249   0.126 -0.0064  0.5687 -0.7181
19931SOL    HW271772   8.854   8.390   0.088 -3.0401  1.4750 -0.7263
19932SOL     OW71773   7.385   9.530   5.763  0.1251  0.0831  0.8168
19932SOL    HW171774   7.393   9.453   5.706 -0.5942  0.0754  0.7216
19932SOL    HW271775   7.405   9.604   5.706 -2.2202  0.2254  0.0843
19933SOL     OW71776   0.790   9.112   6.362  0.0369 -0.3042  0.3496
19933SOL    HW171777   0.695   9.106   6.360  0.1103 -2.3613 -1.7655
19933SOL    HW271778   0.819   9.057   6.289  2.9271 -1.8268  2.4269
19934SOL     OW71779   7.504   0.274   9.884 -1.0535  0.3093  0.1878
19934SOL    HW171780   7.566   0.269   9.957  0.6643 -1.2775 -1.2990
19934SOL    HW271781   7.449   0.197   9.893  0.0193 -0.6125 -0.8827
19935SOL     OW71782   2.015   7.059   0.503 -0.3140  0.5308 -0.1860
19935SOL    HW171783   2.044   6.996   0.438  0.0303 -0.7581  1.1795
19935SOL    HW271784   1.921   7.068   0.488 -0.5630 -1.1146  0.2491
19936SOL     OW71785  10.272   5.652   4.860 -0.2727  0.8520 -0.6276
19936SOL    HW171786  10.234   5.734   4.829 -2.4160  0.1597 -0.0325
19936SOL    HW271787  10.260   5.655   4.955  0.5847  0.2951 -0.4923
19937SOL     OW71788   0.583   6.098   9.322 -0.7103  0.0142  0.3950
19937SOL    HW171789   0.545   6.010   9.321 -2.3007  0.6725 -0.0048
19937SOL    HW271790   0.513   6.154   9.355  0.0975  1.2265  0.1241
19938SOL     OW71791   4.180   6.270   9.007  0.1685 -0.5123  0.4635
19938SOL    HW171792   4.256   6.317   9.040  0.2705 -0.2343 -0.1708
19938SOL    HW271793   4.216   6.198   8.955  0.0008  0.3756 -0.9073
19939SOL     OW71794   7.648   0.885   7.248  0.0691  0.0599 -0.0830
19939SOL    HW171795   7.604   0.959   7.207 -0.0559 -0.6200 -1.2412
19939SOL    HW271796   7.636   0.813   7.186 -0.9025 -1.2828  1.5858
19940SOL     OW71797   5.275   9.710   5.041 -0.0162 -0.5251  0.6406
19940SOL    HW171798   5.296   9.684   4.952  0.3469  1.8574 -0.0207
19940SOL    HW271799   5.183   9.686   5.052  0.1783 -1.6465 -0.0331
19941SOL     OW71800   1.467   9.223   0.529  0.4139 -0.4828 -0.3734
19941SOL    HW171801   1.456   9.178   0.445 -0.7718 -2.6361  0.8353
19941SOL    HW271802   1.447   9.314   0.510 -1.4100 -1.1805 -2.1524
19942SOL     OW71803   6.313  10.040   5.274  0.2579  0.0334  0.6478
19942SOL    HW171804   6.239  10.060   5.217  1.4962 -2.1985 -1.9361
19942SOL    HW271805   6.390  10.049   5.218  1.6475 -1.2603  2.2441
19943SOL     OW71806   0.996   2.738   3.275 -0.2030  0.3691  0.0838
19943SOL    HW171807   0.981   2.750   3.369 -1.4721 -0.0832 -0.0488
19943SOL    HW271808   1.053   2.662   3.269  0.6845  0.9764  0.5173
19944SOL     OW71809   8.112   0.373   8.339 -0.2892  0.6833 -0.3142
19944SOL    HW171810   8.133   0.326   8.259  0.7211 -1.6147  1.1792
19944SOL    HW271811   8.175   0.444   8.342  0.9982 -0.4049 -0.6133
19945SOL     OW71812   1.864   9.314   7.299  0.0675 -0.7590  0.3791
19945SOL    HW171813   1.914   9.335   7.220  0.8192 -2.1039  0.4649
19945SOL    HW271814   1.927   9.323   7.370 -0.6551  0.6190  0.8674
19946SOL     OW71815   9.845   2.937   4.665  0.7094 -0.2045  0.3607
19946SOL    HW171816   9.867   2.865   4.724 -2.0352 -0.6785  0.9358
19946SOL    HW271817   9.816   3.008   4.723 -1.2702 -0.4043 -0.2961
19947SOL     OW71818   1.400   3.809   0.354 -0.4147  0.0721 -0.3445
19947SOL    HW171819   1.381   3.877   0.419  1.5280 -0.6690  1.0690
19947SOL    HW271820   1.316   3.767   0.339 -0.8930  0.0758  1.9271
19948SOL     OW71821   7.725   7.301   8.632 -0.4131  0.1804 -0.1661
19948SOL    HW171822   7.799   7.260   8.587  0.1560  1.2215 -0.2015
19948SOL    HW271823   7.720   7.255   8.716 -0.0250 -0.2120 -0.3499
19949SOL     OW71824   6.609   6.834   0.858 -0.1505 -0.4022 -0.3807
19949SOL    HW171825   6.610   6.764   0.923  0.9362 -2.0663 -2.0878
19949SOL    HW271826   6.517   6.843   0.832 -0.5381  0.0180  1.0417
19950SOL     OW71827   6.437   1.118   1.163  0.0497  0.1945 -0.1040
19950SOL    HW171828   6.410   1.184   1.099 -2.7995  0.8817  1.6172
19950SOL    HW271829   6.427   1.035   1.117  0.8711  0.7798 -1.4031
19951SOL     OW71830   7.362   5.523   8.311 -0.6930 -0.6135 -0.1020
19951SOL    HW171831   7.407   5.540   8.228 -0.0948  0.0385  0.3457
19951SOL    HW271832   7.311   5.602   8.328  1.1879  0.3958  1.3974
19952SOL     OW71833   6.917   2.455   0.195  0.2625  0.2179  0.0267
19952SOL    HW171834   6.949   2.416   0.114  0.2723 -0.4883  0.3629
19952SOL    HW271835   6.821   2.449   0.188  0.2738 -0.4948  0.3681
19953SOL     OW71836   8.220   2.722   5.293  0.9069  0.4378  0.2653
19953SOL    HW171837   8.131   2.731   5.329  0.7680 -0.9013  0.2725
19953SOL    HW271838   8.271   2.786   5.343  0.3682 -0.2239  1.7171
19954SOL     OW71839   2.942   6.416   5.382  0.0472  0.2716  0.0542
19954SOL    HW171840   2.877   6.425   5.311  0.5660  0.2156 -0.4316
19954SOL    HW271841   3.006   6.485   5.365  0.9129 -0.6039 -0.3283
19955SOL     OW71842   0.739   2.780   5.638  0.7253  0.3713 -0.2577
19955SOL    HW171843   0.679   2.708   5.659  1.3299 -0.1010 -0.1320
19955SOL    HW271844   0.826   2.745   5.657  0.9992  1.2794  0.2128
19956SOL     OW71845   5.712   6.047   8.729 -0.4684  0.2702 -0.5615
19956SOL    HW171846   5.743   6.073   8.815 -1.0262  1.2406 -0.6389
19956SOL    HW271847   5.646   5.980   8.746 -1.1905  1.0690 -0.1781
19957SOL     OW71848   0.608   0.528   4.484 -0.8443 -0.1474  0.3621
19957SOL    HW171849   0.702   0.545   4.481 -1.0371  1.6420  2.2602
19957SOL    HW271850   0.600   0.433   4.475  0.9825 -0.1846 -1.6646
19958SOL     OW71851   9.145   7.226   7.154  0.0710 -0.3696 -0.0775
19958SOL    HW171852   9.214   7.292   7.158 -0.2276 -0.1059  0.9158
19958SOL    HW271853   9.107   7.236   7.066 -1.2179  2.0616  0.6877
19959SOL     OW71854   4.549   6.376   8.827 -0.2362 -0.6438 -0.3044
19959SOL    HW171855   4.538   6.308   8.760 -0.7934 -2.3983  1.4678
19959SOL    HW271856   4.475   6.436   8.812  0.3800 -0.2436 -2.0283
19960SOL     OW71857   6.125  10.320   5.299  0.1483  0.2387  0.0194
19960SOL    HW171858   6.129  10.263   5.376  0.3906  0.6318  0.3015
19960SOL    HW271859   6.201  10.378   5.308  0.9437 -0.5699 -1.2029
19961SOL     OW71860   0.935   5.764   2.310  0.3349  0.8785  0.8116
19961SOL    HW171861   0.928   5.684   2.362 -1.7320  1.2718  1.1988
19961SOL    HW271862   0.995   5.820   2.360  1.0801 -0.0697  0.9961
19962SOL     OW71863   4.120   6.706   5.237  0.0835 -0.7323  0.7243
19962SOL    HW171864   4.024   6.704   5.244  0.0324 -0.5798  0.1193
19962SOL    HW271865   4.146   6.615   5.247  0.0531 -0.5511  3.0273
19963SOL     OW71866   4.981   6.550   4.323 -0.0164 -0.0764 -0.8990
19963SOL    HW171867   5.014   6.469   4.284  0.5366 -0.0580 -0.4711
19963SOL    HW271868   4.907   6.522   4.376 -0.7786 -0.1037 -1.9424
19964SOL     OW71869  10.130   3.675   5.447 -0.5230  0.1075 -0.1847
19964SOL    HW171870  10.099   3.620   5.376 -0.5893 -0.6131  0.3970
19964SOL    HW271871  10.051   3.713   5.486 -0.5357 -0.0810 -0.0271
19965SOL     OW71872   7.360   7.971   7.388  0.1538  0.5623 -0.2243
19965SOL    HW171873   7.452   7.991   7.369  0.3297  0.2357  0.2440
19965SOL    HW271874   7.365   7.897   7.449 -0.4108  0.8478  0.1678
19966SOL     OW71875   8.028   2.817   4.109 -0.6093  0.4720 -0.0415
19966SOL    HW171876   7.977   2.737   4.108  1.6717 -1.1139 -2.7984
19966SOL    HW271877   8.084   2.809   4.186 -1.6822  0.3534  0.7425
19967SOL     OW71878   1.089   2.129   5.861  0.0023  0.2748 -0.0210
19967SOL    HW171879   1.057   2.073   5.790 -2.3191  2.3386 -0.7572
19967SOL    HW271880   1.078   2.077   5.940 -0.0654 -1.0486 -0.8667
19968SOL     OW71881   4.022   2.568   9.477  0.2569  0.5362  0.0521
19968SOL    HW171882   3.935   2.594   9.445  0.7194 -0.9345 -2.6076
19968SOL    HW271883   4.007   2.483   9.520  0.6887 -1.1904 -2.9518
19969SOL     OW71884   1.390  10.164   9.542  0.7898 -0.0585  0.9171
19969SOL    HW171885   1.456  10.173   9.610  1.7929  0.3847 -0.0694
19969SOL    HW271886   1.440  10.157   9.461 -0.3727 -0.0578  0.1703
19970SOL     OW71887   9.720  10.264   9.924 -0.3101  0.2651 -0.1462
19970SOL    HW171888   9.694  10.202   9.856  1.2195 -1.6484  0.9011
19970SOL    HW271889   9.786  10.217   9.975  0.1279  2.3962  1.3874
19971SOL     OW71890   8.219   9.841   4.673 -0.5436 -0.0146 -0.6581
19971SOL    HW171891   8.202   9.781   4.600 -2.8591  0.4493 -0.5631
19971SOL    HW271892   8.242   9.783   4.746  2.5947 -0.4550 -1.8324
19972SOL     OW71893   4.354   9.327   1.168 -0.3379  0.3799 -0.2382
19972SOL    HW171894   4.326   9.257   1.109 -0.3472 -0.7357  1.0426
19972SOL    HW271895   4.447   9.311   1.181 -0.1852  1.0426 -0.4890
19973SOL     OW71896   4.618   7.900   4.730  0.1594  0.0862  0.3498
19973SOL    HW171897   4.689   7.842   4.757  0.0905 -0.2878 -0.2531
19973SOL    HW271898   4.625   7.904   4.634 -2.2310 -2.0855 -0.0130
19974SOL     OW71899   4.092   9.252   3.006  0.1153  0.2552 -0.1959
19974SOL    HW171900   4.071   9.225   3.095 -0.7880  0.9563 -0.1902
19974SOL    HW271901   4.188   9.254   3.004  0.2196  3.2628  1.7153
19975SOL     OW71902   6.266   8.565   7.778 -0.5002 -0.2537  0.1189
19975SOL    HW171903   6.181   8.593   7.744 -1.7671 -1.6047  1.9438
19975SOL    HW271904   6.280   8.620   7.856  0.7254  0.5166 -0.6174
19976SOL     OW71905   7.806   9.649   9.835 -0.5155 -0.1423 -0.0424
19976SOL    HW171906   7.744   9.680   9.768 -0.4124 -0.0760 -0.1070
19976SOL    HW271907   7.759   9.657   9.917 -0.0186  1.4964  0.1221
19977SOL     OW71908   3.135   1.036   7.185 -0.4803 -0.0440  0.4342
19977SOL    HW171909   3.093   0.974   7.126  1.5674 -1.6907  0.5936
19977SOL    HW271910   3.096   1.017   7.271 -1.0704  0.0826  0.2016
19978SOL     OW71911   6.811   7.147   6.601  0.2266 -0.0365  0.2370
19978SOL    HW171912   6.890   7.136   6.548 -0.2497  1.8031 -0.9360
19978SOL    HW271913   6.800   7.063   6.645  3.3311 -0.0697  1.1749
19979SOL     OW71914   5.235   0.027   0.263 -0.6756 -0.2392 -0.2075
19979SOL    HW171915   5.267   0.037   0.352  0.5582  0.6147 -0.7187
19979SOL    HW271916   5.278   0.097   0.214 -2.3666  0.1481 -1.2143
19980SOL     OW71917   9.128   4.568   3.830  0.4876 -0.0546  0.1003
19980SOL    HW171918   9.120   4.587   3.923  0.5590  0.3550  0.0235
19980SOL    HW271919   9.173   4.484   3.826 -1.0754 -0.9450  0.4840
19981SOL     OW71920   1.414   3.334   5.963  0.0479 -0.0069  0.8051
19981SOL    HW171921   1.324   3.364   5.947  0.1158 -0.3286 -0.2379
19981SOL    HW271922   1.458   3.410   6.002  0.7401  2.0646 -3.4229
19982SOL     OW71923   9.584   3.769   8.629  0.2107  0.3854 -0.4619
19982SOL    HW171924   9.656   3.784   8.691  0.7679  0.8110 -1.1993
19982SOL    HW271925   9.543   3.688   8.660  0.7218  0.3790  0.2316
19983SOL     OW71926   3.634   7.711   4.718 -0.1629  0.1966 -0.1366
19983SOL    HW171927   3.646   7.663   4.800 -0.0874  0.3301 -0.0691
19983SOL    HW271928   3.619   7.643   4.653 -0.1214  0.0837 -0.0294
19984SOL     OW71929   4.860   6.795   4.365 -0.3511 -0.4179  0.2120
19984SOL    HW171930   4.896   6.711   4.338  2.8652  0.3070  1.8042
19984SOL    HW271931   4.887   6.805   4.456  1.3938  3.2473 -0.5286
19985SOL     OW71932   1.148   6.117   9.051 -0.8889  0.8818  0.4105
19985SOL    HW171933   1.189   6.185   8.998 -0.6461  0.1268 -0.3899
19985SOL    HW271934   1.111   6.056   8.987 -2.4563  1.0483  1.1090
19986SOL     OW71935   0.707   7.318   7.926  0.5750 -0.8105 -0.4729
19986SOL    HW171936   0.664   7.401   7.906  1.4502 -0.1793  0.1393
19986SOL    HW271937   0.637   7.253   7.926 -0.6534  0.3912  1.8303
19987SOL     OW71938  10.337   0.883   9.607 -0.2308  0.2529  0.8790
19987SOL    HW171939  10.424   0.913   9.579 -0.2869 -2.2183 -2.7291
19987SOL    HW271940  10.281   0.961   9.600  1.3262  1.4838  1.5695
19988SOL     OW71941  10.111   0.930   5.302  0.1340  0.3474  0.4619
19988SOL    HW171942  10.098   0.992   5.230  0.7705 -0.9211 -0.7814
19988SOL    HW271943  10.193   0.886   5.281  1.0926  0.9275  2.7312
19989SOL     OW71944   3.735   9.749   3.101 -0.3803  0.3809  0.0656
19989SOL    HW171945   3.689   9.668   3.124  0.3101 -0.6026 -1.7713
19989SOL    HW271946   3.701   9.772   3.014  3.5773 -1.3401 -2.1967
19990SOL     OW71947   1.684   9.002   4.652  0.0194  0.5252 -0.4358
19990SOL    HW171948   1.763   9.053   4.673 -0.7097  1.8596 -0.8030
19990SOL    HW271949   1.703   8.965   4.565  1.3781 -1.5933  0.6909
19991SOL     OW71950   1.425   7.632   1.100 -0.3308  0.5290  0.0303
19991SOL    HW171951   1.369   7.587   1.037 -0.2143  1.5272 -0.7971
19991SOL    HW271952   1.365   7.655   1.172 -1.0205  1.6285 -0.8637
19992SOL     OW71953   9.739   7.377   4.809 -0.7300 -0.0572 -0.0050
19992SOL    HW171954   9.714   7.385   4.901  1.3841 -0.1901  0.6251
19992SOL    HW271955   9.813   7.317   4.809  1.1604  2.0816 -1.4021
19993SOL     OW71956   2.471   6.234   8.590 -0.3772  0.2600 -0.2453
19993SOL    HW171957   2.417   6.165   8.552  1.7581 -1.2830 -0.6832
19993SOL    HW271958   2.545   6.242   8.529 -0.0205  2.1941  0.3773
19994SOL     OW71959   9.817   9.928   1.400  0.5716  0.0091  0.1141
19994SOL    HW171960   9.755  10.001   1.410  0.0255 -0.6049  1.4351
19994SOL    HW271961   9.898   9.970   1.372  0.3088  1.1531  0.9808
19995SOL     OW71962   0.578   5.367   3.637 -0.1580  0.7067 -0.2281
19995SOL    HW171963   0.517   5.367   3.711  0.0160 -0.0741 -0.0655
19995SOL    HW271964   0.579   5.275   3.609  2.1677  0.3430  0.8222
19996SOL     OW71965   8.899   6.761   4.738 -0.5236 -0.4008 -0.1942
19996SOL    HW171966   8.934   6.677   4.767 -0.4844 -0.8685 -1.5228
19996SOL    HW271967   8.874   6.746   4.647 -1.0026  0.8865 -0.2926
19997SOL     OW71968   2.278   8.760   1.820  0.0957  0.2216  0.3144
19997SOL    HW171969   2.282   8.814   1.898  1.2172 -0.2543  0.6103
19997SOL    HW271970   2.334   8.685   1.840  1.6029  0.7933 -1.4672
19998SOL     OW71971   9.138   8.117   7.112  0.6489  0.3174  0.1414
19998SOL    HW171972   9.121   8.029   7.076 -2.3935  1.3667 -1.3435
19998SOL    HW271973   9.167   8.168   7.037  1.1078  0.9048  0.7106
19999SOL     OW71974   3.198   9.586   6.323  0.3520  0.5248 -0.2502
19999SOL    HW171975   3.232   9.597   6.235 -0.1683  0.6853 -0.4334
19999SOL    HW271976   3.265   9.625   6.380  0.5569  0.6677 -0.5888
20000SOL     OW71977   7.510   0.255   8.452  0.8239  0.1549 -0.1621
20000SOL    HW171978   7.529   0.336   8.500  0.6469 -0.1011  0.3413
20000SOL    HW271979   7.528   0.185   8.514 -0.9582 -0.1390  0.0978
20001SOL     OW71980   9.298   2.063   4.537  0.4190  0.1588 -0.1940
20001SOL    HW171981   9.332   2.124   4.471  0.2875  0.4221 -0.0164
20001SOL    HW271982   9.288   1.980   4.489  0.8259  0.2093 -0.3776
20002SOL     OW71983   2.380   7.589   5.242  0.3621  0.0422  0.2459
20002SOL    HW171984   2.312   7.631   5.295  0.5205  0.2225  0.3051
20002SOL    HW271985   2.347   7.593   5.153  0.9217  1.3826  0.0797
20003SOL     OW71986   1.900   1.020   1.900 -0.1604  0.0065 -0.0574
20003SOL    HW171987   1.831   1.004   1.836  0.4790 -1.2117 -0.4752
20003SOL    HW271988   1.924   1.111   1.888  1.0926 -0.5926 -2.7204
20004SOL     OW71989   2.283   4.276   7.562 -0.3683  0.4604 -0.2655
20004SOL    HW171990   2.238   4.196   7.589  1.5625 -0.3741  0.6623
20004SOL    HW271991   2.267   4.338   7.633 -1.9375  0.9643 -1.0250
20005SOL     OW71992   2.300   8.803   9.930  0.3446 -0.2370  0.1518
20005SOL    HW171993   2.286   8.767  10.017  0.7557  1.1614  0.8274
20005SOL    HW271994   2.385   8.847   9.936  0.1701  0.2495 -0.8196
20006SOL     OW71995   6.417   1.765   2.342 -0.0365 -0.3750 -0.0022
20006SOL    HW171996   6.479   1.698   2.371 -0.9852 -0.8137  1.0722
20006SOL    HW271997   6.381   1.729   2.260 -0.4875 -1.1688  0.5257
20007SOL     OW71998   6.809   0.803   8.266  0.0157  0.2804 -0.1643
20007SOL    HW171999   6.801   0.823   8.173  1.5519 -0.1296 -0.4164
20007SOL    HW272000   6.901   0.817   8.285 -0.3171  0.5332  1.3541
20008SOL     OW72001   2.858   1.344   7.023 -0.5814 -0.0424 -0.4235
20008SOL    HW172002   2.874   1.358   6.930  0.2226  1.0806 -0.1410
20008SOL    HW272003   2.942   1.363   7.065 -0.5673 -1.7815  0.4424
20009SOL     OW72004   6.798   0.307   2.932  0.0951 -0.8031 -0.6552
20009SOL    HW172005   6.752   0.313   2.848  1.2948 -0.6523 -1.3208
20009SOL    HW272006   6.889   0.328   2.911  0.1679  0.6882  0.9304
20010SOL     OW72007   4.223   5.419   7.318  0.0234  0.2203  0.3113
20010SOL    HW172008   4.279   5.379   7.252 -1.9023  2.1808 -2.7404
20010SOL    HW272009   4.197   5.503   7.281 -2.8561  0.5446  2.6498
20011SOL     OW72010   1.597   2.983   3.682  0.3539 -0.0255  0.3998
20011SOL    HW172011   1.547   3.061   3.706 -0.4513 -0.5867  0.5757
20011SOL    HW272012   1.650   2.965   3.760 -1.6046 -1.3247  1.5167
20012SOL     OW72013   9.102   2.146   8.971 -0.1736  0.4588  0.0725
20012SOL    HW172014   9.029   2.118   9.026  0.1742  1.3429  1.0189
20012SOL    HW272015   9.133   2.066   8.928  0.1733 -0.4376  1.9245
20013SOL     OW72016   0.410   6.620   2.626 -0.3330  0.2307 -0.1637
20013SOL    HW172017   0.395   6.706   2.666 -1.0999  0.1164 -0.1849
20013SOL    HW272018   0.432   6.639   2.535 -0.3244  0.4143 -0.1241
20014SOL     OW72019   2.811   2.406   6.896 -0.1697 -0.7976 -0.1683
20014SOL    HW172020   2.756   2.397   6.974  0.9082 -1.8874  0.4983
20014SOL    HW272021   2.823   2.501   6.886 -1.3154 -0.5907  0.2673
20015SOL     OW72022   7.331   1.666   9.486  0.0436 -0.6030 -0.6304
20015SOL    HW172023   7.321   1.571   9.482 -1.5658 -0.4688 -0.3676
20015SOL    HW272024   7.415   1.679   9.530 -0.6831 -1.9252  1.3099
20016SOL     OW72025   9.600   7.789   4.937  0.6550 -0.2715  0.3973
20016SOL    HW172026   9.682   7.796   4.986  1.7557  1.0634 -1.5075
20016SOL    HW272027   9.566   7.879   4.934 -0.2117 -0.5994  0.0431
20017SOL     OW72028   3.524   4.582   6.655 -0.1833 -0.1179  0.1502
20017SOL    HW172029   3.516   4.533   6.572 -0.2470 -0.6905  0.4894
20017SOL    HW272030   3.619   4.589   6.669 -0.1581 -1.4249  0.8297
20018SOL     OW72031   9.000   1.585   6.667  0.0694 -0.2374  0.2864
20018SOL    HW172032   9.024   1.492   6.673  0.9631 -0.0426 -0.1519
20018SOL    HW272033   8.937   1.589   6.595 -2.0618 -0.8891  2.0034
20019SOL     OW72034   6.200   8.719   8.523 -0.0554 -0.1517  0.3182
20019SOL    HW172035   6.153   8.638   8.546 -0.0985 -0.3159 -0.3391
20019SOL    HW272036   6.213   8.713   8.429  1.5778 -0.2630  0.5217
20020SOL     OW72037   9.420  10.129   8.565 -0.6559  0.3705 -0.0391
20020SOL    HW172038   9.355  10.169   8.507 -0.7720  0.8999  0.4429
20020SOL    HW272039   9.498  10.182   8.552  0.0007 -0.8322 -1.3245
20021SOL     OW72040   8.457   8.269   5.711  0.1796 -0.2696 -0.1174
20021SOL    HW172041   8.430   8.177   5.716  1.3255 -0.6633 -0.8027
20021SOL    HW272042   8.412   8.311   5.784 -0.1321 -1.4357  0.3857
20022SOL     OW72043   8.617   7.245   1.690 -0.5507 -0.1654 -0.0611
20022SOL    HW172044   8.713   7.240   1.692 -0.5955 -0.7084  1.2463
20022SOL    HW272045   8.593   7.199   1.610  0.2738 -0.2211 -0.2905
20023SOL     OW72046   1.620   4.289   0.577  0.2059  0.8365  0.9410
20023SOL    HW172047   1.554   4.257   0.515 -0.4188  0.9179  1.5411
20023SOL    HW272048   1.692   4.227   0.569  0.6243  1.4864 -0.6752
20024SOL     OW72049   8.617   4.489   9.479  0.1799  0.0732  0.1656
20024SOL    HW172050   8.685   4.461   9.417  0.4119  0.3395  0.2929
20024SOL    HW272051   8.536   4.488   9.428 -0.2261 -2.8597  0.7058
20025SOL     OW72052   2.062   9.891   1.994  0.3912  0.4037  0.0265
20025SOL    HW172053   2.026   9.980   1.991  1.8966  1.0521  0.3094
20025SOL    HW272054   2.141   9.899   2.048  0.7658 -1.0357 -0.2765
20026SOL     OW72055   1.970   4.896   5.388 -0.0048 -0.3407 -0.3384
20026SOL    HW172056   1.962   4.962   5.457 -1.7642  0.5582 -1.3149
20026SOL    HW272057   1.884   4.855   5.385 -0.2245  0.1183 -2.4085
20027SOL     OW72058   2.795   8.180   6.287 -0.1018  0.1034  0.4889
20027SOL    HW172059   2.836   8.093   6.287 -1.8565 -0.7891 -0.8852
20027SOL    HW272060   2.832   8.224   6.212  1.4833  0.9480  1.7127
20028SOL     OW72061   5.566  10.386   0.944  0.2141 -0.0454  0.0453
20028SOL    HW172062   5.604  10.472   0.925  1.6215 -0.7870 -0.6406
20028SOL    HW272063   5.494  10.378   0.881  0.3516  0.4559 -0.1878
20029SOL     OW72064   3.429   1.393   5.604 -0.1216 -0.2175 -0.1888
20029SOL    HW172065   3.500   1.409   5.666  0.1891  1.4061 -0.9134
20029SOL    HW272066   3.460   1.319   5.551  0.1692 -0.7666  0.7206
20030SOL     OW72067   5.313   2.987   7.673  0.0896  0.3953 -0.0641
20030SOL    HW172068   5.393   2.946   7.639  0.8793  2.0925 -0.3612
20030SOL    HW272069   5.335   3.011   7.763  0.6996  2.7140 -0.7709
20031SOL     OW72070   8.822   7.220   4.367  0.5329  0.2606 -0.5334
20031SOL    HW172071   8.799   7.311   4.351  1.3282  0.5339 -0.1403
20031SOL    HW272072   8.780   7.172   4.294  1.0937  1.0720 -1.4117
20032SOL     OW72073   2.178   6.504   7.527  0.4093  0.2724  0.3406
20032SOL    HW172074   2.115   6.436   7.547  1.2978 -0.4663  0.6877
20032SOL    HW272075   2.176   6.511   7.431 -1.0965  1.1538  0.4098
20033SOL     OW72076   0.819   4.360   0.802 -0.6326 -0.0449 -0.1625
20033SOL    HW172077   0.881   4.415   0.755 -0.0062 -0.9607 -0.4379
20033SOL    HW272078   0.849   4.362   0.893 -1.4155  1.1416  0.0899
20034SOL     OW72079   7.515   7.101  10.153 -0.0775  0.0165  0.1330
20034SOL    HW172080   7.520   7.144  10.239 -0.1422  0.7537 -0.2235
20034SOL    HW272081   7.421   7.094  10.135 -0.0771  1.9786 -0.8903
20035SOL     OW72082   2.753   9.132   9.624  0.3499 -0.1566  0.9044
20035SOL    HW172083   2.768   9.101   9.713  2.1828  1.5506  1.2650
20035SOL    HW272084   2.828   9.189   9.605 -0.4560  0.2593 -1.3993
20036SOL     OW72085   7.464   1.312   9.009 -0.1238 -0.7633  0.4893
20036SOL    HW172086   7.368   1.308   9.008 -0.1921  0.2658 -1.3892
20036SOL    HW272087   7.492   1.260   8.934  0.7932 -0.8180  0.8488
20037SOL     OW72088   8.588   6.725   1.386 -0.6150 -0.3094  0.7479
20037SOL    HW172089   8.663   6.681   1.344 -1.7646 -1.5318 -0.1241
20037SOL    HW272090   8.547   6.774   1.315 -0.3935  0.7164  1.3250
20038SOL     OW72091   1.873   9.708   1.190  0.4316 -0.1262 -0.1424
20038SOL    HW172092   1.809   9.718   1.120  0.6241  0.4340 -0.2447
20038SOL    HW272093   1.845   9.630   1.238 -0.1153 -0.0938 -0.4069
20039SOL     OW72094   6.279  10.259   3.707 -0.1814  0.4313 -0.5631
20039SOL    HW172095   6.185  10.246   3.717 -0.0694  0.2864  0.4813
20039SOL    HW272096   6.318  10.177   3.738  0.3412  1.1832  0.9039
20040SOL     OW72097   3.688   5.590   5.268  0.0199 -0.4805 -0.6553
20040SOL    HW172098   3.592   5.591   5.263 -0.0983 -1.7852  0.7561
20040SOL    HW272099   3.712   5.500   5.245  0.9910  0.0406 -1.8155
20041SOL     OW72100   2.788   0.249   0.723 -0.2372  0.0464  0.2274
20041SOL    HW172101   2.725   0.192   0.767  0.0478 -0.0465  0.5211
20041SOL    HW272102   2.873   0.224   0.760 -0.2550  1.7722  1.5601
20042SOL     OW72103   3.682   4.537   9.340 -0.2256  0.4797 -0.5182
20042SOL    HW172104   3.587   4.522   9.343 -0.0351 -0.8970  2.0787
20042SOL    HW272105   3.719   4.450   9.322  0.5798  0.1362  2.3100
20043SOL     OW72106   2.108   3.383   6.657 -0.3280 -0.4500  0.3259
20043SOL    HW172107   2.081   3.467   6.694 -3.8389 -0.6779 -1.3433
20043SOL    HW272108   2.100   3.395   6.562 -0.5844 -2.5515  0.0283
20044SOL     OW72109   3.745   3.865   6.634  0.0551  0.4625 -0.2789
20044SOL    HW172110   3.733   3.960   6.638  1.3759  0.6082  0.7583
20044SOL    HW272111   3.796   3.850   6.554 -0.7599  0.5425 -0.8229
20045SOL     OW72112  10.085   1.722   2.423  0.3614 -0.0559 -0.2163
20045SOL    HW172113  10.129   1.641   2.399  0.4560 -0.1564  0.2898
20045SOL    HW272114   9.996   1.712   2.389  0.4588 -0.2447 -0.4160
20046SOL     OW72115  10.042   1.678   7.271 -0.0142  0.4185  0.0021
20046SOL    HW172116   9.983   1.675   7.346  1.1812 -0.7375  0.9368
20046SOL    HW272117  10.129   1.693   7.309  0.5680  0.1622 -1.1798
20047SOL     OW72118   3.474   4.428   9.046  0.0394 -0.5565  0.1375
20047SOL    HW172119   3.406   4.409   8.980 -0.4135 -3.0997  1.2007
20047SOL    HW272120   3.426   4.469   9.118  0.0096 -0.4135  0.0359
20048SOL     OW72121   3.614   7.923   5.821 -0.0303 -0.2302 -0.3210
20048SOL    HW172122   3.557   7.847   5.832 -2.3886  1.3372 -0.9527
20048SOL    HW272123   3.606   7.946   5.728 -1.5810  2.3202  0.3375
20049SOL     OW72124   0.836   4.021   7.578 -0.3290 -0.3091 -0.7979
20049SOL    HW172125   0.914   4.048   7.529 -0.7906  1.3809 -0.6837
20049SOL    HW272126   0.822   4.092   7.641 -0.7386 -1.6168  0.6396
20050SOL     OW72127   8.495   2.901   5.022 -0.3421  0.5487 -0.9200
20050SOL    HW172128   8.406   2.932   5.010 -0.1029  0.9705 -1.6988
20050SOL    HW272129   8.540   2.971   5.069 -0.9974 -0.6562  1.7179
20051SOL     OW72130   5.520   4.772   7.378 -0.0941 -0.5536  0.1716
20051SOL    HW172131   5.554   4.748   7.464  0.1505  0.6108  0.4085
20051SOL    HW272132   5.551   4.701   7.321  1.5317 -0.2799  0.6503
20052SOL     OW72133   0.097   1.860   4.985 -0.1312  0.3620  0.1857
20052SOL    HW172134   0.111   1.916   4.909 -0.2327  0.2601  0.0908
20052SOL    HW272135   0.034   1.794   4.955  0.7916 -0.4501 -0.0349
20053SOL     OW72136   7.175   4.482   2.412  0.0544 -0.2592 -0.5333
20053SOL    HW172137   7.136   4.562   2.448 -2.9406 -2.3167  1.3066
20053SOL    HW272138   7.159   4.487   2.318  1.6534  2.0641 -0.7564
20054SOL     OW72139   0.394   0.869   0.558  0.1402 -0.0544  0.2437
20054SOL    HW172140   0.434   0.851   0.473 -1.7562 -0.1810 -0.6828
20054SOL    HW272141   0.382   0.783   0.598  1.7377  0.0535  1.0201
20055SOL     OW72142   9.994   0.666   3.871 -0.1362  0.2248 -0.0000
20055SOL    HW172143  10.022   0.724   3.801 -0.0020 -2.1429 -2.0105
20055SOL    HW272144   9.900   0.656   3.858 -0.2493  0.3437  0.6523
20056SOL     OW72145   5.337   8.214   4.853 -0.1438  0.0170 -0.4789
20056SOL    HW172146   5.297   8.233   4.938  0.3495  0.2081 -0.2894
20056SOL    HW272147   5.273   8.245   4.789 -1.8395 -2.6718 -0.2346
20057SOL     OW72148   1.079   1.971   9.594  0.3819  0.2083  0.0606
20057SOL    HW172149   1.033   1.890   9.569  1.2735 -0.4343  0.4264
20057SOL    HW272150   1.030   2.004   9.669  0.2653 -0.2318  0.1822
20058SOL     OW72151   4.043   1.533   7.477 -0.1345  0.1603  0.0852
20058SOL    HW172152   4.036   1.559   7.385 -0.4646  2.4073  0.6732
20058SOL    HW272153   4.096   1.453   7.476  0.8326  0.7619 -1.9785
20059SOL     OW72154   9.869   2.122   3.655 -0.8843 -0.3508  0.1300
20059SOL    HW172155   9.930   2.107   3.727 -1.4193  1.2911  0.9623
20059SOL    HW272156   9.859   2.217   3.651 -0.5335 -0.3542 -2.4265
20060SOL     OW72157   2.990   5.092   4.527 -0.3142  0.7112 -0.2991
20060SOL    HW172158   2.995   5.186   4.514 -0.2624  0.5322 -1.7999
20060SOL    HW272159   3.067   5.070   4.578 -0.1493  1.4373 -0.2322
20061SOL     OW72160   6.652   0.971   6.214  0.1852  0.3413 -0.1348
20061SOL    HW172161   6.588   0.918   6.167 -0.9316  0.3701  1.2774
20061SOL    HW272162   6.736   0.926   6.200 -0.1971  0.0314 -1.6063
20062SOL     OW72163   3.129   4.415   3.962  0.5533  0.5258  0.3100
20062SOL    HW172164   3.156   4.345   4.022  3.0419  0.8837 -0.2947
20062SOL    HW272165   3.095   4.484   4.019  1.9540  0.4619  1.2708
20063SOL     OW72166   6.839   5.912   1.644 -0.0448 -0.0327 -0.2273
20063SOL    HW172167   6.767   5.896   1.582 -0.5577  0.8748  0.1169
20063SOL    HW272168   6.903   5.962   1.594  0.0852 -0.3203 -0.3555
20064SOL     OW72169   3.221   4.392   2.136 -0.4659  0.4942  0.0813
20064SOL    HW172170   3.250   4.303   2.116  1.0772  1.1225 -0.7298
20064SOL    HW272171   3.268   4.415   2.216 -0.0259  0.9188 -0.2881
20065SOL     OW72172   6.084   0.537   6.714  0.6899  0.0957  0.3704
20065SOL    HW172173   6.156   0.599   6.725  0.4060  0.3138  0.9961
20065SOL    HW272174   6.125   0.451   6.720  1.1760  0.1921 -1.0348
20066SOL     OW72175   8.368   4.314   5.718  0.1033  0.4375  0.3966
20066SOL    HW172176   8.329   4.361   5.792  0.5446  0.0119  0.9109
20066SOL    HW272177   8.370   4.378   5.647  0.0908  0.9914  0.8861
20067SOL     OW72178  10.005   6.416   1.618 -0.1240 -0.0862 -0.0700
20067SOL    HW172179  10.049   6.488   1.574 -1.0653 -0.0235 -0.9477
20067SOL    HW272180  10.018   6.341   1.560 -0.1928 -0.3293  0.2284
20068SOL     OW72181   0.149   3.671   0.972  0.0224  0.6017 -0.4978
20068SOL    HW172182   0.235   3.697   1.006  0.0883 -2.3822  2.1154
20068SOL    HW272183   0.165   3.585   0.931 -1.5937  0.2518 -0.4606
20069SOL     OW72184   5.550   8.108   0.553  0.2816  0.0853  0.3644
20069SOL    HW172185   5.456   8.105   0.571  0.0754 -1.2105 -0.7368
20069SOL    HW272186   5.586   8.032   0.598  0.7429  0.3666  0.4766
20070SOL     OW72187   6.412   3.344   9.844 -0.1251  0.1282  0.5445
20070SOL    HW172188   6.409   3.353   9.940  2.0911  0.0245  0.6840
20070SOL    HW272189   6.383   3.254   9.828 -1.8230  0.5685  0.9756
20071SOL     OW72190   5.881   6.865   6.390 -0.2355  0.1562 -0.0561
20071SOL    HW172191   5.883   6.953   6.352 -0.5043  0.3225  0.3102
20071SOL    HW272192   5.953   6.864   6.453  1.3710 -0.7034 -1.8168
20072SOL     OW72193   8.494   0.395   7.407  0.1285  0.9949 -0.3253
20072SOL    HW172194   8.409   0.391   7.452  0.3672 -0.9670  0.0340
20072SOL    HW272195   8.471   0.398   7.314 -0.4449 -2.0506 -0.4006
20073SOL     OW72196   0.939   6.329   2.770 -0.3350  0.2347  0.0601
20073SOL    HW172197   0.965   6.238   2.777 -1.0885 -0.0712 -0.9129
20073SOL    HW272198   1.021   6.378   2.777  0.3169 -0.6142 -1.3117
20074SOL     OW72199   5.020   0.126   4.550 -0.2092  0.3522  0.1942
20074SOL    HW172200   4.974   0.049   4.517 -1.4686  0.8047  0.8072
20074SOL    HW272201   5.080   0.150   4.480 -1.2454  0.0058 -0.8509
20075SOL     OW72202   9.424   4.744   7.536  0.0531 -0.4898 -0.2451
20075SOL    HW172203   9.335   4.764   7.567  0.0274  0.3853 -0.8607
20075SOL    HW272204   9.431   4.649   7.544 -0.3492 -0.4205  1.3745
20076SOL     OW72205   4.056   2.316   6.611 -0.1407 -0.4518 -0.1640
20076SOL    HW172206   4.045   2.411   6.621  0.0563 -0.4880  0.4303
20076SOL    HW272207   3.973   2.287   6.574  0.2853  0.1319 -1.6796
20077SOL     OW72208   7.604   0.735   7.505 -0.9909 -0.6997 -0.1753
20077SOL    HW172209   7.591   0.799   7.575 -1.9039 -1.2492  0.1845
20077SOL    HW272210   7.618   0.788   7.426 -1.5880 -0.0554  0.1392
20078SOL     OW72211   7.352   6.823   1.432  0.2791  0.0868 -0.1180
20078SOL    HW172212   7.424   6.840   1.493 -2.3674  0.2861  3.2792
20078SOL    HW272213   7.316   6.910   1.413 -1.0916 -0.1891  1.0420
20079SOL     OW72214   1.146   4.588   8.699  0.0787  0.2664 -0.1429
20079SOL    HW172215   1.066   4.538   8.715 -0.3381  0.9478 -0.0589
20079SOL    HW272216   1.174   4.616   8.786  2.3115 -2.7459  0.3020
20080SOL     OW72217   3.880   0.112   9.946 -0.0794  1.0584  0.3835
20080SOL    HW172218   3.915   0.199   9.927  0.3415  1.1098  1.2971
20080SOL    HW272219   3.806   0.128  10.005 -0.4808  0.8337 -0.0476
20081SOL     OW72220   5.649   2.600   5.139 -0.2458 -0.0776 -0.3413
20081SOL    HW172221   5.678   2.607   5.230  2.4097  0.7253 -1.1560
20081SOL    HW272222   5.658   2.507   5.117  0.5286 -0.0431 -0.1880
20082SOL     OW72223   6.896   6.158   6.891 -0.5264  0.5314  0.3416
20082SOL    HW172224   6.856   6.225   6.836 -0.9318  1.0730  1.2885
20082SOL    HW272225   6.828   6.092   6.901  0.0520 -0.3314 -1.0498
20083SOL     OW72226   8.851   6.701   1.272 -0.2296 -0.5889 -0.1995
20083SOL    HW172227   8.904   6.759   1.327 -1.2401 -0.8709  1.1313
20083SOL    HW272228   8.902   6.691   1.192 -0.1682  2.4052 -0.6526
20084SOL     OW72229   3.284   2.510   9.057  0.2520 -0.0857 -0.2831
20084SOL    HW172230   3.205   2.459   9.037 -0.3622  0.7266 -0.0021
20084SOL    HW272231   3.356   2.452   9.033 -0.4243 -0.4441 -1.5975
20085SOL     OW72232   6.344   4.354   7.754  0.0132 -0.1698  0.3172
20085SOL    HW172233   6.299   4.437   7.763 -1.1521 -0.6491 -0.8170
20085SOL    HW272234   6.367   4.348   7.661 -0.2170 -1.2566  0.3143
20086SOL     OW72235   5.406   7.318   7.364 -0.1537  0.0438 -0.2405
20086SOL    HW172236   5.427   7.311   7.457  0.2081 -0.5530 -0.3638
20086SOL    HW272237   5.424   7.409   7.343 -3.3240  1.0938  1.0072
20087SOL     OW72238   7.003   3.073   2.714  0.0114  0.2066 -0.4664
20087SOL    HW172239   6.968   3.105   2.797  0.5980  1.2450 -0.6031
20087SOL    HW272240   7.097   3.063   2.730  0.0384 -0.1385 -0.8354
20088SOL     OW72241   9.142   0.613   5.506 -0.5217 -0.2419 -0.0308
20088SOL    HW172242   9.054   0.588   5.534 -0.1008 -1.0985  0.5687
20088SOL    HW272243   9.135   0.621   5.411 -1.5470  0.9784  0.1072
20089SOL     OW72244   2.352   8.973   0.121 -0.3290  0.3912  0.5571
20089SOL    HW172245   2.274   8.919   0.120 -1.2153  1.5680 -1.9543
20089SOL    HW272246   2.422   8.915   0.092 -0.9589  0.1595 -0.5500
20090SOL     OW72247   2.455   6.742   7.347  0.2243  0.0071 -0.1505
20090SOL    HW172248   2.428   6.653   7.324  0.7684 -0.4067  0.7415
20090SOL    HW272249   2.515   6.730   7.421 -0.5781  1.1914  0.7301
20091SOL     OW72250   2.128   3.993   0.001  0.2421  0.8726  0.3268
20091SOL    HW172251   2.117   4.079  -0.041 -1.6289  2.2335  3.2479
20091SOL    HW272252   2.063   3.937  -0.041  0.7388  1.1638 -0.8703
20092SOL     OW72253   9.811   7.597   0.852  0.1890 -0.3537  0.4451
20092SOL    HW172254   9.875   7.573   0.919 -0.0683 -1.6117  0.2749
20092SOL    HW272255   9.843   7.679   0.816  0.6031  0.0779  1.7599
20093SOL     OW72256   0.246   7.845   3.534  0.0873  0.2478  0.0581
20093SOL    HW172257   0.162   7.806   3.557 -0.8903  2.6710  0.8429
20093SOL    HW272258   0.226   7.907   3.463  1.0786  1.3273  0.6896
20094SOL     OW72259   1.648   6.226   9.292 -0.5224  0.2371 -0.0164
20094SOL    HW172260   1.628   6.320   9.287 -0.8498  0.2905  1.6575
20094SOL    HW272261   1.600   6.195   9.369  1.0518 -0.9193  0.5653
20095SOL     OW72262   3.580   9.060   5.803  0.0469  0.5230 -0.1951
20095SOL    HW172263   3.670   9.045   5.774 -0.1720 -0.5688 -0.3492
20095SOL    HW272264   3.559   8.983   5.855 -0.8332  0.7250 -0.2425
20096SOL     OW72265   3.623   4.255   8.054 -0.5001  0.4270 -0.8680
20096SOL    HW172266   3.682   4.207   7.995  1.2577  0.8645  0.4541
20096SOL    HW272267   3.571   4.186   8.096  0.3154 -0.1468 -0.7616
20097SOL     OW72268   0.085   8.733   7.982  0.2105  0.4320 -0.4611
20097SOL    HW172269   0.063   8.656   8.033  1.4081 -0.0270 -0.6245
20097SOL    HW272270   0.157   8.774   8.029  1.2069  0.1070 -1.6599
20098SOL     OW72271   8.327   0.470   3.028 -0.2080 -0.1291  0.1667
20098SOL    HW172272   8.406   0.416   3.035 -0.1975  0.0617  1.9962
20098SOL    HW272273   8.275   0.446   3.105 -2.2672 -0.7115 -1.3365
20099SOL     OW72274   9.714   4.294   1.480 -0.1289  0.2729 -0.0706
20099SOL    HW172275   9.645   4.316   1.417 -1.4756 -0.5861  1.0154
20099SOL    HW272276   9.702   4.356   1.552  0.1079 -0.0069  0.2146
20100SOL     OW72277   8.808   7.842   2.780  0.2557  0.1431  0.5360
20100SOL    HW172278   8.750   7.903   2.734 -0.5386 -0.5614  0.5830
20100SOL    HW272279   8.760   7.818   2.860  0.3065 -0.9456  0.2627
20101SOL     OW72280   8.134   0.178   7.241 -0.0560  0.1848 -0.1965
20101SOL    HW172281   8.147   0.216   7.154  1.4169  2.3025  0.8564
20101SOL    HW272282   8.056   0.223   7.275  1.8488  2.7607  1.1595
20102SOL     OW72283  10.287   8.033   3.474 -0.1144 -0.6353 -0.1230
20102SOL    HW172284  10.299   8.128   3.475 -1.9636 -0.3836  0.2584
20102SOL    HW272285  10.288   8.010   3.381 -1.8676  0.0899 -0.3545
20103SOL     OW72286   1.739   3.461   1.754 -0.0875  0.1127 -0.1767
20103SOL    HW172287   1.719   3.437   1.844  2.7049 -1.0458  0.2193
20103SOL    HW272288   1.726   3.380   1.704 -0.1501  0.3534 -0.5598
20104SOL     OW72289  10.058   5.660   2.615 -0.1872 -0.4761  0.1064
20104SOL    HW172290  10.137   5.640   2.563 -0.9839 -2.0092 -0.5782
20104SOL    HW272291  10.090   5.666   2.705  1.1975  2.0022 -0.4303
20105SOL     OW72292   1.493   8.798   9.167  0.3729 -0.2081 -0.1700
20105SOL    HW172293   1.489   8.820   9.074 -1.6911  1.7425  0.2846
20105SOL    HW272294   1.462   8.877   9.211 -1.1289 -1.9092  2.0316
20106SOL     OW72295   1.440   8.617   6.207 -0.7679  0.5015  0.9614
20106SOL    HW172296   1.451   8.673   6.130  0.8249 -2.0431 -0.8306
20106SOL    HW272297   1.501   8.652   6.271  2.5349 -0.7029 -1.2050
20107SOL     OW72298   6.248  10.203   0.811  0.2333 -0.2862 -0.1494
20107SOL    HW172299   6.265  10.193   0.718  0.7221 -1.3795  0.0415
20107SOL    HW272300   6.171  10.261   0.815  0.8494  0.6497 -1.1714
20108SOL     OW72301   8.786   2.051   8.863  0.6711 -0.1136 -0.6304
20108SOL    HW172302   8.715   1.987   8.856  0.8595 -0.2576 -1.3350
20108SOL    HW272303   8.755   2.114   8.928  0.7008 -1.1950  0.4811
20109SOL     OW72304   8.886   7.175   1.565 -0.0438 -0.0433  0.1574
20109SOL    HW172305   8.830   7.098   1.561  1.4486 -1.1143 -0.9341
20109SOL    HW272306   8.918   7.186   1.476  1.8089  0.2798  0.8236
20110SOL     OW72307   6.550   9.030   5.665  0.3558  0.0598 -0.5718
20110SOL    HW172308   6.498   8.951   5.650  1.0956 -0.7364  0.8022
20110SOL    HW272309   6.517   9.065   5.747  0.4159  0.8675 -0.8835
20111SOL     OW72310   2.966   1.097   6.844 -0.0800 -0.2475 -0.1856
20111SOL    HW172311   3.055   1.116   6.815 -0.3500 -1.5610 -2.0548
20111SOL    HW272312   2.913   1.165   6.804 -0.2482 -1.1165 -1.4773
20112SOL     OW72313   5.580   9.190   0.345 -0.0129 -0.6086  0.0176
20112SOL    HW172314   5.503   9.228   0.303  1.5164  2.4277 -0.3679
20112SOL    HW272315   5.580   9.228   0.433  1.2614 -0.1334 -0.1670
20113SOL     OW72316   6.627   0.173   5.714 -0.1879 -0.2282 -0.3376
20113SOL    HW172317   6.630   0.214   5.627  0.7670  0.5910  0.0591
20113SOL    HW272318   6.696   0.217   5.763 -1.2038 -0.1458  1.0756
20114SOL     OW72319   0.973   2.278   8.173 -0.1740  0.3958 -0.2833
20114SOL    HW172320   0.947   2.188   8.189 -2.0439  0.8763 -0.3739
20114SOL    HW272321   0.911   2.331   8.222 -0.0091  1.6628 -1.3651
20115SOL     OW72322   5.293   9.759   6.566 -0.4334  1.1673  0.1787
20115SOL    HW172323   5.226   9.696   6.593 -0.6269  0.8841 -0.9267
20115SOL    HW272324   5.245   9.840   6.550 -0.3837  1.2132  0.2624
20116SOL     OW72325   3.658   4.919   1.372  0.2595  0.1060  0.1262
20116SOL    HW172326   3.625   5.009   1.370 -1.0908 -0.3655  0.0670
20116SOL    HW272327   3.583   4.866   1.397  0.7368 -1.1310 -0.9080
20117SOL     OW72328   9.113   3.203   2.396  0.2997 -0.0339  0.2096
20117SOL    HW172329   9.111   3.212   2.491 -0.1709 -2.1482  0.4364
20117SOL    HW272330   9.050   3.134   2.376 -0.5719  1.2225 -1.7891
20118SOL     OW72331   1.258   8.787   9.687  0.2176  0.5762  0.2164
20118SOL    HW172332   1.196   8.844   9.640  0.5388 -0.1481 -1.1391
20118SOL    HW272333   1.256   8.705   9.639  1.3446  0.1434  0.8691
20119SOL     OW72334   1.253   3.884   9.978 -0.4297  0.2582 -0.0575
20119SOL    HW172335   1.288   3.945  10.042  1.4538 -0.8275 -0.0034
20119SOL    HW272336   1.215   3.941   9.910 -1.1093  1.4213  1.2385
20120SOL     OW72337   1.498   4.594   9.981  0.5332  0.1116  0.4437
20120SOL    HW172338   1.445   4.659   9.936  0.4300  0.6947  1.3775
20120SOL    HW272339   1.466   4.596  10.072  0.8794 -0.8719  0.6030
20121SOL     OW72340   1.917   8.192   2.483  0.4318 -0.7157  0.1822
20121SOL    HW172341   1.916   8.155   2.395 -0.9315 -0.1006 -0.0796
20121SOL    HW272342   1.984   8.259   2.480  0.6008 -0.8999 -0.3025
20122SOL     OW72343   2.762   3.670   1.196 -0.5260 -0.1332 -0.3606
20122SOL    HW172344   2.735   3.757   1.166  0.0120  0.1908  0.0772
20122SOL    HW272345   2.834   3.687   1.257  0.1535 -0.9248 -0.9189
20123SOL     OW72346   6.272   1.381   1.148 -0.1244  0.5840  0.0407
20123SOL    HW172347   6.189   1.334   1.156 -0.0139  0.2949 -0.4707
20123SOL    HW272348   6.291   1.379   1.054  0.3103  0.9130  0.1209
20124SOL     OW72349   1.879  10.216   1.577  0.0181  0.0496 -0.6022
20124SOL    HW172350   1.933  10.250   1.648  0.6636 -1.0566 -0.5374
20124SOL    HW272351   1.793  10.202   1.616 -0.6697  2.7524 -0.9465
20125SOL     OW72352   7.732   7.947   5.506 -0.1916  0.1479  0.0435
20125SOL    HW172353   7.660   7.983   5.557 -0.7561 -0.5798 -0.2247
20125SOL    HW272354   7.772   7.882   5.563  1.6191  1.9840  1.0166
20126SOL     OW72355   2.535   2.097   5.960  0.0154  0.3304 -0.0124
20126SOL    HW172356   2.458   2.098   6.018 -1.1208 -0.0692 -1.4394
20126SOL    HW272357   2.607   2.067   6.015 -1.2881 -1.2740  0.9025
20127SOL     OW72358   2.368   8.203   8.925  0.0719 -0.1772 -0.2302
20127SOL    HW172359   2.333   8.122   8.888  1.1562 -0.5238 -0.5311
20127SOL    HW272360   2.393   8.181   9.014 -0.9261  0.2043  0.1546
20128SOL     OW72361   4.834   0.608   8.638  0.1026  0.1265 -0.1575
20128SOL    HW172362   4.817   0.569   8.553  0.1329 -1.0376  0.3548
20128SOL    HW272363   4.811   0.540   8.701  1.5624  0.3993  0.7234
20129SOL     OW72364   8.195   0.028   5.158  0.4872  0.0063 -0.4430
20129SOL    HW172365   8.148   0.069   5.086  0.1054 -0.1051 -0.2602
20129SOL    HW272366   8.252  -0.036   5.116  0.8150  0.4617 -0.6989
20130SOL     OW72367   9.237   7.246   9.785 -0.2272  0.3256 -0.3367
20130SOL    HW172368   9.177   7.320   9.796  0.6433  0.9578  0.3382
20130SOL    HW272369   9.180   7.171   9.771 -1.1348  1.1308 -1.1077
20131SOL     OW72370   9.353   1.559   7.005  0.1080 -0.5585 -0.4781
20131SOL    HW172371   9.266   1.520   6.998  0.2118 -0.9784  0.4385
20131SOL    HW272372   9.409   1.488   7.039  0.5760  0.0193 -0.0279
20132SOL     OW72373   5.042   9.945   7.360 -0.1335 -0.1843 -0.0068
20132SOL    HW172374   5.011   9.867   7.408 -0.7078 -0.8696 -1.4479
20132SOL    HW272375   5.137   9.939   7.365 -0.1758 -0.8382  0.1071
20133SOL     OW72376   6.605   2.712   7.201  0.0507  0.1115 -0.3219
20133SOL    HW172377   6.664   2.716   7.276  0.1189 -1.2879 -0.2761
20133SOL    HW272378   6.650   2.762   7.133  0.9562 -0.3008 -0.0456
20134SOL     OW72379   2.984   1.915   2.827  0.5672  0.1411  0.3357
20134SOL    HW172380   2.900   1.944   2.794 -1.1014 -2.2389  2.1165
20134SOL    HW272381   2.987   1.947   2.917  3.0388  2.7668 -0.5169
20135SOL     OW72382   0.459   6.732   5.699 -0.4490 -0.0360  0.1478
20135SOL    HW172383   0.542   6.758   5.739  0.2198 -0.7355 -0.7595
20135SOL    HW272384   0.403   6.709   5.774 -0.7374  2.8254  0.9618
20136SOL     OW72385   8.071   0.553   0.754 -0.0437 -0.0723  0.1044
20136SOL    HW172386   8.004   0.621   0.747 -0.2159 -0.2960 -0.5909
20136SOL    HW272387   8.104   0.560   0.843  1.7822  2.6590 -0.6588
20137SOL     OW72388   0.344   7.019   2.289  0.2027  0.0117  0.1031
20137SOL    HW172389   0.402   7.089   2.319 -0.7617  1.6649 -1.6517
20137SOL    HW272390   0.383   6.989   2.207  1.1745 -2.3351  1.3195
20138SOL     OW72391   6.521   0.077   6.308 -0.0729  0.4274 -0.2851
20138SOL    HW172392   6.608   0.051   6.337 -0.0233 -0.3951 -1.1488
20138SOL    HW272393   6.504   0.024   6.231 -0.9625  1.2471 -0.6766
20139SOL     OW72394   4.052   7.239   5.220 -0.0004  0.9044  0.0021
20139SOL    HW172395   4.020   7.158   5.259 -0.0565  0.3416 -1.1732
20139SOL    HW272396   4.002   7.308   5.263  0.1389  0.3414  1.1109
20140SOL     OW72397   1.593   5.518   4.473  0.5645 -0.2371  0.2739
20140SOL    HW172398   1.503   5.514   4.504  0.4871 -0.3921  0.0324
20140SOL    HW272399   1.603   5.439   4.419  1.5176 -1.4441  2.1041
20141SOL     OW72400   7.726   7.832   5.802 -0.0085 -0.2890  0.1497
20141SOL    HW172401   7.795   7.810   5.740 -1.2203 -0.5630 -1.1699
20141SOL    HW272402   7.722   7.928   5.801 -2.5764 -0.2263 -3.3442
20142SOL     OW72403   0.436   0.804   1.904  0.1275 -0.1909  0.0538
20142SOL    HW172404   0.352   0.837   1.937  0.1110 -0.5273  0.3495
20142SOL    HW272405   0.489   0.882   1.890 -0.5148  0.0897 -0.9059
20143SOL     OW72406   3.662   8.418   5.619 -0.4847  0.0924  0.0092
20143SOL    HW172407   3.699   8.340   5.576 -2.3912 -0.7570 -0.2212
20143SOL    HW272408   3.627   8.470   5.547 -0.0768  0.7030  0.2456
20144SOL     OW72409   4.353   3.853   8.998 -0.4699 -0.1087  0.0111
20144SOL    HW172410   4.349   3.872   8.905 -1.3681  1.2747  0.3016
20144SOL    HW272411   4.262   3.853   9.027 -0.2396 -0.9826  0.8171
20145SOL     OW72412   4.428   0.248   7.840 -0.2803  0.0338  0.6681
20145SOL    HW172413   4.431   0.343   7.849 -1.7683  0.1342  0.3233
20145SOL    HW272414   4.464   0.231   7.753 -1.7247  0.4539 -0.0358
20146SOL     OW72415   1.962   1.764   7.028  0.0212  0.1052  0.4514
20146SOL    HW172416   1.928   1.845   6.988 -0.2372 -1.3726 -2.6401
20146SOL    HW272417   1.887   1.706   7.031  0.7034 -0.7979  0.3956
20147SOL     OW72418   6.463   3.134   4.775  0.0532  0.2178 -0.3170
20147SOL    HW172419   6.447   3.084   4.855  1.2775  1.1537  0.5342
20147SOL    HW272420   6.381   3.127   4.726 -0.6231 -0.6018  0.8783
20148SOL     OW72421   9.129   3.412   2.252 -0.2883  0.0685 -0.4167
20148SOL    HW172422   9.121   3.331   2.303  0.1728  0.4161  0.2256
20148SOL    HW272423   9.095   3.480   2.311 -0.8883  0.3191 -1.0389
20149SOL     OW72424  10.287   7.724   7.195  0.0091  0.0472 -0.2532
20149SOL    HW172425  10.300   7.755   7.285 -1.6991  0.7688 -0.2199
20149SOL    HW272426  10.243   7.796   7.151  1.2527 -0.1155 -1.8350
20150SOL     OW72427   3.461   4.944   6.332  0.3211  0.3162  0.0221
20150SOL    HW172428   3.412   4.863   6.343  1.5813 -0.4791  0.0275
20150SOL    HW272429   3.541   4.931   6.383  0.7299  1.4011 -0.3058
20151SOL     OW72430   1.895   8.156   3.621  0.4482 -0.1165 -0.0174
20151SOL    HW172431   1.806   8.178   3.646  0.8699  1.3996  0.2683
20151SOL    HW272432   1.930   8.236   3.581  1.5852 -0.7651 -0.3845
20152SOL     OW72433  10.174   1.333   8.132 -0.1530 -0.4166 -0.1941
20152SOL    HW172434  10.158   1.264   8.196  0.6934 -1.8846 -1.4813
20152SOL    HW272435  10.179   1.286   8.048  0.2042  1.2516 -1.1391
20153SOL     OW72436   9.729   8.006   5.871 -0.8688 -0.0846  0.7306
20153SOL    HW172437   9.716   7.991   5.965  1.6792 -2.6054  0.7940
20153SOL    HW272438   9.824   8.014   5.861 -1.0420 -0.4807 -1.7231
20154SOL     OW72439   9.017   0.842   3.797  0.4225 -0.2588  0.4131
20154SOL    HW172440   9.031   0.753   3.762  0.8873 -0.0458  0.0479
20154SOL    HW272441   9.005   0.829   3.891  0.8262 -0.6825  0.4120
20155SOL     OW72442   1.580   1.488   0.147  0.3098 -0.2767 -0.2408
20155SOL    HW172443   1.565   1.432   0.224  1.3943 -0.7855 -0.3899
20155SOL    HW272444   1.492   1.511   0.117 -0.4712 -5.0575 -2.4968
20156SOL     OW72445  10.069   8.150   3.263 -0.2222  0.6528 -0.1425
20156SOL    HW172446  10.004   8.122   3.327 -0.9098  2.2178 -0.1106
20156SOL    HW272447  10.034   8.122   3.179  0.0500 -0.2632  0.0399
20157SOL     OW72448   0.367   7.632   4.698  0.0103 -0.3864  0.4683
20157SOL    HW172449   0.318   7.714   4.696 -0.9996 -0.9918 -1.0144
20157SOL    HW272450   0.382   7.610   4.606  1.9516 -0.9024  0.8508
20158SOL     OW72451   7.197   1.280   4.991 -0.4499  0.4189  0.1911
20158SOL    HW172452   7.103   1.265   4.982 -0.5109  0.1396  1.1007
20158SOL    HW272453   7.214   1.267   5.085  0.7221 -0.8910 -0.1620
20159SOL     OW72454   9.198   2.633   3.207  0.0461  0.2894 -0.5422
20159SOL    HW172455   9.203   2.723   3.240  2.7573  0.0206 -0.0154
20159SOL    HW272456   9.106   2.609   3.219 -0.1171  1.8529  2.4434
20160SOL     OW72457   7.035   5.520   4.841  0.1510  0.8039  0.1327
20160SOL    HW172458   7.003   5.587   4.782  2.0245  0.5205 -1.3133
20160SOL    HW272459   7.121   5.496   4.805  1.3191  0.5039  2.8906
20161SOL     OW72460   4.875   1.092   9.241 -0.3334 -0.7391  0.0648
20161SOL    HW172461   4.804   1.120   9.298 -0.5760  0.7835 -0.9401
20161SOL    HW272462   4.832   1.035   9.176 -0.3234 -1.2186  0.4744
20162SOL     OW72463   1.561   4.819   3.481  0.2594 -0.4614 -0.5611
20162SOL    HW172464   1.594   4.867   3.404  0.0329  0.3290 -0.1812
20162SOL    HW272465   1.623   4.842   3.551 -1.7669  2.1728  0.5308
20163SOL     OW72466   0.005   6.494   1.372 -0.1441  1.1129  0.3758
20163SOL    HW172467   0.070   6.477   1.440 -0.1679  1.0759  0.3890
20163SOL    HW272468   0.048   6.468   1.290 -0.5486  0.0124  0.4956
20164SOL     OW72469   7.109   4.209   1.942  0.2483  0.0884  0.3731
20164SOL    HW172470   7.152   4.184   2.024  1.2600  1.0178  0.1539
20164SOL    HW272471   7.071   4.295   1.960  0.3294  0.2224 -0.0832
20165SOL     OW72472   9.534   9.972   4.801  0.7385 -1.1526 -0.3239
20165SOL    HW172473   9.512  10.051   4.852  0.7093 -1.0162 -0.5448
20165SOL    HW272474   9.465   9.909   4.824  1.3012 -1.4500  0.5891
20166SOL     OW72475   1.460   7.646   3.033 -0.7824  0.5116  0.6905
20166SOL    HW172476   1.505   7.652   3.118  0.0937  1.5090  0.1841
20166SOL    HW272477   1.380   7.598   3.052  0.7297 -1.8812  1.5354
20167SOL     OW72478   5.515   6.935   6.620  0.3866 -0.0478  0.3471
20167SOL    HW172479   5.526   7.030   6.610  0.0532 -0.0964 -0.5867
20167SOL    HW272480   5.553   6.916   6.705 -0.0374  1.0145  0.8022
20168SOL     OW72481   1.446   2.564   8.370 -0.3954  0.1587 -0.4258
20168SOL    HW172482   1.420   2.473   8.385 -2.5740  1.1484  2.7116
20168SOL    HW272483   1.407   2.587   8.286 -1.4651 -1.2521 -0.3335
20169SOL     OW72484   7.159   9.207   6.817 -0.2298 -0.5602 -0.3243
20169SOL    HW172485   7.195   9.295   6.826  0.7339 -1.1010  1.4386
20169SOL    HW272486   7.064   9.220   6.825 -0.0204  0.1852  1.3607
20170SOL     OW72487   4.543   9.736   0.038 -0.1735 -0.0550 -0.4138
20170SOL    HW172488   4.515   9.644   0.035  0.7069 -0.3278 -0.6402
20170SOL    HW272489   4.630   9.735  -0.002 -1.2228  1.2961 -3.0037
20171SOL     OW72490   2.076   5.058   1.640 -0.8131 -0.2504 -0.4796
20171SOL    HW172491   2.009   5.000   1.677 -1.6355  0.8952 -0.1297
20171SOL    HW272492   2.152   5.047   1.697 -0.8008 -1.2873 -0.6681
20172SOL     OW72493   5.011   7.808   6.941 -0.2837 -0.4462 -0.3092
20172SOL    HW172494   5.094   7.849   6.962 -0.9367  0.8798 -0.1938
20172SOL    HW272495   4.993   7.833   6.850 -0.2241 -1.3326 -0.5801
20173SOL     OW72496   6.116   9.380   7.962  0.4424  0.3147  0.8784
20173SOL    HW172497   6.166   9.454   7.927  1.5356 -1.0545 -0.6256
20173SOL    HW272498   6.056   9.357   7.891  0.6702 -0.7025  0.9989
20174SOL     OW72499   5.727   5.029   7.262  0.2484  0.3223  0.0808
20174SOL    HW172500   5.750   4.936   7.266  0.5034  0.3427 -0.7302
20174SOL    HW272501   5.639   5.033   7.300 -0.3397 -0.4661 -1.1278
20175SOL     OW72502   9.778   2.257   2.875 -0.1569  0.1202 -0.1294
20175SOL    HW172503   9.740   2.262   2.962 -2.0368  1.9910 -0.9563
20175SOL    HW272504   9.842   2.328   2.872  0.9842 -0.8667  0.1575
20176SOL     OW72505   3.086   3.895   8.088 -0.4884  0.5974 -0.1672
20176SOL    HW172506   3.128   3.951   8.023  1.8311 -0.8724 -0.0735
20176SOL    HW272507   3.045   3.825   8.038 -0.0404  0.3078 -0.1368
20177SOL     OW72508   7.522   4.433   1.571 -0.4447 -0.0089  0.7974
20177SOL    HW172509   7.438   4.402   1.537  0.1096  0.1476 -0.8104
20177SOL    HW272510   7.511   4.527   1.581 -0.3631  0.0620  0.2548
20178SOL     OW72511   0.718   3.320   8.511 -0.2773  0.0623 -0.2856
20178SOL    HW172512   0.800   3.273   8.493 -1.3316 -2.5824  1.1845
20178SOL    HW272513   0.734   3.364   8.595 -0.2057 -0.1189 -0.2023
20179SOL     OW72514   6.865   8.321   4.298  0.0135 -0.3473 -0.3344
20179SOL    HW172515   6.806   8.395   4.311 -1.2965 -1.3966 -0.1338
20179SOL    HW272516   6.873   8.280   4.385 -0.2028 -1.1089 -0.6607
20180SOL     OW72517   4.084   3.182   8.765  0.2261 -0.7380  0.2172
20180SOL    HW172518   4.171   3.222   8.778 -0.3216  0.2676  0.9702
20180SOL    HW272519   4.057   3.213   8.678  0.3256 -0.4816  0.2768
20181SOL     OW72520  10.181   9.857   8.611  0.2014 -0.3221  0.3534
20181SOL    HW172521  10.267   9.847   8.571  0.1056  1.5833 -0.4536
20181SOL    HW272522  10.171   9.780   8.667  2.7523 -0.2049  1.0875
20182SOL     OW72523   8.784   2.572   6.430 -0.0414  0.3399  0.1669
20182SOL    HW172524   8.713   2.541   6.485 -0.3752  0.7813 -0.0110
20182SOL    HW272525   8.853   2.505   6.440  0.4017  1.0134  2.0739
20183SOL     OW72526   4.732   8.348   9.368 -0.6269 -0.2602 -0.1144
20183SOL    HW172527   4.682   8.334   9.449  0.4955  0.9479  0.8287
20183SOL    HW272528   4.809   8.291   9.377 -1.1925 -1.2082 -1.0185
20184SOL     OW72529   4.996   6.670   9.720  0.0241  0.0082  0.5460
20184SOL    HW172530   4.985   6.757   9.757  0.0817  0.1071  0.3330
20184SOL    HW272531   4.977   6.681   9.627  1.3401  0.0629  0.2649
20185SOL     OW72532   1.358   9.516   5.726 -0.0895  0.0764 -0.2149
20185SOL    HW172533   1.452   9.522   5.709  0.0277  3.1058  0.9662
20185SOL    HW272534   1.317   9.568   5.656 -0.8468 -0.4194 -0.1604
20186SOL     OW72535   3.107   2.559   0.096 -0.1265  0.4486  0.0465
20186SOL    HW172536   3.018   2.582   0.071 -0.3832  0.5059  0.9818
20186SOL    HW272537   3.097   2.488   0.159  0.4923  0.3860  0.0789
20187SOL     OW72538  10.028  10.195   9.552 -0.1293 -0.0168  0.4921
20187SOL    HW172539  10.065  10.241   9.627 -1.6294 -0.5416  1.6031
20187SOL    HW272540  10.092  10.126   9.532  0.5141  0.4302  0.9884
20188SOL     OW72541   1.412   3.147   6.163  0.1399  0.2003  0.6945
20188SOL    HW172542   1.435   3.189   6.080 -0.9633 -1.1109 -0.3282
20188SOL    HW272543   1.495   3.113   6.197  0.5738  0.5824  0.0448
20189SOL     OW72544   5.732   1.505  10.358 -0.6233 -0.1623  0.4295
20189SOL    HW172545   5.676   1.446  10.408  1.3872 -1.6831  0.9947
20189SOL    HW272546   5.768   1.565  10.424 -2.2066  1.4219 -0.0611
20190SOL     OW72547   1.558   2.411  10.072 -0.2495 -0.2756 -0.3384
20190SOL    HW172548   1.534   2.367   9.990 -1.4627  1.7421 -1.1252
20190SOL    HW272549   1.477   2.415  10.122 -0.7076  2.8262 -1.1810
20191SOL     OW72550   0.671   0.561   5.531  0.2764  0.7677  0.3972
20191SOL    HW172551   0.649   0.653   5.513  0.7922  0.6963 -0.6593
20191SOL    HW272552   0.756   0.549   5.491 -0.6385 -0.7000 -1.2194
20192SOL     OW72553   2.589   5.952   3.931  0.1611 -0.3471 -0.6545
20192SOL    HW172554   2.567   6.023   3.991  0.7126 -0.6766 -0.0487
20192SOL    HW272555   2.505   5.911   3.910 -0.1341  0.3044 -0.8066
20193SOL     OW72556   1.110   5.680   5.412  0.1812  0.4478  0.1311
20193SOL    HW172557   1.035   5.642   5.367  0.2914  1.4171 -0.9097
20193SOL    HW272558   1.133   5.616   5.479  0.6636 -1.5770 -1.8635
20194SOL     OW72559   1.448   6.129   1.541  0.3991 -0.1571  0.0316
20194SOL    HW172560   1.389   6.054   1.538  0.1783  0.0336 -2.4770
20194SOL    HW272561   1.441   6.161   1.631 -0.8169 -2.0716  0.6943
20195SOL     OW72562  10.162   5.696   9.746 -0.1094 -0.1958 -0.1662
20195SOL    HW172563  10.245   5.729   9.714 -0.7475 -0.8348 -2.7515
20195SOL    HW272564  10.181   5.661   9.833  1.9887  0.8646 -0.1540
20196SOL     OW72565   1.342   2.965   8.137  0.4156  0.1952 -0.3583
20196SOL    HW172566   1.288   3.041   8.116 -1.7398 -0.4354  2.2183
20196SOL    HW272567   1.410   3.000   8.196  0.1287  0.3297 -0.1017
20197SOL     OW72568   0.800   8.081   3.560  0.1349 -0.1405 -0.0663
20197SOL    HW172569   0.777   8.157   3.507 -0.0985 -0.0096  0.2216
20197SOL    HW272570   0.769   8.006   3.508 -1.3464  0.0516  0.4966
20198SOL     OW72571   4.108   1.680   7.261 -0.0027  0.4057  0.1966
20198SOL    HW172572   4.145   1.745   7.321  0.6484 -0.0434  0.2908
20198SOL    HW272573   4.177   1.665   7.197 -0.6999  0.8954 -0.6874
20199SOL     OW72574   2.876   9.952   9.338  0.1011  0.0754 -0.1730
20199SOL    HW172575   2.883   9.871   9.287  0.1020  0.1056 -0.2212
20199SOL    HW272576   2.873   9.922   9.429 -1.5510 -0.0714 -0.2554
20200SOL     OW72577   9.441   5.557   1.443  0.4639 -0.2172 -0.4102
20200SOL    HW172578   9.434   5.561   1.348 -1.0825  0.7077 -0.3031
20200SOL    HW272579   9.464   5.646   1.469 -2.6591  0.5119  0.2359
20201SOL     OW72580   4.695   1.897   2.220 -0.1838 -0.0914  0.3337
20201SOL    HW172581   4.783   1.894   2.181 -0.8872 -2.5149 -1.2888
20201SOL    HW272582   4.699   1.971   2.281  3.0858 -0.3395  0.6273
20202SOL     OW72583   5.195   2.528   0.745 -0.0902  0.7648  0.3686
20202SOL    HW172584   5.252   2.457   0.775 -1.2943 -0.5370 -0.3147
20202SOL    HW272585   5.182   2.511   0.652  0.7049  2.7091 -0.1602
20203SOL     OW72586  10.043   6.658   8.024 -0.5571 -0.1678  0.0713
20203SOL    HW172587  10.054   6.609   8.106 -0.6218 -2.2654 -1.1116
20203SOL    HW272588  10.091   6.740   8.039  0.5246 -1.0470  1.7595
20204SOL     OW72589   7.922   9.427   1.841  0.1117 -0.4677  0.0246
20204SOL    HW172590   7.973   9.482   1.781 -1.4468  0.7356 -0.2709
20204SOL    HW272591   7.981   9.409   1.914  1.5819 -0.7826 -1.2010
20205SOL     OW72592   4.094   7.389   3.637  0.3140  0.6217  0.4092
20205SOL    HW172593   4.019   7.366   3.582  0.6016 -0.3525  0.4154
20205SOL    HW272594   4.077   7.344   3.720  2.2059 -1.8946 -0.4652
20206SOL     OW72595   5.234   1.410  10.304 -0.2679 -0.2262  0.1166
20206SOL    HW172596   5.278   1.348  10.246  1.3953  0.3402  0.7060
20206SOL    HW272597   5.181   1.355  10.361  0.4045 -1.0389 -0.0176
20207SOL     OW72598   2.601   2.257   0.765  0.1286 -0.0418 -0.5650
20207SOL    HW172599   2.661   2.277   0.837  0.4632 -2.5718 -0.0306
20207SOL    HW272600   2.657   2.219   0.697 -0.4879  0.2617 -1.2529
20208SOL     OW72601   5.472   2.493   7.396 -0.0770  0.2225 -0.2955
20208SOL    HW172602   5.488   2.405   7.362  1.7662  0.5537 -0.3519
20208SOL    HW272603   5.393   2.523   7.350  0.6117 -0.5030 -2.0015
20209SOL     OW72604   0.641   2.765   4.168  0.0652  0.4867 -0.1711
20209SOL    HW172605   0.620   2.685   4.121 -0.8366 -0.7032  2.1032
20209SOL    HW272606   0.724   2.746   4.212 -1.3721 -0.2549  2.4183
20210SOL     OW72607   0.742   8.339   0.052  0.4852 -0.0465  0.4029
20210SOL    HW172608   0.815   8.358  -0.008 -1.3984  2.1724 -1.3448
20210SOL    HW272609   0.689   8.275   0.004  0.1462 -0.0152  0.7406
20211SOL     OW72610   2.178   5.475   4.586 -0.2811 -0.2346 -0.2309
20211SOL    HW172611   2.084   5.474   4.567 -0.4216 -1.3796  0.4725
20211SOL    HW272612   2.192   5.558   4.631 -1.0780 -0.3278  0.2111
20212SOL     OW72613   7.128   5.871  10.254  0.2557 -0.5780  0.3275
20212SOL    HW172614   7.033   5.859  10.244  0.3666 -1.4568  0.2352
20212SOL    HW272615   7.166   5.823  10.180  0.8553 -2.1962  1.5959
20213SOL     OW72616   2.737   0.256   2.323  0.1518  0.1483  0.1984
20213SOL    HW172617   2.828   0.265   2.353  0.0157  1.7972  0.2444
20213SOL    HW272618   2.744   0.254   2.228  0.2868 -0.7654  0.2156
20214SOL     OW72619   5.568   5.432   9.428  0.7265  0.2738 -0.0437
20214SOL    HW172620   5.503   5.401   9.491  0.8657  0.9405  0.4382
20214SOL    HW272621   5.555   5.527   9.424  1.2084  0.3281 -0.4676
20215SOL     OW72622   4.903   8.638   0.716  0.1413 -0.4510 -0.1033
20215SOL    HW172623   4.989   8.597   0.713 -0.4753 -1.7998 -0.1388
20215SOL    HW272624   4.870   8.620   0.804 -0.2154 -0.1570 -0.1710
20216SOL     OW72625   1.390   8.293   7.508 -0.4644  0.2520 -0.0531
20216SOL    HW172626   1.320   8.326   7.452 -0.1738  1.3597  0.2024
20216SOL    HW272627   1.463   8.353   7.493 -0.5890  0.9879  1.9720
20217SOL     OW72628  10.083   8.326   0.799 -0.2302  0.0482 -0.3302
20217SOL    HW172629  10.060   8.386   0.728 -0.4862  0.9317  0.4796
20217SOL    HW272630  10.038   8.244   0.777 -0.7145  0.4705 -0.9350
20218SOL     OW72631   9.082   7.979   1.516 -0.0913  0.2197 -0.4103
20218SOL    HW172632   9.048   7.937   1.437  1.1649  1.4512 -1.6618
20218SOL    HW272633   9.176   7.987   1.500  0.0402  1.3621  0.7920
20219SOL     OW72634   6.502   4.650   4.105 -0.2987  0.2297 -0.2331
20219SOL    HW172635   6.441   4.602   4.049  0.8533  0.3158 -1.6155
20219SOL    HW272636   6.545   4.712   4.046 -0.4831  1.7690  1.1624
20220SOL     OW72637   9.549   3.777   1.874  0.8616 -0.2611  0.1004
20220SOL    HW172638   9.584   3.691   1.897 -1.5877 -0.9479  1.6027
20220SOL    HW272639   9.627   3.830   1.855  2.4914 -2.5098  0.0731
20221SOL     OW72640   6.098   1.595   4.840  0.4373 -0.2050  0.2813
20221SOL    HW172641   6.112   1.525   4.904  0.2964 -1.5646 -1.1301
20221SOL    HW272642   6.006   1.620   4.851  0.0045 -1.4579 -0.3642
20222SOL     OW72643   9.353   5.289   1.423 -0.5550  0.3372  0.8505
20222SOL    HW172644   9.367   5.383   1.431  0.3586  0.5969 -2.3343
20222SOL    HW272645   9.439   5.254   1.400 -1.0661 -1.1648  1.0712
20223SOL     OW72646   1.312   6.875   6.336 -0.0674  0.1955  0.5092
20223SOL    HW172647   1.333   6.855   6.244  1.4471 -1.4612  1.1542
20223SOL    HW272648   1.348   6.962   6.350  0.1844  0.2390 -0.3257
20224SOL     OW72649  10.343   9.914   3.189 -0.2815 -0.0270 -0.4473
20224SOL    HW172650  10.367  10.001   3.158 -0.8837  0.2154 -0.2526
20224SOL    HW272651  10.291   9.930   3.268  0.5480 -0.6049  0.2383
20225SOL     OW72652   9.543   7.172   7.741 -0.2187 -0.1174  0.4745
20225SOL    HW172653   9.493   7.091   7.750  0.0818 -0.4496 -0.6761
20225SOL    HW272654   9.508   7.229   7.810 -1.2068 -0.8298  0.5925
20226SOL     OW72655   1.631   9.149  10.289  0.3699  0.4659 -0.2652
20226SOL    HW172656   1.695   9.131  10.359  0.7554 -0.5821 -0.8671
20226SOL    HW272657   1.555   9.185  10.335  0.9033  0.5031  0.6086
20227SOL     OW72658   6.607   7.696   4.364  0.2102 -0.0077 -0.0899
20227SOL    HW172659   6.652   7.756   4.305  0.3793 -0.0181  0.0280
20227SOL    HW272660   6.527   7.742   4.389  0.0022 -0.1165 -0.5445
20228SOL     OW72661   5.288   4.215   1.604  0.4811 -0.0058  0.1024
20228SOL    HW172662   5.239   4.196   1.524  0.5236 -0.9806  0.2952
20228SOL    HW272663   5.221   4.239   1.668  0.0636 -2.6435  0.7493
20229SOL     OW72664  10.152   5.602   0.157 -0.5332  0.2568 -0.1024
20229SOL    HW172665  10.070   5.650   0.168  0.0222  1.3183 -0.4434
20229SOL    HW272666  10.175   5.615   0.065 -0.7476 -1.3085 -0.4038
20230SOL     OW72667   5.513   9.336   4.764  0.4522  0.0531  0.1902
20230SOL    HW172668   5.476   9.263   4.814 -0.5918  0.0333 -0.5631
20230SOL    HW272669   5.566   9.294   4.697  1.1967  0.0518  0.7748
20231SOL     OW72670   5.818   9.844   5.747 -0.3842 -0.2914 -0.1047
20231SOL    HW172671   5.800   9.908   5.816  0.3770  0.5346 -0.6470
20231SOL    HW272672   5.890   9.792   5.782 -0.4280 -0.2935 -0.0154
20232SOL     OW72673   2.038   5.756   7.846 -0.4890 -0.0347 -0.3401
20232SOL    HW172674   2.078   5.843   7.836 -2.0778  0.6621 -1.0276
20232SOL    HW272675   1.985   5.763   7.925 -0.0994 -0.5995 -0.0263
20233SOL     OW72676   8.493   7.528   0.034 -0.1721 -0.0504  0.1768
20233SOL    HW172677   8.446   7.460  -0.015 -2.5481 -0.3876  2.6746
20233SOL    HW272678   8.425   7.590   0.061  1.0777  0.5281  2.2863
20234SOL     OW72679   7.762   8.114   5.286 -0.7891 -0.3529 -0.0594
20234SOL    HW172680   7.751   8.087   5.377  0.0864  0.1081  0.2040
20234SOL    HW272681   7.834   8.060   5.253 -1.7750 -1.2515 -0.8137
20235SOL     OW72682   6.952   5.011   2.064  0.1074  0.7279 -0.3204
20235SOL    HW172683   6.892   5.079   2.095 -2.1543 -1.4845  0.5206
20235SOL    HW272684   6.999   4.984   2.143  1.7003  1.8544 -0.8228
20236SOL     OW72685   2.793   7.912   0.228 -0.3746 -0.2080 -0.1497
20236SOL    HW172686   2.789   7.938   0.136  0.4716 -1.8382 -0.6856
20236SOL    HW272687   2.873   7.859   0.234 -0.3977 -0.0739  1.5333
20237SOL     OW72688   9.057   1.352   0.097  0.6743 -0.7470 -0.1059
20237SOL    HW172689   9.103   1.274   0.129 -0.1829 -1.1563  0.1686
20237SOL    HW272690   9.039   1.403   0.176 -0.1984 -1.0709 -0.0877
20238SOL     OW72691   0.838   0.192   4.050 -0.6955  0.2734  0.4367
20238SOL    HW172692   0.823   0.106   4.010 -1.2504  0.0699  1.0572
20238SOL    HW272693   0.756   0.211   4.095 -1.2721  1.9790 -1.1963
20239SOL     OW72694   5.356   5.378   1.474  0.0724 -0.1548  0.4483
20239SOL    HW172695   5.305   5.431   1.536 -1.1398 -0.1655 -0.5089
20239SOL    HW272696   5.362   5.431   1.395  0.7313 -0.5595  0.2163
20240SOL     OW72697   4.182   7.079   1.241 -0.4613 -0.2547  0.1083
20240SOL    HW172698   4.232   7.151   1.278 -0.1529 -0.2176 -0.3771
20240SOL    HW272699   4.095   7.088   1.281 -0.7054  0.9427 -0.6314
20241SOL     OW72700   2.606   0.102   0.545  0.1527 -0.1640 -0.0878
20241SOL    HW172701   2.628   0.082   0.636 -0.9880  0.8130  0.4452
20241SOL    HW272702   2.690   0.115   0.502  0.7527 -1.8883  0.5065
20242SOL     OW72703  10.334   2.963   8.310 -0.4351 -0.0211  0.0066
20242SOL    HW172704  10.257   2.971   8.254 -0.0304  1.2467 -0.4040
20242SOL    HW272705  10.299   2.931   8.394 -1.4368  0.7103 -0.1106
20243SOL     OW72706   0.069   1.468   7.642  0.3665  0.4260 -0.5394
20243SOL    HW172707   0.059   1.383   7.598  0.7559 -0.3850  0.8676
20243SOL    HW272708  -0.005   1.520   7.611 -0.1538 -0.6047 -1.0658
20244SOL     OW72709   2.744   7.262   0.371  0.5342  0.0631 -0.7924
20244SOL    HW172710   2.686   7.198   0.412  0.6113  0.7582  0.4617
20244SOL    HW272711   2.825   7.214   0.354  0.0782 -0.5486 -1.2402
20245SOL     OW72712   6.297   6.577   1.156  0.0244  0.1843  0.0198
20245SOL    HW172713   6.223   6.518   1.139 -0.2867  0.1471  1.4009
20245SOL    HW272714   6.317   6.565   1.249  0.2690  1.8928  0.2214
20246SOL     OW72715   2.502   7.359   4.863  0.2062  0.1227  0.2889
20246SOL    HW172716   2.568   7.368   4.931 -0.0150  1.0325  0.3929
20246SOL    HW272717   2.541   7.298   4.800  0.8966  0.1899  0.6423
20247SOL     OW72718   9.152   7.254   0.466 -0.0159 -0.3638  0.1130
20247SOL    HW172719   9.098   7.182   0.433 -1.3053  0.2664  0.7625
20247SOL    HW272720   9.232   7.212   0.498 -0.1842 -1.3482 -0.7270
20248SOL     OW72721   7.479   2.458   5.690 -0.0350 -0.2871  0.1230
20248SOL    HW172722   7.484   2.490   5.780  1.4669 -0.3288  0.0887
20248SOL    HW272723   7.530   2.521   5.639 -0.3994 -0.5735 -0.6115
20249SOL     OW72724   1.556   9.885   5.703  0.3342  0.4311 -0.5535
20249SOL    HW172725   1.634   9.935   5.728 -0.0137  0.2823  0.9382
20249SOL    HW272726   1.590   9.800   5.677  1.0063  1.5464 -3.8176
20250SOL     OW72727   3.226  10.152   5.077  0.3874  0.1904  0.2899
20250SOL    HW172728   3.189  10.237   5.052 -0.3747 -0.9431 -3.0369
20250SOL    HW272729   3.310  10.148   5.031 -0.4360 -1.5163 -1.1872
20251SOL     OW72730   2.438   1.781   6.040  0.2829  0.0633 -0.6404
20251SOL    HW172731   2.439   1.816   6.129  0.8254  2.3069 -1.4559
20251SOL    HW272732   2.351   1.742   6.031  0.5240 -1.0149  1.1124
20252SOL     OW72733   4.996   5.280   0.480 -0.2820 -0.3717  0.5787
20252SOL    HW172734   4.920   5.329   0.448 -0.9717 -1.8477 -0.1355
20252SOL    HW272735   5.071   5.337   0.460 -0.9733  0.0256 -1.0845
20253SOL     OW72736   3.342  10.135   0.403 -0.6984  0.4574 -0.7734
20253SOL    HW172737   3.395  10.058   0.384  0.5960  1.0816  0.1910
20253SOL    HW272738   3.403  10.209   0.394 -0.5375  1.0046  3.2181
20254SOL     OW72739   3.551   4.687   6.112 -0.3751  0.2309 -0.1643
20254SOL    HW172740   3.601   4.759   6.149  0.8426 -1.5320  1.7888
20254SOL    HW272741   3.612   4.645   6.051 -0.3539 -0.3720  0.2682
20255SOL     OW72742   9.354   6.295   6.133 -0.0940  0.1590 -0.2375
20255SOL    HW172743   9.446   6.321   6.127  0.6616 -1.5918  1.9006
20255SOL    HW272744   9.318   6.348   6.204  0.2670 -1.4175  1.2010
20256SOL     OW72745   8.172   6.848   8.763  0.8912  0.4250 -0.3000
20256SOL    HW172746   8.220   6.776   8.721  2.7652  1.1719  0.4660
20256SOL    HW272747   8.159   6.818   8.853  0.1440  0.3633 -0.4174
20257SOL     OW72748   7.155   5.001   6.376 -0.5942 -0.8442 -0.1715
20257SOL    HW172749   7.116   4.977   6.460 -1.4556 -0.0106 -0.3142
20257SOL    HW272750   7.089   5.056   6.334  0.1674 -0.5716 -1.0418
20258SOL     OW72751   5.921   9.102   3.462  0.2984 -0.4860  0.2335
20258SOL    HW172752   5.997   9.125   3.408  1.3016 -0.1181  1.7339
20258SOL    HW272753   5.938   9.144   3.546 -1.2768 -0.9344  0.8102
20259SOL     OW72754   7.739   1.633  10.145  0.3164  0.0753  0.2171
20259SOL    HW172755   7.781   1.715  10.121  0.9934 -0.1691  0.5422
20259SOL    HW272756   7.748   1.578  10.067 -1.5899  0.8395 -0.6054
20260SOL     OW72757  10.377   1.175   2.937  0.0939 -0.4263 -1.2963
20260SOL    HW172758  10.361   1.105   2.873  0.9515  0.7203 -2.8200
20260SOL    HW272759  10.472   1.187   2.937  0.0737 -0.1305 -0.0762
20261SOL     OW72760   4.543   9.211   5.953 -0.4593  0.0273 -0.0837
20261SOL    HW172761   4.484   9.178   6.021 -1.3592  0.0381 -0.8378
20261SOL    HW272762   4.540   9.144   5.885  0.3092  0.0949 -0.1964
20262SOL     OW72763   2.919   1.521   7.702 -0.2689 -0.2993 -0.0443
20262SOL    HW172764   2.846   1.545   7.645 -0.2214  0.2035  0.1057
20262SOL    HW272765   2.995   1.521   7.644 -0.3768 -0.7690 -0.1891
20263SOL     OW72766   8.490   4.950   4.761  0.2805  0.1931 -0.2975
20263SOL    HW172767   8.529   5.003   4.832 -0.8779  1.2417 -0.4038
20263SOL    HW272768   8.537   4.978   4.682  0.3658  0.3216 -0.2022
20264SOL     OW72769   7.094   2.278   0.368  0.0854 -0.3096 -0.3138
20264SOL    HW172770   7.034   2.336   0.322  1.8543  0.1091 -2.2161
20264SOL    HW272771   7.084   2.300   0.460 -1.3951  0.9414 -0.7480
20265SOL     OW72772   6.028   9.244   4.585 -0.0310 -0.1222  0.4098
20265SOL    HW172773   6.026   9.164   4.533 -0.9310  0.1049  0.0848
20265SOL    HW272774   6.115   9.244   4.626  0.2336 -0.9042 -0.1389
20266SOL     OW72775   6.729   3.602   8.880 -0.0457  0.6707 -0.2264
20266SOL    HW172776   6.790   3.670   8.907  0.3255  0.2994 -0.1104
20266SOL    HW272777   6.643   3.642   8.889 -0.2401 -0.1599  4.1740
20267SOL     OW72778   5.676   5.179   1.399 -0.7442  0.3917 -0.5898
20267SOL    HW172779   5.592   5.161   1.441 -1.1238  1.4469 -0.8550
20267SOL    HW272780   5.655   5.243   1.332  0.3173  0.8562 -0.4928
20268SOL     OW72781   6.901   9.857   3.865 -0.2013  0.7471  0.5210
20268SOL    HW172782   6.872   9.772   3.898 -3.0268  1.6298  0.5912
20268SOL    HW272783   6.939   9.901   3.942  0.9502 -0.2666  0.5638
20269SOL     OW72784   6.982   0.914   3.706  0.1992  0.2719  0.2237
20269SOL    HW172785   6.917   0.980   3.682 -1.2965 -0.8081  1.1263
20269SOL    HW272786   7.043   0.960   3.764  0.5624  1.4270 -1.0340
20270SOL     OW72787   8.877   0.207   3.891 -0.2619 -0.2400 -0.6031
20270SOL    HW172788   8.826   0.276   3.933  1.0846 -0.5251  1.6543
20270SOL    HW272789   8.926   0.251   3.823 -1.5684  0.4783 -1.1148
20271SOL     OW72790   2.216  10.080   0.652  0.3000 -0.2691 -0.2582
20271SOL    HW172791   2.282  10.020   0.619  1.3723 -0.2470  1.6852
20271SOL    HW272792   2.243  10.166   0.619  0.6355 -0.4089 -0.3546
20272SOL     OW72793   2.849   9.808   7.619  0.7844 -0.7934  0.6630
20272SOL    HW172794   2.793   9.734   7.643 -2.9924  1.5373  0.0172
20272SOL    HW272795   2.843   9.813   7.523 -0.6719  1.3179  0.7875
20273SOL     OW72796   3.073   0.035   2.761  0.1131 -0.0962  0.0350
20273SOL    HW172797   3.059   0.018   2.854  4.3298  1.5567  1.1658
20273SOL    HW272798   3.082  -0.052   2.722  0.2112 -0.7797  1.5230
20274SOL     OW72799   5.217   0.773   5.434  0.2627 -0.3625 -0.0045
20274SOL    HW172800   5.143   0.831   5.418  0.8953  0.4577 -0.0696
20274SOL    HW272801   5.180   0.698   5.480 -0.3905  0.7197  1.3159
20275SOL     OW72802   1.100   7.425   1.372 -0.3684 -0.2468  0.3544
20275SOL    HW172803   1.103   7.520   1.358 -1.1372 -0.0519  1.3741
20275SOL    HW272804   1.145   7.388   1.297  1.4454  1.0057  0.7612
20276SOL     OW72805   4.706   6.884   5.661  0.2285 -0.6419  0.3241
20276SOL    HW172806   4.632   6.825   5.647 -0.4128  0.0312  0.7712
20276SOL    HW272807   4.666   6.963   5.697  1.0730  0.0440 -0.2053
20277SOL     OW72808   3.498   1.979   7.547  0.4239 -0.1557  0.1626
20277SOL    HW172809   3.412   1.938   7.535  1.0411 -1.0291 -1.6342
20277SOL    HW272810   3.489   2.067   7.510  0.7788 -0.9143 -1.8579
20278SOL     OW72811   9.861   8.033   0.142  0.5990  0.5880  0.2210
20278SOL    HW172812   9.775   8.015   0.180 -0.1739  0.9845 -1.2747
20278SOL    HW272813   9.868   8.129   0.145 -1.2041  1.0538 -4.0242
20279SOL     OW72814   0.420   7.661   0.017 -0.7278  0.4268 -0.1105
20279SOL    HW172815   0.358   7.591   0.031 -1.6704  1.3710  0.5705
20279SOL    HW272816   0.473   7.664   0.096 -0.6944  0.4819 -0.1341
20280SOL     OW72817   3.954   9.731   9.052 -0.6074  0.2446  0.1885
20280SOL    HW172818   3.893   9.657   9.057  1.3470 -1.4064  1.3607
20280SOL    HW272819   3.933   9.784   9.128  1.1413 -1.8437  2.2711
20281SOL     OW72820   1.189   5.167   1.824  0.0635  0.3617 -0.7732
20281SOL    HW172821   1.164   5.164   1.917 -0.7994 -1.0682 -1.0236
20281SOL    HW272822   1.113   5.131   1.778  0.5927  0.8048 -2.0252
20282SOL     OW72823   8.509   7.767   2.507  0.1021 -0.0265  0.1872
20282SOL    HW172824   8.548   7.694   2.460  0.2589 -0.1567  0.5141
20282SOL    HW272825   8.545   7.845   2.466 -0.1107 -0.1307 -0.2028
20283SOL     OW72826   8.701   6.400   3.803 -0.1155  0.7505  0.3482
20283SOL    HW172827   8.738   6.422   3.717 -0.7525 -0.3869 -0.2360
20283SOL    HW272828   8.743   6.462   3.863 -1.2536  3.0362 -1.0680
20284SOL     OW72829   1.367   7.749   7.069  0.0269 -0.6289 -0.1863
20284SOL    HW172830   1.361   7.825   7.126  2.9056  0.7968 -1.6018
20284SOL    HW272831   1.456   7.717   7.080  0.0071 -1.5775 -2.2900
20285SOL     OW72832   8.664   3.067   1.745  0.0322 -0.2637  0.7811
20285SOL    HW172833   8.662   3.030   1.833  1.5779  2.1645  1.9397
20285SOL    HW272834   8.710   3.001   1.692 -0.7729 -1.6774  1.7798
20286SOL     OW72835   6.488   2.590   4.902  0.9817  0.2171 -0.0969
20286SOL    HW172836   6.489   2.681   4.873  0.3367 -0.0551 -1.0266
20286SOL    HW272837   6.568   2.580   4.954  2.5101  0.6004 -2.2267
20287SOL     OW72838   9.908   8.521   1.358 -0.2270  0.2829 -0.3153
20287SOL    HW172839   9.843   8.490   1.294 -0.9045 -1.1364  1.0023
20287SOL    HW272840   9.882   8.611   1.378 -0.9425  0.2008 -0.8450
20288SOL     OW72841   3.117   3.865   2.913  0.3501  0.1300 -0.1062
20288SOL    HW172842   3.198   3.850   2.962  0.2629 -1.9931 -0.5131
20288SOL    HW272843   3.137   3.836   2.824 -0.4948  0.7176 -0.4963
20289SOL     OW72844   2.046   7.369   9.484 -0.4267 -0.0733  0.3698
20289SOL    HW172845   2.010   7.300   9.540 -0.5005  1.3581  2.2187
20289SOL    HW272846   2.010   7.352   9.398 -0.4871 -2.2826  0.7604
20290SOL     OW72847   3.836  10.155   5.449  0.1529 -0.3057 -0.4513
20290SOL    HW172848   3.806  10.155   5.540 -0.0660  2.5068 -0.4435
20290SOL    HW272849   3.756  10.144   5.398 -0.0293  0.3868 -0.3242
20291SOL     OW72850   4.533   3.435   6.691 -0.3447  0.1512 -0.3394
20291SOL    HW172851   4.541   3.511   6.633 -1.2375  0.7603  0.3155
20291SOL    HW272852   4.465   3.381   6.650 -0.4029  0.1854 -0.2879
20292SOL     OW72853   2.686   1.064   8.572  0.3118 -0.2564  0.1675
20292SOL    HW172854   2.639   1.094   8.493  1.5771 -0.5570 -0.7255
20292SOL    HW272855   2.620   1.014   8.620 -1.0220  1.4648  0.2507
20293SOL     OW72856   8.595   7.133   0.554  0.0161  0.2532  0.1689
20293SOL    HW172857   8.648   7.075   0.500 -0.9609 -0.0262 -0.5193
20293SOL    HW272858   8.584   7.087   0.637  2.1369  1.0011  0.9179
20294SOL     OW72859   6.812   0.910   0.068  0.2315  0.2032 -0.1240
20294SOL    HW172860   6.725   0.883   0.039 -0.2880 -1.4178  2.5968
20294SOL    HW272861   6.796   0.958   0.150  1.8700  0.1389  0.2620
20295SOL     OW72862   9.353   7.469   2.142  0.5531  0.2955 -0.4262
20295SOL    HW172863   9.316   7.555   2.159  0.5437  0.3226 -0.5824
20295SOL    HW272864   9.413   7.454   2.215  0.3974  0.3431 -0.2859
20296SOL     OW72865   0.146   7.693   2.321  0.5018 -0.2281 -0.2965
20296SOL    HW172866   0.159   7.608   2.363 -0.7547 -0.3143 -0.0518
20296SOL    HW272867   0.235   7.726   2.306  1.0750  0.2146  3.2192
20297SOL     OW72868  10.215   0.738   7.081 -1.0746 -0.1953  0.1614
20297SOL    HW172869  10.191   0.825   7.048 -0.4166  0.2129  0.7235
20297SOL    HW272870  10.140   0.712   7.136 -0.8630  0.4539  0.7801
20298SOL     OW72871   2.451   0.270   2.168  0.0621  0.3928 -0.2310
20298SOL    HW172872   2.501   0.192   2.145 -0.8987  0.0320 -1.1915
20298SOL    HW272873   2.489   0.340   2.114  0.2772  0.3742 -0.1043
20299SOL     OW72874  10.242   0.482   3.076  0.0299  0.2355 -0.0018
20299SOL    HW172875  10.312   0.506   3.137  0.2190  0.9665 -0.4973
20299SOL    HW272876  10.217   0.394   3.103  3.0076 -1.2291 -1.4636
20300SOL     OW72877   1.326   2.156   9.535 -0.3512  0.2596 -0.3658
20300SOL    HW172878   1.251   2.187   9.585  1.7491  1.0832  2.5007
20300SOL    HW272879   1.331   2.063   9.554  0.0067  0.4258  0.3558
20301SOL     OW72880   8.383   5.575   0.538 -0.1779  0.4178  0.1324
20301SOL    HW172881   8.373   5.482   0.560  1.6659 -0.0399 -0.8013
20301SOL    HW272882   8.456   5.577   0.476  0.6673  2.6274  1.1249
20302SOL     OW72883   6.672   2.226  10.086 -0.9961 -0.0392 -0.1170
20302SOL    HW172884   6.686   2.303  10.032 -1.6967  0.3863  0.2913
20302SOL    HW272885   6.592   2.245  10.134  0.7619  0.6352  2.8322
20303SOL     OW72886   4.294   4.652   1.806 -0.8368 -0.1417 -0.3750
20303SOL    HW172887   4.222   4.711   1.829  2.5063  3.4775  1.8823
20303SOL    HW272888   4.299   4.590   1.879 -0.8732  0.4119  0.1006
20304SOL     OW72889   8.456   2.073   1.998  0.0730 -0.3248  0.0612
20304SOL    HW172890   8.412   2.025   1.928 -1.1986  1.9069 -0.7799
20304SOL    HW272891   8.542   2.032   2.005 -1.1306 -3.1062 -0.0958
20305SOL     OW72892   7.847   9.727   5.858  0.3524  0.4798  0.0756
20305SOL    HW172893   7.799   9.654   5.895 -0.0243  0.4534 -0.4517
20305SOL    HW272894   7.939   9.709   5.878  0.3039 -0.3577 -0.4305
20306SOL     OW72895   7.593   7.976   5.110  0.9378  0.2469  0.1206
20306SOL    HW172896   7.642   8.041   5.161 -0.5371  0.9869  0.6395
20306SOL    HW272897   7.604   7.895   5.160  1.8514  0.3221  0.0694
20307SOL     OW72898   0.354   1.676   1.891  0.1777 -0.0451  0.2947
20307SOL    HW172899   0.282   1.642   1.944 -0.0576  0.5959  0.4001
20307SOL    HW272900   0.359   1.617   1.816 -0.2888 -0.2479  0.4222
20308SOL     OW72901   8.845   0.151   5.885  0.3562  0.0598  0.0824
20308SOL    HW172902   8.760   0.108   5.875  0.2104  0.4826 -0.5608
20308SOL    HW272903   8.827   0.226   5.942  0.3784 -0.0729  0.2647
20309SOL     OW72904   8.876   1.803   7.647 -0.0755 -0.3027  0.1445
20309SOL    HW172905   8.789   1.809   7.609  0.2913 -0.1768 -0.7056
20309SOL    HW272906   8.861   1.794   7.741 -1.0239 -1.2810 -0.0830
20310SOL     OW72907   8.929   2.590   3.244  0.3153 -0.0941  0.3287
20310SOL    HW172908   8.904   2.673   3.283  0.1173 -0.1198  0.2579
20310SOL    HW272909   8.867   2.527   3.281  0.3799 -0.1856  0.2812
20311SOL     OW72910   6.657   1.935   4.756  0.2419  0.1538 -0.4391
20311SOL    HW172911   6.674   1.841   4.746 -0.3246 -0.1651  1.1931
20311SOL    HW272912   6.570   1.939   4.795  0.2783  1.3678 -0.4585
20312SOL     OW72913   6.032   3.833   8.508 -0.7200 -0.1578 -0.1106
20312SOL    HW172914   6.123   3.862   8.494  0.3342 -3.5037 -1.1847
20312SOL    HW272915   5.979   3.906   8.478  1.4757  2.8146  2.4412
20313SOL     OW72916   6.161  10.082   1.051 -0.0097  0.2731 -0.4888
20313SOL    HW172917   6.210  10.113   0.975  0.5945 -1.1091 -0.7046
20313SOL    HW272918   6.228  10.047   1.110 -0.5659  0.3374  0.1988
20314SOL     OW72919   6.912   7.207   3.870  0.5555 -0.3913  0.0335
20314SOL    HW172920   6.926   7.182   3.961 -0.1156 -1.2454 -0.0748
20314SOL    HW272921   6.819   7.230   3.866  0.9204  1.1276 -0.1167
20315SOL     OW72922   6.500   7.591   1.217  0.0154  0.1189 -0.4382
20315SOL    HW172923   6.538   7.615   1.302 -2.2705 -1.2031  1.0652
20315SOL    HW272924   6.408   7.616   1.224 -0.3872 -0.6723 -2.2775
20316SOL     OW72925   7.911   9.555   1.169 -0.0383 -0.5772 -0.1930
20316SOL    HW172926   7.987   9.550   1.110 -0.6583  1.6397 -1.2557
20316SOL    HW272927   7.941   9.610   1.242 -0.8738  1.1799 -1.1203
20317SOL     OW72928   6.999   2.724   9.620  0.3163  0.3316  0.0826
20317SOL    HW172929   6.922   2.765   9.659 -0.5791  0.0594 -1.3204
20317SOL    HW272930   7.001   2.636   9.659 -2.1077 -0.9119 -2.2274
20318SOL     OW72931   0.118   2.391   5.140 -0.0396 -0.7157  0.3822
20318SOL    HW172932   0.094   2.322   5.202 -1.1724 -1.5738 -0.9535
20318SOL    HW272933   0.143   2.344   5.060  1.7234  0.3515  0.2630
20319SOL     OW72934   7.388   6.869   7.557 -0.0776 -0.1118 -0.0256
20319SOL    HW172935   7.297   6.839   7.564  0.1916 -0.8886  0.2776
20319SOL    HW272936   7.437   6.791   7.528  0.1296  0.8961 -2.7215
20320SOL     OW72937   1.122   7.835   3.337 -0.1755 -0.1917  0.3157
20320SOL    HW172938   1.141   7.928   3.342  0.2000 -0.2230 -0.3391
20320SOL    HW272939   1.178   7.795   3.403  0.2554 -0.0268  0.0596
20321SOL     OW72940   1.085   1.415   9.300  0.4971  0.4793 -0.4261
20321SOL    HW172941   1.100   1.442   9.391  0.4128  0.2463 -0.3427
20321SOL    HW272942   1.173   1.401   9.265  0.5053 -0.1739 -0.1539
20322SOL     OW72943   9.151  10.092  10.259  0.3400 -0.0097 -0.7609
20322SOL    HW172944   9.236  10.051  10.279  0.0174  0.4544  1.9624
20322SOL    HW272945   9.087  10.023  10.277  0.0213  0.3587 -0.4908
20323SOL     OW72946   4.833   9.308   3.085  0.4876 -0.5926 -0.5284
20323SOL    HW172947   4.867   9.355   3.009  0.9792  1.4063  0.8397
20323SOL    HW272948   4.882   9.226   3.087  1.8257  0.1628 -1.2962
20324SOL     OW72949   7.055   8.140   5.832  0.1654  0.2330  0.1125
20324SOL    HW172950   7.007   8.059   5.812 -0.0893  0.4262 -0.0765
20324SOL    HW272951   7.072   8.179   5.746 -1.1408  1.1909  0.2470
20325SOL     OW72952   1.466   6.165   7.254  0.3764 -0.2933 -0.1882
20325SOL    HW172953   1.479   6.249   7.297  1.1272 -0.6181  0.2313
20325SOL    HW272954   1.511   6.102   7.310  1.3236 -0.7429 -1.4260
20326SOL     OW72955   8.812   1.364   0.394  0.5329 -0.6677 -0.6097
20326SOL    HW172956   8.723   1.362   0.360  0.4786 -0.0424 -0.5153
20326SOL    HW272957   8.828   1.456   0.415  0.1057 -1.1711  2.2823
20327SOL     OW72958   4.242   8.961   4.123 -0.3717 -0.2634 -0.3252
20327SOL    HW172959   4.335   8.980   4.126 -0.2543 -0.9266  0.8971
20327SOL    HW272960   4.215   8.984   4.034  0.5143  1.8764 -0.1105
20328SOL     OW72961   7.763  10.165   5.698  0.0907 -0.2393  0.8795
20328SOL    HW172962   7.814  10.225   5.752  0.9214  0.6527 -0.8328
20328SOL    HW272963   7.817  10.150   5.620 -2.1117  0.5866 -0.9286
20329SOL     OW72964   1.017   3.464   8.968  0.1734 -0.4255  0.5506
20329SOL    HW172965   1.008   3.475   9.063  1.4439  2.6434  0.4278
20329SOL    HW272966   1.110   3.445   8.954 -0.3894 -3.1972 -0.0217
20330SOL     OW72967   2.805   9.526   5.604  0.0317 -0.5201  0.1781
20330SOL    HW172968   2.779   9.447   5.556 -0.9721  0.8230 -1.6124
20330SOL    HW272969   2.895   9.543   5.575  0.0958 -0.7587  0.2343
20331SOL     OW72970   3.288   9.270   0.922  0.1611  0.1611  0.3245
20331SOL    HW172971   3.348   9.334   0.883 -0.9898  1.6155  0.8185
20331SOL    HW272972   3.274   9.206   0.853  0.0897  1.3534 -0.8234
20332SOL     OW72973  10.312   5.096   4.360  0.2765 -0.3528 -0.0465
20332SOL    HW172974  10.269   5.076   4.443  2.7312 -1.6884  1.0032
20332SOL    HW272975  10.406   5.091   4.379  0.9480  0.1993 -2.7124
20333SOL     OW72976   5.967   1.369   0.073 -0.3445  0.2861  0.7185
20333SOL    HW172977   6.062   1.380   0.080 -0.3611 -0.4184  2.5260
20333SOL    HW272978   5.931   1.448   0.112 -0.5340  0.7769 -0.4070
20334SOL     OW72979  10.274   0.913   8.715 -0.3154 -0.1452  0.0694
20334SOL    HW172980  10.305   0.826   8.741  1.8359 -0.3155 -2.5844
20334SOL    HW272981  10.188   0.897   8.676 -1.5380 -0.4796  2.6744
20335SOL     OW72982   1.824   4.975   9.808 -0.0321 -0.5269 -0.1727
20335SOL    HW172983   1.828   4.938   9.720  0.9809 -1.5324  0.2700
20335SOL    HW272984   1.742   4.943   9.845 -0.5879  0.1086 -0.8163
20336SOL     OW72985   5.810   7.821   2.146  0.2203 -0.4444  0.5889
20336SOL    HW172986   5.748   7.749   2.135  0.5060 -0.8286  1.4520
20336SOL    HW272987   5.800   7.847   2.238  2.2422 -1.3508  1.1083
20337SOL     OW72988   3.992   9.763   2.876 -0.5212 -0.5245 -0.4372
20337SOL    HW172989   3.980   9.776   2.970 -0.6777 -0.2630 -0.4910
20337SOL    HW272990   3.981   9.850   2.839  0.5501 -0.4478 -0.6018
20338SOL     OW72991   2.117   7.083   7.982  0.4878  0.5658 -0.1312
20338SOL    HW172992   2.117   7.030   7.901 -0.0249  1.1914 -0.5467
20338SOL    HW272993   2.208   7.078   8.013  0.5439 -0.2154 -0.3900
20339SOL     OW72994   2.719   4.793   6.655 -0.1748  1.0329 -0.5740
20339SOL    HW172995   2.811   4.772   6.673 -0.2545  0.5724 -0.6904
20339SOL    HW272996   2.672   4.760   6.732 -0.0218  3.1975  0.5061
20340SOL     OW72997   7.487   4.391   8.757  0.0278 -0.0570  0.6156
20340SOL    HW172998   7.507   4.480   8.784 -0.3445 -0.4080  2.1073
20340SOL    HW272999   7.507   4.337   8.834  2.2091 -1.5296 -0.8570
20341SOL     OW73000   6.662   0.834   3.524  0.4473 -0.4995  0.4060
20341SOL    HW173001   6.753   0.826   3.495 -0.0245 -1.4182 -0.9907
20341SOL    HW273002   6.611   0.808   3.447 -1.0160  0.5091  0.9897
20342SOL     OW73003  10.118   7.947   1.921 -0.9231  0.3432  0.4342
20342SOL    HW173004  10.078   7.900   1.995 -0.8751  0.7328  0.7148
20342SOL    HW273005  10.161   7.879   1.870  0.9903  0.2895  1.9865
20343SOL     OW73006   5.984   0.038   5.865 -0.4128 -0.5022  0.0970
20343SOL    HW173007   6.000  -0.043   5.817  0.5031 -0.3637  0.1371
20343SOL    HW273008   6.042   0.102   5.824  1.7676 -0.7917  2.4442
20344SOL     OW73009   8.515   0.465   2.435 -0.4930 -0.0523  0.1381
20344SOL    HW173010   8.502   0.536   2.497  0.4246  1.3246 -1.1735
20344SOL    HW273011   8.608   0.441   2.444 -0.5084 -0.2781 -0.2511
20345SOL     OW73012   2.689   9.258   3.609 -0.2994  0.4727 -0.0761
20345SOL    HW173013   2.666   9.350   3.595 -0.0641  0.7687  1.2734
20345SOL    HW273014   2.783   9.260   3.629  0.3633 -0.4000 -2.6890
20346SOL     OW73015   9.805   1.202   3.844  0.0265  0.6522 -0.6642
20346SOL    HW173016   9.884   1.241   3.881 -0.2838 -0.5206  1.3906
20346SOL    HW273017   9.794   1.120   3.892 -1.9321  0.3525 -1.5298
20347SOL     OW73018   3.302   9.416   2.710 -0.5771 -0.7338 -0.5392
20347SOL    HW173019   3.330   9.489   2.656  0.2901 -0.6055  0.0544
20347SOL    HW273020   3.239   9.454   2.772 -0.7115 -0.6503 -0.7281
20348SOL     OW73021   3.883   0.541   2.802 -0.1615  0.0730 -0.4933
20348SOL    HW173022   3.935   0.465   2.774 -0.6712 -0.6486  0.4667
20348SOL    HW273023   3.796   0.505   2.820 -0.1211  0.6861  1.0064
20349SOL     OW73024   8.595   2.239   3.686 -0.0336  0.6735  0.9529
20349SOL    HW173025   8.614   2.278   3.771  0.6115 -0.4390  1.3476
20349SOL    HW273026   8.654   2.284   3.625  2.2920 -1.0541  1.7631
20350SOL     OW73027   2.763   7.490   6.551 -0.1927  0.8661  0.1459
20350SOL    HW173028   2.680   7.442   6.558  0.8513 -1.7026 -2.8167
20350SOL    HW273029   2.813   7.462   6.628 -0.8396 -0.3013  0.1745
20351SOL     OW73030   1.476   2.402   8.050 -1.0374 -0.1707  0.5309
20351SOL    HW173031   1.407   2.395   8.116 -0.9540  0.0045  0.6350
20351SOL    HW273032   1.550   2.440   8.096 -1.0176  0.0631  0.3066
20352SOL     OW73033   6.671   3.444   1.880  0.3806 -0.2275 -0.5060
20352SOL    HW173034   6.700   3.426   1.969  0.3585  0.7915 -0.2852
20352SOL    HW273035   6.578   3.463   1.888  0.2690 -0.6322 -0.8181
20353SOL     OW73036   3.930   4.265   6.899  0.5656  0.2927  0.7493
20353SOL    HW173037   3.983   4.329   6.851  1.5404 -0.5435  0.6701
20353SOL    HW273038   3.847   4.309   6.914  0.4329  0.8108 -1.1843
20354SOL     OW73039   9.470   4.026  10.390  0.0672  0.2775 -0.1889
20354SOL    HW173040   9.479   4.007  10.297  0.4206 -1.5170  0.1831
20354SOL    HW273041   9.547   3.986  10.430 -1.1765 -0.8924  1.1227
20355SOL     OW73042   3.647   8.271   4.561 -0.1650 -0.1877 -0.2349
20355SOL    HW173043   3.653   8.364   4.582 -0.4327  0.4971 -2.8374
20355SOL    HW273044   3.710   8.259   4.489 -0.6315 -1.8751 -0.3971
20356SOL     OW73045   5.802   5.718   7.562 -0.0861  0.1044 -0.4557
20356SOL    HW173046   5.822   5.804   7.600  0.1159 -0.0895 -0.1134
20356SOL    HW273047   5.776   5.737   7.472  3.9121  0.2647 -1.7900
20357SOL     OW73048   5.298  10.213   7.246  0.5644  0.1108 -0.2030
20357SOL    HW173049   5.285  10.258   7.162 -1.3862  1.8725  0.9651
20357SOL    HW273050   5.227  10.150   7.250  1.4642 -0.9453 -0.4358
20358SOL     OW73051   5.565   7.035   4.768 -0.1702  0.1034  0.5049
20358SOL    HW173052   5.532   6.983   4.841  0.7080  2.3458  2.6459
20358SOL    HW273053   5.651   6.998   4.750 -0.2236 -0.2130  0.8759
20359SOL     OW73054   5.433   0.768  10.345  0.5481  0.1790  0.2199
20359SOL    HW173055   5.498   0.837  10.326  0.2098  0.5286  0.3217
20359SOL    HW273056   5.467   0.691  10.300 -0.0750  0.9054 -1.5671
20360SOL     OW73057   8.137  10.258   4.562 -0.0603 -0.3295  0.3468
20360SOL    HW173058   8.063  10.224   4.612 -0.3135 -0.0104  0.1922
20360SOL    HW273059   8.211  10.203   4.588  0.2250  0.9496  2.4434
20361SOL     OW73060   9.875  10.373   7.333 -0.1864  0.5515  0.0104
20361SOL    HW173061   9.792  10.327   7.346  0.5947 -0.6841  0.8460
20361SOL    HW273062   9.867  10.451   7.387 -0.7042  0.2964  0.3195
20362SOL     OW73063   9.956   0.928   0.282  0.4978 -0.1091 -0.0237
20362SOL    HW173064   9.897   0.904   0.353  1.5632 -1.6966  0.3763
20362SOL    HW273065   9.963   0.849   0.229  1.7258  0.2552 -0.4414
20363SOL     OW73066   4.672   8.108   1.732  0.1549  0.0579 -0.0566
20363SOL    HW173067   4.767   8.120   1.731  0.1204  0.6256  1.6580
20363SOL    HW273068   4.651   8.079   1.820 -0.9833 -2.9359 -1.1769
20364SOL     OW73069   9.653   7.853   8.246  0.2345  0.5798  0.2833
20364SOL    HW173070   9.732   7.908   8.243 -0.3793  1.4036 -1.1716
20364SOL    HW273071   9.644   7.831   8.339  0.8098  2.4848  0.8314
20365SOL     OW73072   5.327   3.009   9.204 -0.5100  0.5365 -0.3488
20365SOL    HW173073   5.333   3.020   9.299 -1.4384  2.5403 -0.4774
20365SOL    HW273074   5.267   2.935   9.192  0.3850 -0.3753  0.6055
20366SOL     OW73075   7.056   3.151   9.947 -0.0404 -0.5534  0.0809
20366SOL    HW173076   6.973   3.198   9.936 -0.2247 -0.9610 -0.3193
20366SOL    HW273077   7.066   3.101   9.865 -0.8394 -2.7584  1.2520
20367SOL     OW73078   2.914   2.034   9.705  0.0446  0.2415  0.6205
20367SOL    HW173079   2.882   2.095   9.771 -0.9227  0.3537  0.0695
20367SOL    HW273080   2.843   2.029   9.641 -0.0808 -1.7260  0.8297
20368SOL     OW73081   3.032  10.292   1.183  0.4594  0.0103  0.2947
20368SOL    HW173082   3.114  10.264   1.223 -0.3947 -0.8919  1.4781
20368SOL    HW273083   3.048  10.383   1.157  1.5639  0.1130  1.2546
20369SOL     OW73084   3.528   0.112   3.341  0.1240  0.6336 -0.6707
20369SOL    HW173085   3.532   0.172   3.266 -0.0935  0.7105 -0.6199
20369SOL    HW273086   3.600   0.050   3.325 -0.4926  0.0918 -1.4222
20370SOL     OW73087   0.146   8.259   8.304 -0.3120 -0.3196  1.0466
20370SOL    HW173088   0.196   8.178   8.316 -0.2789 -0.5068 -0.2132
20370SOL    HW273089   0.209   8.322   8.269 -1.2298 -1.0798 -2.3353
20371SOL     OW73090   5.652  10.207  10.177 -0.1526  0.6963 -0.0149
20371SOL    HW173091   5.656  10.113  10.164 -0.5853  0.4835  1.2617
20371SOL    HW273092   5.595  10.239  10.107 -0.3799 -0.0379 -0.1658
20372SOL     OW73093   1.142   6.742   1.754  0.0476  0.8227 -0.1862
20372SOL    HW173094   1.180   6.821   1.717 -0.2529 -0.1739 -2.8177
20372SOL    HW273095   1.048   6.759   1.755  0.1377  1.3882  1.5957
20373SOL     OW73096   9.015   6.452   7.037  0.1013  0.1573 -0.2365
20373SOL    HW173097   8.932   6.407   7.020 -0.5514  1.2220  0.0286
20373SOL    HW273098   9.010   6.532   6.983  0.4134  0.8274  0.7064
20374SOL     OW73099   9.186   7.598   3.444 -0.8493 -0.2797 -0.8096
20374SOL    HW173100   9.197   7.553   3.528 -2.1806 -0.2756 -0.6023
20374SOL    HW273101   9.271   7.636   3.426 -0.5709 -0.1376  0.6303
20375SOL     OW73102   3.094   2.568   9.284 -0.2460  0.0253  0.4171
20375SOL    HW173103   3.135   2.568   9.197 -1.2949  1.3180 -0.1168
20375SOL    HW273104   3.080   2.475   9.304  2.1130 -0.4071  0.2538
20376SOL     OW73105   9.627   3.564   1.999 -0.2598  0.7121  0.4511
20376SOL    HW173106   9.552   3.513   2.027 -0.2614  0.6410  0.3146
20376SOL    HW273107   9.699   3.534   2.056 -0.5747  1.5360  1.3190
20377SOL     OW73108   0.688   7.446   1.040  0.1277 -0.2837 -0.3515
20377SOL    HW173109   0.781   7.466   1.048 -0.3423  1.2679  3.2062
20377SOL    HW273110   0.683   7.352   1.057  0.9546 -0.0920  1.1206
20378SOL     OW73111   2.141   3.109   8.612  0.4295 -0.2971  0.2052
20378SOL    HW173112   2.073   3.144   8.669 -0.0458  0.8834 -1.0348
20378SOL    HW273113   2.092   3.068   8.540  1.0209 -0.7919  0.0792
20379SOL     OW73114   8.336   3.911   6.522  0.4682  0.2030  0.6003
20379SOL    HW173115   8.423   3.906   6.561  1.3163  1.1796 -1.0770
20379SOL    HW273116   8.311   3.819   6.508  1.2070 -0.0848  1.1126
20380SOL     OW73117   2.794   9.201   7.261 -0.0164 -0.0265  0.1450
20380SOL    HW173118   2.857   9.206   7.189  0.0750  0.5131  0.2596
20380SOL    HW273119   2.760   9.111   7.257  1.2172 -0.5319  0.4665
20381SOL     OW73120   5.043   9.339   2.447  0.0960  0.3112 -0.2674
20381SOL    HW173121   5.096   9.323   2.369  0.8671 -2.0423  0.6514
20381SOL    HW273122   5.090   9.295   2.518 -1.2263  1.2982  1.2986
20382SOL     OW73123   3.210   1.202   4.875  0.0880  0.1693  0.2171
20382SOL    HW173124   3.242   1.229   4.789  0.2054 -2.2762 -0.5969
20382SOL    HW273125   3.120   1.172   4.858  1.1236 -3.4279  0.1164
20383SOL     OW73126   9.281   5.137   0.029  0.0735 -0.4658 -0.3253
20383SOL    HW173127   9.284   5.045   0.055 -0.6219 -1.1055 -2.3734
20383SOL    HW273128   9.372   5.166   0.031  0.4059 -1.4717 -0.6011
20384SOL     OW73129   3.995   9.650   0.812  0.1911  0.3242 -0.8734
20384SOL    HW173130   4.005   9.615   0.901  0.0605 -0.1726 -1.0482
20384SOL    HW273131   3.995   9.572   0.756 -0.6650  0.5691 -1.2286
20385SOL     OW73132   5.656   8.538   2.056  0.2154  0.1267  0.2665
20385SOL    HW173133   5.706   8.463   2.090  1.0671  1.1868  1.4448
20385SOL    HW273134   5.618   8.578   2.135 -0.5265  0.7335 -0.3885
20386SOL     OW73135   3.669   6.686   0.155  0.3610 -0.9021 -0.2155
20386SOL    HW173136   3.731   6.616   0.174  0.9402 -0.0077  1.4685
20386SOL    HW273137   3.587   6.658   0.195  0.4843 -0.8115  0.1058
20387SOL     OW73138   7.666   0.436   1.318  0.2924 -0.6194  0.6558
20387SOL    HW173139   7.631   0.370   1.377 -1.3843  0.5506  1.0458
20387SOL    HW273140   7.761   0.423   1.321  0.0360 -3.1490  0.5044
20388SOL     OW73141   9.575   6.059   4.326 -0.1021  0.2164 -0.1241
20388SOL    HW173142   9.501   6.066   4.266 -2.0940  1.1492  2.2519
20388SOL    HW273143   9.652   6.063   4.270 -1.8103  0.1324 -2.6515
20389SOL     OW73144   0.783   4.270   4.038  0.4203 -0.7993 -0.0718
20389SOL    HW173145   0.858   4.240   3.987  0.9934 -0.3458  0.4943
20389SOL    HW273146   0.724   4.308   3.972  0.6507 -1.2146 -0.5276
20390SOL     OW73147  10.351   2.368   2.687 -0.3387 -0.3178  0.2484
20390SOL    HW173148  10.440   2.370   2.723  0.6686 -2.5043 -1.8269
20390SOL    HW273149  10.302   2.314   2.748 -0.5360  1.4619  1.7856
20391SOL     OW73150   3.534   0.052   8.113  0.3252  0.3601  0.1915
20391SOL    HW173151   3.589   0.093   8.179  0.1770 -0.6125  0.9343
20391SOL    HW273152   3.486  -0.015   8.160  0.5328 -0.6392 -0.9813
20392SOL     OW73153   0.166  10.331   2.247 -0.1780 -0.2297 -0.4858
20392SOL    HW173154   0.246  10.328   2.299  0.6888  0.7027 -1.6941
20392SOL    HW273155   0.162  10.246   2.204 -1.0699 -1.1325  1.2642
20393SOL     OW73156   9.046   0.494   5.798  0.3370 -0.3004 -0.1609
20393SOL    HW173157   9.119   0.547   5.829  0.2394 -0.1150 -0.2450
20393SOL    HW273158   8.974   0.556   5.787 -0.0151 -0.5783  0.4982
20394SOL     OW73159   6.483   3.673   6.451 -0.1814 -0.3304 -0.0393
20394SOL    HW173160   6.449   3.762   6.445  0.9460  0.1191 -0.0323
20394SOL    HW273161   6.421   3.627   6.509  0.3827  1.0443  1.7678
20395SOL     OW73162   1.067   7.448   7.850 -0.2870 -0.9418  0.1354
20395SOL    HW173163   1.009   7.429   7.776 -0.4263 -0.5422  0.1386
20395SOL    HW273164   1.154   7.418   7.821 -0.3127 -0.6533 -0.2502
20396SOL     OW73165   9.556   1.468   5.146 -0.8668  0.0848 -0.1603
20396SOL    HW173166   9.532   1.452   5.237 -1.6511  1.9163 -0.0156
20396SOL    HW273167   9.556   1.563   5.137  0.7037  0.0019 -1.6887
20397SOL     OW73168   4.244   7.293   4.807  0.9077 -0.2330  0.4959
20397SOL    HW173169   4.259   7.199   4.819 -0.4950 -0.6156 -0.4375
20397SOL    HW273170   4.167   7.312   4.860  0.1773 -0.0066 -0.5895
20398SOL     OW73171   3.792   8.731   6.088 -0.2973 -0.0258  0.2950
20398SOL    HW173172   3.739   8.652   6.097 -3.1672  1.4861 -1.6257
20398SOL    HW273173   3.754   8.794   6.149  1.7623  0.0742  1.5942
20399SOL     OW73174   3.480   6.367   9.982 -0.1552  0.1859  0.5628
20399SOL    HW173175   3.425   6.315   9.923 -0.9286 -1.1211  2.3388
20399SOL    HW273176   3.447   6.456   9.975 -0.0196  0.1405 -1.1670
20400SOL     OW73177   9.793   3.051   6.071 -0.2288 -0.6743  0.5197
20400SOL    HW173178   9.709   3.084   6.103 -0.9342 -0.2206 -1.6262
20400SOL    HW273179   9.847   3.130   6.060 -0.3933 -0.6926 -0.4554
20401SOL     OW73180   2.867   3.033   3.635 -0.4518 -0.4482 -0.2858
20401SOL    HW173181   2.941   3.080   3.596 -0.8234  0.4391  0.0328
20401SOL    HW273182   2.906   2.974   3.699  0.0350 -0.5904 -0.7105
20402SOL     OW73183   3.666   6.343   0.030 -0.5581 -0.3728  0.5385
20402SOL    HW173184   3.628   6.302  -0.048 -1.5260  1.2408  0.1203
20402SOL    HW273185   3.757   6.314   0.030 -0.0894  0.8124 -2.1100
20403SOL     OW73186   9.436   2.105   4.247 -0.3147  0.1003 -0.5792
20403SOL    HW173187   9.438   2.013   4.223  0.2942  0.1815 -0.8428
20403SOL    HW273188   9.527   2.132   4.251 -0.3575  0.1534  1.6232
20404SOL     OW73189   5.083   7.287   6.512  0.1440 -0.4570  0.3073
20404SOL    HW173190   5.042   7.277   6.598 -0.8666 -0.9996 -0.2184
20404SOL    HW273191   5.175   7.265   6.527  0.0155 -0.3983  1.2767
20405SOL     OW73192   4.098   5.143   1.619  0.1041 -0.1619 -0.8893
20405SOL    HW173193   4.144   5.063   1.644 -1.9798 -1.0392  0.4087
20405SOL    HW273194   4.021   5.112   1.571 -1.6869  0.8567  1.1313
20406SOL     OW73195  10.376   6.043   0.632 -0.8313 -0.7799  0.4845
20406SOL    HW173196  10.313   6.018   0.565 -1.6275 -0.0022  0.9281
20406SOL    HW273197  10.340   6.122   0.672  2.2406  2.0457 -1.7900
20407SOL     OW73198   0.419   2.706   8.671 -0.1824 -0.2962 -0.7515
20407SOL    HW173199   0.407   2.736   8.582  2.0762 -0.8371 -1.3180
20407SOL    HW273200   0.424   2.610   8.664 -0.7771 -0.4022  0.0772
20408SOL     OW73201   4.754   6.836   6.246  0.3215 -0.1686  0.0110
20408SOL    HW173202   4.754   6.871   6.157  0.2674 -0.1198  0.0305
20408SOL    HW273203   4.662   6.831   6.270  0.3311 -0.2728  0.0289
20409SOL     OW73204   7.996   9.062   8.869  0.1469  0.1078  0.0675
20409SOL    HW173205   7.972   8.970   8.865  1.4834 -0.2270 -0.7655
20409SOL    HW273206   8.003   9.089   8.778 -1.3035  1.3477  0.2895
20410SOL     OW73207   9.011   4.359   4.639  0.0882 -0.2620 -0.6665
20410SOL    HW173208   9.036   4.336   4.729  0.7509  0.8573 -0.5446
20410SOL    HW273209   8.921   4.328   4.631  0.4092 -1.4283 -0.0097
20411SOL     OW73210   0.900   7.103   8.922 -0.0500  0.3040  0.4745
20411SOL    HW173211   0.888   7.015   8.956 -0.0944  0.3592  0.6050
20411SOL    HW273212   0.984   7.132   8.957 -0.4828  0.6710  1.2302
20412SOL     OW73213   3.917   6.765   5.995  0.9124 -0.0967  0.3196
20412SOL    HW173214   3.984   6.742   5.930  0.8507 -0.3146  0.3316
20412SOL    HW273215   3.836   6.729   5.960  0.7451  0.4442  0.1540
20413SOL     OW73216   3.234   7.884   7.581 -0.2833 -0.0360 -0.3392
20413SOL    HW173217   3.202   7.974   7.575 -0.1913 -0.0488 -1.1306
20413SOL    HW273218   3.298   7.877   7.510 -0.0020 -0.6081 -0.0298
20414SOL     OW73219   3.460   6.512   3.533 -0.1643 -0.1518  0.1427
20414SOL    HW173220   3.391   6.481   3.592 -0.7372 -0.1947 -0.5442
20414SOL    HW273221   3.422   6.507   3.446  1.1611 -1.5221 -0.4180
20415SOL     OW73222   4.299   1.360  10.237 -0.0801  0.0924  0.9234
20415SOL    HW173223   4.235   1.414  10.282  0.8423  0.0762  2.3012
20415SOL    HW273224   4.376   1.361  10.294  0.5165 -1.3482  0.1911
20416SOL     OW73225   1.844   9.171   0.080  0.1151 -0.2562  0.1777
20416SOL    HW173226   1.907   9.186   0.010  1.3235 -1.3349  0.9910
20416SOL    HW273227   1.872   9.230   0.150 -0.6863  0.3301  0.0211
20417SOL     OW73228   6.739   8.683   2.770 -0.3310  0.5463 -0.3932
20417SOL    HW173229   6.772   8.772   2.757 -1.1790  1.8468  4.2563
20417SOL    HW273230   6.645   8.694   2.782 -0.2756 -0.6968  1.6674
20418SOL     OW73231   3.397   7.533   9.628 -0.2883  0.0549  0.0805
20418SOL    HW173232   3.415   7.614   9.676  1.2576  0.8680 -1.7503
20418SOL    HW273233   3.431   7.463   9.684  1.4042  0.9613  0.2395
20419SOL     OW73234   9.499   2.933   3.017 -0.4388 -0.3498 -0.1897
20419SOL    HW173235   9.461   2.979   3.091  0.9545  1.0248 -0.2616
20419SOL    HW273236   9.576   2.890   3.053  0.5087  0.6990 -0.8629
20420SOL     OW73237   0.124   7.963   8.469  0.1005  0.2178  0.1658
20420SOL    HW173238   0.207   7.953   8.424 -0.1907  1.6741 -0.7766
20420SOL    HW273239   0.140   8.033   8.533 -0.6569  1.3109 -0.7945
20421SOL     OW73240   3.519   1.842   1.148 -0.2612 -0.3968 -0.8145
20421SOL    HW173241   3.601   1.807   1.182 -0.8714 -0.3214  0.8721
20421SOL    HW273242   3.452   1.781   1.180 -1.1318  1.1098  0.4232
20422SOL     OW73243   4.353   3.692   8.272  0.3922 -0.0361  0.6466
20422SOL    HW173244   4.358   3.717   8.180  1.0212 -0.3799  0.5808
20422SOL    HW273245   4.442   3.664   8.294  0.2237 -0.0482  1.3309
20423SOL     OW73246   8.431   0.012   3.861  0.5797  0.3435 -0.7012
20423SOL    HW173247   8.418  -0.068   3.912 -0.9581  0.9461 -0.0747
20423SOL    HW273248   8.413  -0.015   3.770  0.8436 -0.1933 -0.5963
20424SOL     OW73249   3.720   9.871   4.119  0.1416  0.0769 -0.2312
20424SOL    HW173250   3.632   9.882   4.155  0.4428 -0.7454  0.8099
20424SOL    HW273251   3.778   9.911   4.183  0.5778  0.1510 -0.6593
20425SOL     OW73252   4.743   0.300   9.766  0.0253  0.3809  0.2750
20425SOL    HW173253   4.808   0.324   9.832 -0.3911 -0.3995  0.9774
20425SOL    HW273254   4.659   0.301   9.812 -0.3337  0.3202 -0.3639
20426SOL     OW73255  10.038   3.285   0.411 -0.4042  0.3062  0.0443
20426SOL    HW173256  10.089   3.312   0.335  3.6213 -3.1913  1.0882
20426SOL    HW273257   9.984   3.213   0.378  0.8045 -0.7333  0.2688
20427SOL     OW73258   2.053   7.861   0.828  0.0114  0.3246 -0.6546
20427SOL    HW173259   2.136   7.887   0.789  0.9886  0.2593  1.2811
20427SOL    HW273260   2.044   7.768   0.808  0.8722  0.1149 -0.0945
20428SOL     OW73261   9.744   4.364   1.063 -0.7363 -0.2713 -0.7012
20428SOL    HW173262   9.750   4.456   1.039  1.6680 -0.3263 -0.5635
20428SOL    HW273263   9.739   4.365   1.159  0.5872 -0.2651 -0.6089
20429SOL     OW73264   3.842   8.101   5.688  0.7132  0.0826 -0.0310
20429SOL    HW173265   3.782   8.074   5.618  0.0807 -1.1204  0.9384
20429SOL    HW273266   3.789   8.158   5.744  0.7880 -0.1095  0.2378
20430SOL     OW73267   2.195   9.847   6.688  0.1369 -0.0166  0.5582
20430SOL    HW173268   2.260   9.789   6.647  0.2590  0.1047  0.5792
20430SOL    HW273269   2.231   9.935   6.676  0.5579 -0.0247  1.5959
20431SOL     OW73270   7.329   9.801   0.853  0.5152  0.1552 -0.1458
20431SOL    HW173271   7.411   9.805   0.901  0.9581  0.8009 -0.9383
20431SOL    HW273272   7.263   9.831   0.916  1.1930  1.7528 -0.1343
20432SOL     OW73273   8.368   2.848   8.502 -0.1030 -0.4333  0.1224
20432SOL    HW173274   8.288   2.867   8.453 -0.4816 -0.4264  0.7287
20432SOL    HW273275   8.339   2.838   8.593  0.7612  0.8891  0.5683
20433SOL     OW73276   5.015   7.565   8.774  0.1635  0.1618 -0.1950
20433SOL    HW173277   5.017   7.635   8.709  0.8370  0.3583  0.0245
20433SOL    HW273278   4.989   7.487   8.724 -0.9920  0.6412 -0.3541
20434SOL     OW73279   2.944   8.484   3.614  0.0870  0.1880  0.3810
20434SOL    HW173280   2.997   8.457   3.539 -0.4903  1.1217 -0.3846
20434SOL    HW273281   2.993   8.453   3.690  1.9254  1.3327 -0.2639
20435SOL     OW73282   4.651   1.438   9.910  0.8318  0.1082  0.4229
20435SOL    HW173283   4.614   1.501   9.971  0.1065 -0.3932  0.5163
20435SOL    HW273284   4.733   1.478   9.881  1.8372 -0.1512  2.6340
20436SOL     OW73285   7.715   9.500   3.210  0.2613 -0.3692 -0.2354
20436SOL    HW173286   7.790   9.444   3.192  0.0132 -0.7837  0.0047
20436SOL    HW273287   7.752   9.588   3.219  0.4200 -0.1026 -2.7958
20437SOL     OW73288   8.989  10.019   4.327  0.4089  0.2356 -0.0950
20437SOL    HW173289   9.082  10.036   4.339  0.6979 -0.6268 -0.9681
20437SOL    HW273290   8.962  10.076   4.255  0.2666  0.4842  0.1564
20438SOL     OW73291   8.339   5.019   9.141  0.0633 -0.1026  0.4025
20438SOL    HW173292   8.407   4.985   9.082  0.2600  0.6433  0.1962
20438SOL    HW273293   8.324   4.947   9.203  3.7628  0.9202  2.8461
20439SOL     OW73294   2.272   9.675   1.572  0.6574  0.1727  0.2410
20439SOL    HW173295   2.336   9.605   1.590  0.4346  0.2536  1.4085
20439SOL    HW273296   2.193   9.628   1.544  0.6738 -0.0192  0.5116
20440SOL     OW73297   2.368   7.278   3.394  0.2328  0.2048  0.3577
20440SOL    HW173298   2.361   7.198   3.447 -1.3017 -0.1764 -0.3538
20440SOL    HW273299   2.337   7.347   3.453  0.4978  0.0995  0.6222
20441SOL     OW73300   2.706   6.481   7.136  0.1171 -0.1677 -0.6672
20441SOL    HW173301   2.690   6.552   7.074  1.3202  0.1976 -0.5824
20441SOL    HW273302   2.786   6.507   7.182 -0.9531 -0.2106  1.3432
20442SOL     OW73303   6.335   4.541   4.949  0.4753 -0.1107 -0.2141
20442SOL    HW173304   6.370   4.553   5.038  0.7913 -0.0837 -0.3403
20442SOL    HW273305   6.315   4.448   4.944  0.9416 -0.2106 -0.2873
20443SOL     OW73306   1.591   1.807   7.743 -0.1507 -0.4692  0.3959
20443SOL    HW173307   1.496   1.795   7.745 -0.0423 -1.7096 -0.6780
20443SOL    HW273308   1.612   1.851   7.826 -1.5456 -0.9462  1.0233
20444SOL     OW73309   0.112   3.748   9.510  0.0719 -0.2915 -0.1058
20444SOL    HW173310   0.154   3.678   9.461  0.8605  0.0607  0.0518
20444SOL    HW273311   0.080   3.809   9.443 -0.4497 -0.6976 -0.2343
20445SOL     OW73312   1.584   9.888   9.346 -0.2120  0.5103  0.2584
20445SOL    HW173313   1.529   9.815   9.374 -0.7564  1.0316  0.5795
20445SOL    HW273314   1.534   9.930   9.276 -0.5744  1.4152  1.0306
20446SOL     OW73315   3.538   2.691   1.076 -0.0065 -0.0559 -1.0385
20446SOL    HW173316   3.497   2.637   1.144  0.7473  0.2071 -0.3568
20446SOL    HW273317   3.539   2.634   0.999 -1.0657 -0.2865 -0.8985
20447SOL     OW73318  10.238   2.718   2.732  0.5764  0.3710 -0.0150
20447SOL    HW173319  10.182   2.645   2.759  0.7688  0.7729  1.5928
20447SOL    HW273320  10.324   2.678   2.719  0.3026  0.0351 -0.8478
20448SOL     OW73321   5.934  10.322   6.802 -0.0074 -0.1923  0.3421
20448SOL    HW173322   5.984  10.241   6.815 -0.7320 -0.9079 -1.0783
20448SOL    HW273323   5.863  10.297   6.742 -0.0148  1.5796 -0.4557
20449SOL     OW73324   4.419   3.269   0.407 -0.0513 -0.5968 -0.3896
20449SOL    HW173325   4.454   3.180   0.396  1.2005 -0.2434  0.5693
20449SOL    HW273326   4.478   3.311   0.469 -0.8042  0.8229 -0.5905
20450SOL     OW73327   2.774   0.814   9.072  0.6794 -0.4036  0.2821
20450SOL    HW173328   2.691   0.767   9.078  1.2272 -1.6167 -0.8843
20450SOL    HW273329   2.759   0.882   9.006 -0.2811  1.5119  2.3793
20451SOL     OW73330   4.418   9.473   0.515 -0.0617  0.9376 -0.0260
20451SOL    HW173331   4.493   9.532   0.511  0.3320  0.4866  0.5607
20451SOL    HW273332   4.374   9.484   0.431  2.0914 -0.6967 -1.4614
20452SOL     OW73333   3.241   8.747   5.279  0.3018  0.1430 -0.2080
20452SOL    HW173334   3.280   8.774   5.197 -0.2404  1.1160 -0.1580
20452SOL    HW273335   3.196   8.825   5.312 -0.5650 -0.5773  0.3739
20453SOL     OW73336   2.250   3.546   8.848 -0.0470  0.4389  0.5103
20453SOL    HW173337   2.320   3.604   8.880  1.1447 -0.8361  0.3280
20453SOL    HW273338   2.237   3.572   8.757 -0.0758  0.9305  0.6535
20454SOL     OW73339   5.265   7.945   7.015 -0.8973 -0.1956  0.2842
20454SOL    HW173340   5.277   8.027   6.967 -0.6167 -0.4671 -0.1257
20454SOL    HW273341   5.302   7.878   6.956 -3.0428 -0.9105 -0.3550
20455SOL     OW73342   3.266   1.413   7.424 -0.4632  0.4843 -0.0099
20455SOL    HW173343   3.354   1.416   7.387 -0.7418 -1.8098 -1.0083
20455SOL    HW273344   3.264   1.332   7.475 -1.9566  0.5886  0.1387
20456SOL     OW73345   0.850   8.925   6.158 -0.1540  0.2769 -0.6112
20456SOL    HW173346   0.920   8.933   6.094 -0.1035  1.0362 -0.4676
20456SOL    HW273347   0.803   8.845   6.133  0.7359 -0.2217 -0.7214
20457SOL     OW73348   1.152   2.423   0.456 -0.2552  0.1951  0.5459
20457SOL    HW173349   1.165   2.498   0.515  0.7765 -0.1996  0.8407
20457SOL    HW273350   1.099   2.362   0.507 -0.3892  0.3686  0.6163
20458SOL     OW73351   9.557   0.497   3.274  0.4078 -0.2203 -0.2097
20458SOL    HW173352   9.620   0.542   3.218 -1.4968  0.9711 -1.5337
20458SOL    HW273353   9.493   0.460   3.213 -0.7844 -0.3915  1.0884
20459SOL     OW73354   6.284   2.726   1.619 -0.2581 -0.5096  0.9493
20459SOL    HW173355   6.196   2.708   1.587 -0.3087  0.9020  0.1927
20459SOL    HW273356   6.279   2.815   1.655  0.9652 -0.1640  0.3498
20460SOL     OW73357   0.921   7.115   7.938 -0.4332  0.1147 -0.0207
20460SOL    HW173358   0.866   7.193   7.943 -1.4244 -0.3566 -2.1492
20460SOL    HW273359   0.960   7.119   7.850 -0.1861 -1.5651 -0.0257
20461SOL     OW73360   6.585   7.522   2.140  0.4677 -0.2793  0.2435
20461SOL    HW173361   6.574   7.492   2.230  3.8814 -0.7327  0.6531
20461SOL    HW273362   6.628   7.607   2.148 -1.3690  0.8331 -1.0086
20462SOL     OW73363   7.537   8.076   5.633 -0.6019  0.1551  0.0861
20462SOL    HW173364   7.614   8.130   5.647 -0.8001  0.3550  0.4094
20462SOL    HW273365   7.470   8.136   5.600 -0.8501  0.1259  0.5314
20463SOL     OW73366   6.994   3.673   9.259  0.0193  0.7651  0.0376
20463SOL    HW173367   7.028   3.741   9.317 -1.5447  0.4795  1.3430
20463SOL    HW273368   6.978   3.598   9.317 -0.5878  0.1164 -0.9426
20464SOL     OW73369   0.181   1.332   2.230 -0.5488  0.6111  0.0675
20464SOL    HW173370   0.129   1.253   2.247  0.2161  0.6045  2.8619
20464SOL    HW273371   0.147   1.365   2.147 -1.3511 -2.2664 -0.8958
20465SOL     OW73372   0.720   4.048   8.050  0.7245  0.3768 -0.0863
20465SOL    HW173373   0.647   4.108   8.039 -0.8304 -1.3859  0.1797
20465SOL    HW273374   0.739   4.017   7.961  0.7138  0.3377 -0.0750
20466SOL     OW73375   6.441   5.140   8.600 -0.2292 -0.3508  0.4878
20466SOL    HW173376   6.491   5.091   8.535 -1.0816  0.6783 -0.9946
20466SOL    HW273377   6.349   5.119   8.581 -0.6060  1.5462 -0.0174
20467SOL     OW73378   2.780   1.789   5.924 -0.2268 -0.2221 -0.3615
20467SOL    HW173379   2.701   1.737   5.912  0.7383 -1.6693 -0.7686
20467SOL    HW273380   2.825   1.784   5.839  0.6558 -0.0300  0.0791
20468SOL     OW73381   5.954   2.918   6.061 -0.0073 -0.2249 -0.1779
20468SOL    HW173382   5.927   2.949   6.147  0.1210 -1.8375  0.4822
20468SOL    HW273383   5.908   2.974   5.999  0.7278  1.6648  0.9104
20469SOL     OW73384   0.582   5.958   3.774 -0.2550 -0.0199  0.1022
20469SOL    HW173385   0.667   5.978   3.735 -0.0410 -0.7291  0.1837
20469SOL    HW273386   0.518   5.989   3.710  0.0775  0.0339 -0.2073
20470SOL     OW73387   5.889   5.454   6.748  0.1230 -0.2154  0.3544
20470SOL    HW173388   5.883   5.435   6.654  0.1531 -1.1833  0.5380
20470SOL    HW273389   5.838   5.385   6.790 -0.4129  0.5759  1.0234
20471SOL     OW73390   9.938   3.967   7.588 -0.1283 -0.1090 -0.4243
20471SOL    HW173391   9.893   4.050   7.602  1.8489  1.0926 -0.7496
20471SOL    HW273392   9.873   3.910   7.547 -1.8832  0.8684  0.8620
20472SOL     OW73393   2.319   7.581   8.806 -0.4660 -0.0147  0.0952
20472SOL    HW173394   2.273   7.537   8.734  1.5488 -0.5048 -0.9772
20472SOL    HW273395   2.382   7.516   8.837  0.2511  0.9871  0.7774
20473SOL     OW73396   1.085   9.883   6.391 -0.2921 -0.0830  0.3060
20473SOL    HW173397   1.163   9.935   6.370 -0.3470 -0.4697 -0.8947
20473SOL    HW273398   1.120   9.804   6.433 -0.0627 -0.0708  0.1398
20474SOL     OW73399   4.679   4.748   5.113  0.0402 -0.8385 -0.2363
20474SOL    HW173400   4.722   4.692   5.049 -0.9481 -0.3932 -1.3299
20474SOL    HW273401   4.744   4.761   5.182  0.6681 -2.4191 -0.4944
20475SOL     OW73402   5.185   7.382   3.730  0.0800  0.2314 -0.2672
20475SOL    HW173403   5.177   7.466   3.774  2.0495  0.1652  0.3241
20475SOL    HW273404   5.230   7.401   3.648  0.5964 -0.2464 -0.1004
20476SOL     OW73405   5.250   5.696   5.552  0.3570 -0.1218 -0.0220
20476SOL    HW173406   5.261   5.739   5.637 -0.2083 -1.2907  0.6694
20476SOL    HW273407   5.193   5.621   5.570  0.2733 -0.4291 -1.4269
20477SOL     OW73408   4.402   7.573   5.609  0.1621 -1.0634 -0.2534
20477SOL    HW173409   4.489   7.533   5.611  0.3173 -0.7989 -1.1776
20477SOL    HW273410   4.411   7.646   5.547 -0.2651  0.0647  0.9626
20478SOL     OW73411   3.882   9.008   1.403 -0.1248  0.1830  0.4046
20478SOL    HW173412   3.879   9.022   1.309  2.2885  0.8377  0.3660
20478SOL    HW273413   3.929   9.084   1.438  0.7946 -0.9930  1.8818
20479SOL     OW73414   0.498   3.327   2.952  0.3159  0.5887 -0.6584
20479SOL    HW173415   0.454   3.383   3.015  1.1195  1.0109 -0.4650
20479SOL    HW273416   0.449   3.339   2.870  0.1444  1.1393 -0.4783
20480SOL     OW73417   3.735   5.900   6.772  0.0171  0.5031  0.6663
20480SOL    HW173418   3.723   5.827   6.711 -1.3447  0.8583  0.4846
20480SOL    HW273419   3.754   5.857   6.856 -0.9544 -0.0889  0.6030
20481SOL     OW73420   2.197   9.981   7.609  0.2451 -0.6156  0.4026
20481SOL    HW173421   2.171  10.066   7.646 -1.6107 -1.1208  0.3405
20481SOL    HW273422   2.195   9.996   7.514 -1.5142 -1.0638  0.3285
20482SOL     OW73423   3.069   1.694   5.116 -0.2145 -0.0058  0.0459
20482SOL    HW173424   3.033   1.618   5.161  0.0009  0.1537  0.4950
20482SOL    HW273425   3.065   1.672   5.023 -1.4806  0.0116  0.0811
20483SOL     OW73426  10.006   4.826   1.376 -0.1834  0.1392 -0.8892
20483SOL    HW173427  10.047   4.905   1.340 -0.4841  0.5569 -0.3352
20483SOL    HW273428  10.060   4.754   1.343  1.1296  0.6841 -0.0383
20484SOL     OW73429   3.030   7.199   6.150  0.4575  0.3768  0.2358
20484SOL    HW173430   3.071   7.228   6.231 -1.6993  0.1508  1.4870
20484SOL    HW273431   2.957   7.260   6.137  0.6065  0.2585 -1.4194
20485SOL     OW73432  10.183   9.516   0.377  0.1152  0.5211  0.2303
20485SOL    HW173433  10.151   9.606   0.387  2.4080  1.2134  2.9349
20485SOL    HW273434  10.240   9.503   0.453  3.0330 -1.8671 -2.1169
20486SOL     OW73435   9.415  10.378   1.964  0.1216 -0.1654  0.0736
20486SOL    HW173436   9.340  10.436   1.955  0.7098  0.4175 -1.3582
20486SOL    HW273437   9.431  10.374   2.059 -2.5640 -1.4795  0.5711
20487SOL     OW73438   0.504   1.221   3.725 -0.3072 -0.0246  0.1225
20487SOL    HW173439   0.587   1.263   3.701 -0.0023 -0.2574  0.7331
20487SOL    HW273440   0.465   1.196   3.642  0.5539 -0.5030 -0.1581
20488SOL     OW73441   2.317   9.812   3.890 -0.3774 -0.4641 -0.4743
20488SOL    HW173442   2.289   9.727   3.855 -0.1660 -0.6846 -0.1113
20488SOL    HW273443   2.306   9.803   3.985 -1.9701  0.4850 -0.5322
20489SOL     OW73444   2.237   0.901   1.282  0.1223  0.4124 -0.2660
20489SOL    HW173445   2.186   0.889   1.202 -0.2461 -0.8438  0.1267
20489SOL    HW273446   2.249   0.813   1.316  1.2481  0.8293  0.4758
20490SOL     OW73447   5.603   0.917   8.817 -0.1713  0.4097  0.2799
20490SOL    HW173448   5.534   0.880   8.762  0.2612 -0.5329  0.3579
20490SOL    HW273449   5.608   0.858   8.892  0.8188  0.3846  0.2074
20491SOL     OW73450   9.809   8.917   0.034  0.0507  0.5376  0.0116
20491SOL    HW173451   9.878   8.881  -0.022 -0.0534  1.9192 -1.0523
20491SOL    HW273452   9.752   8.842   0.051  1.4663 -0.4931  0.4157
20492SOL     OW73453   8.884   1.895   4.141 -0.0346  0.2958 -0.9919
20492SOL    HW173454   8.828   1.929   4.072  0.0437  0.6457 -0.8857
20492SOL    HW273455   8.955   1.959   4.149 -0.7898  1.0107  0.3833
20493SOL     OW73456   3.219   9.230   9.451 -0.1346  0.2873  0.4433
20493SOL    HW173457   3.314   9.230   9.455 -0.1298  1.2527  0.4808
20493SOL    HW273458   3.197   9.148   9.406  0.6963 -0.0214  0.5823
20494SOL     OW73459   0.737  10.346   3.975 -0.5284 -0.1317 -0.1101
20494SOL    HW173460   0.647  10.314   3.981 -0.8144  0.8862  2.4471
20494SOL    HW273461   0.782  10.304   4.049  0.7788  0.3372 -0.6151
20495SOL     OW73462   4.327   2.900   5.814  0.0123 -0.3152  0.5391
20495SOL    HW173463   4.265   2.880   5.744  0.7438  1.3168 -0.6482
20495SOL    HW273464   4.276   2.896   5.894 -1.3002 -0.3498 -0.2774
20496SOL     OW73465   8.708   8.747   4.576  0.1842 -0.9586  0.0946
20496SOL    HW173466   8.787   8.730   4.524  0.3834 -0.4554  0.2281
20496SOL    HW273467   8.665   8.820   4.530  1.0705  0.4218  1.3896
20497SOL     OW73468   0.717   7.346   1.874 -0.0260  0.7885  0.5275
20497SOL    HW173469   0.653   7.275   1.877  0.5546  0.2346 -0.0980
20497SOL    HW273470   0.665   7.423   1.849 -0.3670  0.2374 -0.5109
20498SOL     OW73471   9.853   1.337   0.382  0.1980 -0.0429 -0.3443
20498SOL    HW173472   9.898   1.420   0.370  0.3801 -0.1553 -0.4384
20498SOL    HW273473   9.897   1.276   0.322 -0.3178 -0.0591 -0.7168
20499SOL     OW73474  10.232   2.452   1.837  0.2158 -0.2148  0.8243
20499SOL    HW173475  10.308   2.502   1.868 -0.3305  0.7607  0.6165
20499SOL    HW273476  10.161   2.478   1.896  0.3345 -2.2096  1.9560
20500SOL     OW73477   2.582   8.420   7.326  0.5752  0.4669 -0.1032
20500SOL    HW173478   2.538   8.372   7.397  1.1463  0.0230 -0.0348
20500SOL    HW273479   2.650   8.359   7.295  1.0133  1.0574 -0.3276
20501SOL     OW73480   1.224   8.553   6.534 -0.0013 -0.5385 -0.6407
20501SOL    HW173481   1.217   8.593   6.621  0.3604 -0.2833 -0.7254
20501SOL    HW273482   1.304   8.500   6.539 -1.3354 -2.6160  0.0082
20502SOL     OW73483   5.469   3.708   3.315  0.3423  0.0542  0.2551
20502SOL    HW173484   5.390   3.658   3.295 -0.2538  0.7346  0.8270
20502SOL    HW273485   5.541   3.651   3.288 -0.3235 -0.8564  0.3423
20503SOL     OW73486   5.930   0.780   1.728  0.5437 -0.1657 -0.0804
20503SOL    HW173487   6.018   0.804   1.758  0.8474 -1.9643  0.6019
20503SOL    HW273488   5.945   0.709   1.665 -0.3232  0.9727 -1.6256
20504SOL     OW73489   4.818   8.880   2.890  0.1681 -0.0446 -0.2596
20504SOL    HW173490   4.777   8.850   2.971 -1.3277 -0.3228 -1.0774
20504SOL    HW273491   4.812   8.804   2.831  1.1149  0.1903 -0.6738
20505SOL     OW73492   1.309   3.964   1.181 -0.1781 -0.5249 -0.5178
20505SOL    HW173493   1.359   3.884   1.167 -0.6385 -1.0230  0.5580
20505SOL    HW273494   1.230   3.952   1.128 -0.4679 -1.0111  0.0100
20506SOL     OW73495   7.695   0.591   1.695  0.4356 -0.1868  0.5570
20506SOL    HW173496   7.618   0.600   1.751 -1.1733 -0.8489 -1.4150
20506SOL    HW273497   7.732   0.507   1.718 -0.6791 -0.8208  0.1371
20507SOL     OW73498   5.655   2.785   4.826  0.8047 -0.6728 -0.1926
20507SOL    HW173499   5.678   2.806   4.916  0.1219  0.7432 -0.3295
20507SOL    HW273500   5.709   2.842   4.772 -0.6922  0.4383 -0.5870
20508SOL     OW73501   0.687   8.397   8.585 -0.2247 -0.4510 -0.2643
20508SOL    HW173502   0.774   8.434   8.599  0.1734 -0.8973 -1.4851
20508SOL    HW273503   0.676   8.334   8.656  0.3980 -0.3090 -0.0391
20509SOL     OW73504   3.073   2.881   2.390 -0.1838 -0.0561 -0.1338
20509SOL    HW173505   3.005   2.891   2.324 -1.0775 -0.6697  0.6644
20509SOL    HW273506   3.057   2.794   2.427  0.6966  0.0187  0.4397
20510SOL     OW73507   5.930   3.500   9.664 -0.6755  0.4615  0.0355
20510SOL    HW173508   5.937   3.439   9.591 -0.1359 -1.3374  1.5156
20510SOL    HW273509   5.837   3.503   9.685 -0.6469 -0.2651  0.2743
20511SOL     OW73510   2.443   3.237   3.188  0.2390  0.3028 -0.8584
20511SOL    HW173511   2.493   3.216   3.109  0.2774 -2.0906 -0.2724
20511SOL    HW273512   2.352   3.232   3.160  0.2612  1.9225 -1.2894
20512SOL     OW73513   5.806   0.370   5.720 -0.3721 -0.5825 -0.0415
20512SOL    HW173514   5.777   0.328   5.801  0.2067 -0.7050  0.1111
20512SOL    HW273515   5.738   0.433   5.699 -0.2490 -0.1405  0.8624
20513SOL     OW73516   1.364   1.038   1.744  0.0424 -0.0977 -0.0499
20513SOL    HW173517   1.284   1.090   1.735  0.5114  0.3769 -2.1694
20513SOL    HW273518   1.335   0.947   1.739 -0.4062  0.0676 -0.4990
20514SOL     OW73519   1.757   5.587   7.784  0.1852  0.2050  0.0482
20514SOL    HW173520   1.832   5.584   7.725 -0.5073 -0.6803 -0.8108
20514SOL    HW273521   1.680   5.588   7.727 -0.5231 -1.1978  0.9100
20515SOL     OW73522   7.680   1.172   1.118 -0.7385 -0.6273  0.5134
20515SOL    HW173523   7.601   1.128   1.149 -0.5310 -0.4835  1.2709
20515SOL    HW273524   7.649   1.230   1.048 -0.7910 -3.0944 -1.6692
20516SOL     OW73525   4.116   7.136   7.404  0.3997 -0.0998  0.4320
20516SOL    HW173526   4.081   7.048   7.417  0.0729  0.0309  0.4343
20516SOL    HW273527   4.194   7.139   7.460  0.2831 -0.3107  0.6085
20517SOL     OW73528   5.427   4.367   3.280  0.0279  0.2650  0.1149
20517SOL    HW173529   5.458   4.415   3.204 -1.1252  0.8707  0.0214
20517SOL    HW273530   5.343   4.330   3.253 -0.8691  1.2871  1.3790
20518SOL     OW73531   4.635   7.079   6.728 -0.2649 -0.0957  0.3434
20518SOL    HW173532   4.642   7.143   6.799 -1.5692 -1.6408  1.9578
20518SOL    HW273533   4.553   7.033   6.745  0.6203 -2.2232 -0.7304
20519SOL     OW73534   6.363   7.644   9.270  0.3837 -0.2175  0.0971
20519SOL    HW173535   6.436   7.705   9.287 -0.3157  1.3471 -2.0476
20519SOL    HW273536   6.320   7.680   9.193 -2.6201 -1.1720  1.2106
20520SOL     OW73537   1.479   9.089   4.490 -0.2926 -0.1033  0.6962
20520SOL    HW173538   1.534   9.050   4.558 -0.4128  1.2345  1.5971
20520SOL    HW273539   1.393   9.097   4.530 -1.0851 -1.7586 -0.5524
20521SOL     OW73540   0.513   3.639   5.214 -0.2037  0.7950 -0.0746
20521SOL    HW173541   0.550   3.568   5.267  0.4955  1.3704  0.2145
20521SOL    HW273542   0.517   3.606   5.124 -0.0739  0.3837  0.0804
20522SOL     OW73543   3.216   1.750   5.345 -0.1102  0.2455  0.3514
20522SOL    HW173544   3.237   1.698   5.422 -2.6750 -0.2300  0.8051
20522SOL    HW273545   3.210   1.686   5.274  0.8562  0.5113  0.0055
20523SOL     OW73546   2.343   9.989   9.424  0.4556  0.0475 -0.2724
20523SOL    HW173547   2.258   9.957   9.455  0.6033  0.5878  0.7422
20523SOL    HW273548   2.364   9.934   9.349 -0.7997 -0.0804 -0.5501
20524SOL     OW73549   7.286   4.061   3.963 -0.4641 -0.2185  0.1872
20524SOL    HW173550   7.301   3.967   3.967 -0.6855 -0.2935 -0.6127
20524SOL    HW273551   7.335   4.091   3.887 -0.3525  0.3254  0.4661
20525SOL     OW73552   1.360   7.119   7.486  0.1020 -0.3453  0.0097
20525SOL    HW173553   1.379   7.131   7.393 -0.2156 -3.7637 -0.6203
20525SOL    HW273554   1.264   7.114   7.491  0.1275 -0.4664  0.4603
20526SOL     OW73555   9.917   1.633   5.453 -0.8462 -0.0923  0.3886
20526SOL    HW173556  10.009   1.643   5.474 -1.2667  2.9166  1.2819
20526SOL    HW273557   9.871   1.677   5.525 -3.0054 -1.5970  0.0332
20527SOL     OW73558   1.980   5.698   4.506  0.2535 -0.3188 -0.0387
20527SOL    HW173559   1.914   5.663   4.446 -1.3467  0.0992  1.4177
20527SOL    HW273560   2.007   5.781   4.465 -0.2870 -0.3736 -0.5163
20528SOL     OW73561   9.451   4.259   7.419  0.3333 -0.2890 -0.6172
20528SOL    HW173562   9.384   4.191   7.412 -0.7874  0.7719 -0.4320
20528SOL    HW273563   9.449   4.303   7.334 -1.1450  1.4704  0.2498
20529SOL     OW73564   5.826   8.939   7.873  0.1311 -0.2516  0.1558
20529SOL    HW173565   5.813   8.846   7.851 -1.3252 -0.1281  0.3836
20529SOL    HW273566   5.789   8.948   7.961 -0.2384  0.6467 -0.0777
20530SOL     OW73567   2.183   3.034   2.736 -0.1967 -0.0399  0.0296
20530SOL    HW173568   2.168   3.039   2.831 -0.8679  0.9409 -0.1027
20530SOL    HW273569   2.134   2.957   2.708  0.7860 -0.8943  0.6010
20531SOL     OW73570  10.021   0.151   7.130  0.2008 -0.3577  0.4535
20531SOL    HW173571   9.959   0.220   7.103  0.1416  0.3784  2.3175
20531SOL    HW273572   9.971   0.096   7.190  1.0992 -0.2667  1.3060
20532SOL     OW73573   1.846   3.052   9.937  0.1231  0.4796  0.5193
20532SOL    HW173574   1.891   3.108  10.001  0.6103  0.0745  0.5368
20532SOL    HW273575   1.879   3.081   9.852  0.8675 -0.1986  0.5637
20533SOL     OW73576   6.841   8.212   8.621  0.0034  0.0488  0.3320
20533SOL    HW173577   6.897   8.231   8.696  0.0264 -0.3257  0.4127
20533SOL    HW273578   6.870   8.126   8.591  0.4879  0.5101 -0.5603
20534SOL     OW73579   0.439   0.363   7.947  0.2076  0.4016 -0.2424
20534SOL    HW173580   0.385   0.292   7.912  0.5211  0.7884 -1.6028
20534SOL    HW273581   0.398   0.443   7.914 -0.2919  0.8980  1.4831
20535SOL     OW73582   1.471   9.929   2.601 -0.1928  0.2653 -0.7455
20535SOL    HW173583   1.501   9.934   2.692  0.4578 -1.4412 -0.8290
20535SOL    HW273584   1.379   9.902   2.608  0.4718 -2.2657 -0.5493
20536SOL     OW73585   2.849   0.308   0.430  0.5585 -0.7924  0.4738
20536SOL    HW173586   2.893   0.236   0.474  1.3492  0.1313  1.2466
20536SOL    HW273587   2.789   0.344   0.496 -1.4245 -2.0134 -0.5459
20537SOL     OW73588   1.394   1.907   0.017  0.4032  0.0337  0.1335
20537SOL    HW173589   1.381   1.867   0.103 -1.1011  0.7449  0.2716
20537SOL    HW273590   1.321   1.876  -0.036  1.0472 -0.0098 -0.7648
20538SOL     OW73591   4.127   3.323   8.535  0.7716 -0.0549  0.2763
20538SOL    HW173592   4.110   3.401   8.481  2.8626  1.3305  1.4701
20538SOL    HW273593   4.222   3.310   8.529  0.8943 -0.6241  2.5705
20539SOL     OW73594   0.249   9.735   2.101  0.1152 -0.3568 -0.1571
20539SOL    HW173595   0.274   9.798   2.034  2.0562 -0.3334  0.5136
20539SOL    HW273596   0.317   9.668   2.098  1.1169  0.3704  2.6838
20540SOL     OW73597   4.458   3.998   7.125 -0.3267 -0.1625 -0.5212
20540SOL    HW173598   4.526   4.026   7.186 -1.2409 -0.7940  0.8470
20540SOL    HW273599   4.377   4.002   7.177 -1.6058  2.0176 -2.4918
20541SOL     OW73600   5.986  10.007   2.227  0.0828  0.3303 -0.3859
20541SOL    HW173601   5.988   9.912   2.226  2.5622  0.3188 -1.4554
20541SOL    HW273602   6.027  10.032   2.310 -1.1337  0.5028  0.1854
20542SOL     OW73603   3.985   9.856   5.894  0.4056  0.1043  0.1803
20542SOL    HW173604   4.001   9.885   5.984 -0.3198  0.8718  0.0823
20542SOL    HW273605   3.900   9.895   5.872  1.3201  1.3176 -1.4055
20543SOL     OW73606   8.541   1.616   2.053 -0.8023  0.3598  0.2748
20543SOL    HW173607   8.584   1.687   2.005 -0.9349  0.5344  0.4137
20543SOL    HW273608   8.561   1.633   2.145  0.1310 -0.4302  0.2310
20544SOL     OW73609   8.672   6.879   3.642  0.5056  0.0113  0.6360
20544SOL    HW173610   8.722   6.874   3.560  0.6070  0.8374  0.6392
20544SOL    HW273611   8.668   6.789   3.674 -0.1507 -0.4469 -0.6530
20545SOL     OW73612   8.639   2.456   4.831 -0.0745  0.3790  0.5757
20545SOL    HW173613   8.605   2.545   4.824  0.9976  0.7393 -0.5155
20545SOL    HW273614   8.607   2.424   4.915  1.0330  2.4772  1.8880
20546SOL     OW73615   9.360   8.314   1.924 -0.2507  0.1475  0.4142
20546SOL    HW173616   9.446   8.274   1.939  0.3462  1.6079  1.0030
20546SOL    HW273617   9.298   8.243   1.941  0.8482 -1.4421 -1.7353
20547SOL     OW73618   8.027   8.967   9.987  0.2654 -0.4681 -0.2855
20547SOL    HW173619   8.053   8.877  10.007  2.7558 -0.2041 -1.9559
20547SOL    HW273620   8.091   9.021  10.033  0.3733  0.3510 -1.3633
20548SOL     OW73621   8.015   1.877   5.995  0.1802  0.3060  0.1279
20548SOL    HW173622   8.052   1.823   5.925  0.1952 -0.5560  0.8003
20548SOL    HW273623   7.921   1.857   5.995  0.2558 -0.0619  0.6738
20549SOL     OW73624   7.514   3.778   6.427 -0.0595  0.6596  0.1472
20549SOL    HW173625   7.511   3.843   6.497 -1.0665 -0.9318  1.6559
20549SOL    HW273626   7.466   3.703   6.461  0.8906 -0.8335 -1.5924
20550SOL     OW73627   4.753   3.051   5.691 -0.5765 -0.1363 -0.0202
20550SOL    HW173628   4.677   3.085   5.738  0.5386  1.1330  0.9440
20550SOL    HW273629   4.804   3.128   5.668  0.0764 -0.9135 -1.3031
20551SOL     OW73630   1.028   7.093   1.251 -0.4034 -0.0576 -0.7220
20551SOL    HW173631   1.050   7.148   1.176  0.1601  1.2042  0.3207
20551SOL    HW273632   1.109   7.086   1.300 -0.6592 -1.2210 -0.4267
20552SOL     OW73633   6.241   7.748   7.578  0.3313 -0.0260 -0.3146
20552SOL    HW173634   6.248   7.677   7.641 -0.4085 -1.1128 -1.4245
20552SOL    HW273635   6.330   7.760   7.545  0.3739 -0.7379 -0.4549
20553SOL     OW73636   1.496  10.231   4.427  0.4597 -0.6315 -0.1881
20553SOL    HW173637   1.511  10.252   4.335  0.8164 -2.1600 -0.4940
20553SOL    HW273638   1.402  10.213   4.432  0.2343  0.4866 -0.0114
20554SOL     OW73639   2.661   3.268   0.674  0.4759  0.0546  0.0902
20554SOL    HW173640   2.676   3.226   0.589  0.3053 -0.2819  0.2288
20554SOL    HW273641   2.567   3.264   0.687  0.6369 -1.2781  1.0092
20555SOL     OW73642   2.034   7.410   6.289 -0.5932  0.0856  0.3734
20555SOL    HW173643   2.042   7.504   6.276  1.7690  0.1163  1.5435
20555SOL    HW273644   2.095   7.371   6.227 -2.9229 -0.8785 -1.4585
20556SOL     OW73645   6.134  10.350   8.387 -0.2097  0.0143  0.4768
20556SOL    HW173646   6.141  10.445   8.403 -3.5273  0.2360  1.1979
20556SOL    HW273647   6.090  10.344   8.302 -0.1216 -0.9029  0.4946
20557SOL     OW73648   4.467   0.657   1.476 -0.3022 -0.4874 -0.4029
20557SOL    HW173649   4.403   0.653   1.546 -0.3056  0.3543 -0.3508
20557SOL    HW273650   4.444   0.584   1.418 -0.5102 -0.9760  0.2795
20558SOL     OW73651   0.206   9.028   2.827 -0.5383 -0.6411 -0.0178
20558SOL    HW173652   0.190   9.122   2.815 -2.0374 -0.9503 -0.6316
20558SOL    HW273653   0.128   8.986   2.791  0.6132 -2.1862 -0.8022
20559SOL     OW73654   7.840   1.569   7.969 -0.0989  0.0905 -0.1456
20559SOL    HW173655   7.856   1.509   8.042 -3.8141  1.4955  2.0967
20559SOL    HW273656   7.878   1.652   7.996  0.4945  0.0853 -0.9084
20560SOL     OW73657   9.927   0.849   5.979 -0.1681  0.5014  0.0716
20560SOL    HW173658   9.995   0.788   6.009  0.7017 -0.1104 -2.8664
20560SOL    HW273659   9.849   0.823   6.027  0.5972 -1.8407  0.1599
20561SOL     OW73660   6.794   1.127   7.328 -0.3035  0.4893  0.4538
20561SOL    HW173661   6.796   1.141   7.423  0.9330 -0.8962  0.6739
20561SOL    HW273662   6.702   1.106   7.309 -0.4888  0.3861  1.4185
20562SOL     OW73663   4.742   5.124   2.891  0.5960 -0.1274 -0.3442
20562SOL    HW173664   4.716   5.126   2.983  1.1444 -0.9146 -0.1657
20562SOL    HW273665   4.716   5.037   2.860  1.4913 -0.3127 -0.6066
20563SOL     OW73666   9.528   0.493   5.757  0.8272  0.3960  0.4820
20563SOL    HW173667   9.525   0.540   5.841 -0.3371  1.3365 -0.0570
20563SOL    HW273668   9.524   0.401   5.781  1.3452  0.6222  1.4990
20564SOL     OW73669   1.874   4.258   5.561 -0.3158 -0.0369  0.1308
20564SOL    HW173670   1.845   4.286   5.474 -0.0671  1.3546  0.4627
20564SOL    HW273671   1.796   4.222   5.602 -0.5454 -0.2762 -0.5130
20565SOL     OW73672   6.565   1.098   3.594  0.0402  0.4418 -0.4051
20565SOL    HW173673   6.487   1.139   3.557 -0.9087 -0.7218  0.2577
20565SOL    HW273674   6.553   1.004   3.579  2.0693  0.3376 -1.7051
20566SOL     OW73675   9.283   7.644   4.232  0.3023  0.7536 -0.3175
20566SOL    HW173676   9.363   7.608   4.193  1.6404  1.2535  1.8242
20566SOL    HW273677   9.241   7.568   4.273 -0.1906  0.5548 -1.1543
20567SOL     OW73678   9.229   3.340  10.130  0.1668 -0.0075  0.3712
20567SOL    HW173679   9.231   3.388  10.047 -1.3953 -0.3166  0.1349
20567SOL    HW273680   9.321   3.316  10.145  0.8143  1.9440 -0.1326
20568SOL     OW73681   1.185   6.726   7.323  0.1343 -0.5990  0.2489
20568SOL    HW173682   1.162   6.648   7.271  0.5704 -1.2590  1.0151
20568SOL    HW273683   1.267   6.757   7.285  0.6530 -1.3052  0.7491
20569SOL     OW73684   6.004   4.081   6.770 -0.2820  0.0080  0.5125
20569SOL    HW173685   6.003   3.994   6.730  1.0816 -0.1680  0.8212
20569SOL    HW273686   5.988   4.064   6.863  1.0184 -0.0315  0.7426
20570SOL     OW73687   0.759   5.795   1.337  0.2881  0.5900  0.1024
20570SOL    HW173688   0.748   5.708   1.377  0.8510  0.7800  0.6793
20570SOL    HW273689   0.848   5.820   1.359  0.0315  1.4430  0.1759
20571SOL     OW73690   5.933   3.833   0.634  0.3132  0.2509 -0.0885
20571SOL    HW173691   5.903   3.750   0.671  2.4092 -0.8826 -0.7292
20571SOL    HW273692   5.895   3.835   0.546 -2.0673  1.4117  0.8921
20572SOL     OW73693   7.867   9.241   8.304 -0.0559  0.1719  0.9039
20572SOL    HW173694   7.941   9.247   8.364  0.2232 -1.6041  0.8004
20572SOL    HW273695   7.900   9.274   8.221 -0.2791  2.1164  1.5392
20573SOL     OW73696   6.376   1.181   0.713 -0.8379 -0.2736  0.0779
20573SOL    HW173697   6.449   1.139   0.668 -0.4762  0.3487  0.0725
20573SOL    HW273698   6.316   1.109   0.735 -0.2335 -0.7847  0.0692
20574SOL     OW73699   0.820   1.239   0.117 -0.7107  0.1441  0.4496
20574SOL    HW173700   0.775   1.156   0.133  0.9859 -0.3837  3.3508
20574SOL    HW273701   0.898   1.214   0.067  0.1246 -0.2178  1.8500
20575SOL     OW73702   7.745   3.665   5.866  0.1044  0.2481 -0.6076
20575SOL    HW173703   7.677   3.727   5.843 -0.8200  0.4888  2.3492
20575SOL    HW273704   7.719   3.583   5.823  0.4565  1.3928 -3.1827
20576SOL     OW73705   6.481   7.356   5.828  0.3493  0.1053 -0.1574
20576SOL    HW173706   6.555   7.305   5.797  0.3064 -0.1503  0.1655
20576SOL    HW273707   6.433   7.298   5.887 -1.2235 -0.4378 -1.8561
20577SOL     OW73708   2.911   2.299   9.859  0.1636  0.2374 -0.0901
20577SOL    HW173709   2.935   2.388   9.833  0.0705  0.1791 -0.3860
20577SOL    HW273710   2.980   2.272   9.920  0.2686  0.4600 -0.1077
20578SOL     OW73711   2.408   6.189   3.626 -0.5651 -0.5019  0.2627
20578SOL    HW173712   2.420   6.283   3.616  0.3031 -0.6338  0.0167
20578SOL    HW273713   2.322   6.180   3.668  0.0552  0.4548  1.7746
20579SOL     OW73714   1.488   3.429   2.511 -0.2097  0.7259 -1.0894
20579SOL    HW173715   1.521   3.506   2.558  0.8543 -0.6007  0.4375
20579SOL    HW273716   1.437   3.381   2.576 -0.6953  0.0381 -1.9567
20580SOL     OW73717   6.849   5.726   7.415 -0.0898 -0.5210 -0.2553
20580SOL    HW173718   6.848   5.713   7.510 -0.1067  0.0097 -0.1787
20580SOL    HW273719   6.907   5.801   7.402 -1.5065  0.5721 -0.5060
20581SOL     OW73720   1.571   5.497   1.885  0.5960 -0.1638  0.2772
20581SOL    HW173721   1.502   5.445   1.842 -1.2764  2.8615 -0.6541
20581SOL    HW273722   1.587   5.451   1.968 -3.5362 -0.3833  1.1595
20582SOL     OW73723   4.852   0.171   0.314 -0.1456 -0.0430  0.0774
20582SOL    HW173724   4.886   0.238   0.373 -0.5574 -0.8020  1.2026
20582SOL    HW273725   4.904   0.181   0.234 -0.0408  1.4523  0.2954
20583SOL     OW73726   1.414   5.640   5.958  0.1071  0.5287 -0.7341
20583SOL    HW173727   1.461   5.605   5.882 -0.5474  0.5303 -1.1488
20583SOL    HW273728   1.360   5.710   5.923  0.2793  0.9644 -0.1523
20584SOL     OW73729   3.587   2.763   2.912  0.3171  0.0123  0.2243
20584SOL    HW173730   3.504   2.810   2.913  1.1484  1.6462 -0.7158
20584SOL    HW273731   3.583   2.709   2.833  0.7349  1.3594 -0.7713
20585SOL     OW73732   9.777   5.742   3.150 -0.0207 -0.1918 -0.8925
20585SOL    HW173733   9.704   5.804   3.146  0.4941  0.4771 -0.1247
20585SOL    HW273734   9.735   5.656   3.145 -0.7166  0.1910 -2.4206
20586SOL     OW73735   1.452   8.757   9.505 -0.1650  0.8891  0.6194
20586SOL    HW173736   1.417   8.783   9.591 -0.3286  1.0990  0.4898
20586SOL    HW273737   1.460   8.839   9.457 -0.5960  0.7100  0.2396
20587SOL     OW73738   6.340   0.510   0.200 -0.0770  0.4689 -0.5862
20587SOL    HW173739   6.344   0.418   0.228  0.2502  0.8408  0.6256
20587SOL    HW273740   6.369   0.507   0.109  2.0851 -0.3895  0.0590
20588SOL     OW73741  10.023   3.587   7.620 -0.1574 -0.1695 -0.2782
20588SOL    HW173742  10.084   3.601   7.547 -1.4564  3.7534 -0.8631
20588SOL    HW273743  10.076   3.595   7.698  0.3284  2.5855 -0.7865
20589SOL     OW73744   9.667   4.299   4.554 -0.1472  0.0199  0.3144
20589SOL    HW173745   9.642   4.208   4.569  1.4997 -0.1741  2.5330
20589SOL    HW273746   9.740   4.294   4.492 -0.5890 -0.0789 -0.2053
20590SOL     OW73747   3.123  10.230   1.735  0.3088  0.9319  0.6946
20590SOL    HW173748   3.131  10.311   1.684 -1.6167 -0.8175 -2.7079
20590SOL    HW273749   3.034  10.234   1.771 -0.4823 -0.3497 -0.9859
20591SOL     OW73750   4.665   4.969   5.963 -0.1193 -0.5740 -0.1500
20591SOL    HW173751   4.738   5.026   5.989 -0.7894  0.9977 -1.4890
20591SOL    HW273752   4.606   5.027   5.914 -2.3559 -1.7401  0.9707
20592SOL     OW73753   4.262   7.692   9.912 -0.9212 -0.1603  0.0678
20592SOL    HW173754   4.353   7.666   9.930 -1.6241 -0.4186  4.0821
20592SOL    HW273755   4.256   7.783   9.941 -2.0187 -0.2482  0.1577
20593SOL     OW73756   4.648   0.279   6.772  0.2811  0.1569  0.3856
20593SOL    HW173757   4.606   0.258   6.856 -2.6421  0.9217 -0.7308
20593SOL    HW273758   4.691   0.363   6.787 -0.3453  0.3657  1.1144
20594SOL     OW73759   2.353   5.811   9.108  0.5811  0.6840  0.0469
20594SOL    HW173760   2.298   5.740   9.139  0.9664 -0.0825 -0.9891
20594SOL    HW273761   2.291   5.878   9.077  0.1857 -0.3889 -1.6101
20595SOL     OW73762   0.177   0.633   3.756 -0.1785 -0.4808  0.5483
20595SOL    HW173763   0.222   0.608   3.837 -1.9198  0.9798  2.0711
20595SOL    HW273764   0.117   0.561   3.740  1.1055 -1.4050 -0.2458
20596SOL     OW73765   9.996   1.193   5.370 -0.2521  0.3069  0.2780
20596SOL    HW173766  10.039   1.108   5.368 -2.0690 -0.7133  1.8779
20596SOL    HW273767  10.065   1.255   5.393  0.8476 -0.9014  0.2927
20597SOL     OW73768   8.357  10.087   2.202 -0.0834 -0.0492  0.1121
20597SOL    HW173769   8.347  10.104   2.296 -1.4848  0.7703 -0.1506
20597SOL    HW273770   8.450  10.074   2.190  0.0040 -1.4500  1.8320
20598SOL     OW73771   8.964   8.582   7.724 -0.2068 -0.3846  0.2479
20598SOL    HW173772   9.011   8.522   7.782 -0.5741  0.2928  1.2972
20598SOL    HW273773   8.903   8.627   7.782 -1.4654 -0.5470 -0.9121
20599SOL     OW73774   1.205   5.265   5.183 -0.2170  0.3862  0.0708
20599SOL    HW173775   1.258   5.236   5.109 -0.3543  2.0286 -0.7196
20599SOL    HW273776   1.265   5.319   5.235 -0.5205  0.4800  0.3242
20600SOL     OW73777   2.399   7.557   0.688  0.3175  0.5736  0.0948
20600SOL    HW173778   2.339   7.482   0.687  0.3241  0.5467 -2.3874
20600SOL    HW273779   2.423   7.571   0.597  2.3020  2.0545  0.7602
20601SOL     OW73780   0.580   1.272   8.887  0.0282  0.0902  0.2174
20601SOL    HW173781   0.617   1.273   8.976 -0.1112 -0.1399  0.2801
20601SOL    HW273782   0.512   1.338   8.889 -3.2776 -2.9967  1.7321
20602SOL     OW73783   6.657   8.455   0.276  0.0506  0.3112  0.0767
20602SOL    HW173784   6.729   8.462   0.213 -0.5941 -0.4155 -0.7754
20602SOL    HW273785   6.578   8.453   0.221 -0.7492  2.5458  1.0365
20603SOL     OW73786   7.946   4.610   7.014 -0.0366  0.4782 -0.3289
20603SOL    HW173787   7.976   4.544   7.077 -0.5249  1.7246  1.2937
20603SOL    HW273788   7.904   4.677   7.068  1.8928  2.9618 -1.7030
20604SOL     OW73789   8.724   2.749   6.802 -0.5725 -0.4265 -0.6390
20604SOL    HW173790   8.670   2.828   6.797  1.6136  1.0877 -3.6060
20604SOL    HW273791   8.748   2.743   6.894 -0.2911  2.8400 -0.3603
20605SOL     OW73792   5.545   5.921   8.413 -0.2757 -0.0354  0.1794
20605SOL    HW173793   5.528   5.895   8.503  1.4926  0.6967  0.7636
20605SOL    HW273794   5.482   5.870   8.361 -0.5649 -1.3101  1.7105
20606SOL     OW73795   5.875   9.150   1.212 -0.3244 -0.0246 -0.1649
20606SOL    HW173796   5.867   9.109   1.125 -0.1890 -0.9647  0.2578
20606SOL    HW273797   5.785   9.158   1.243 -0.5617  2.1800 -1.2078
20607SOL     OW73798   9.414   3.399   5.335  0.6980 -0.1577  0.3485
20607SOL    HW173799   9.349   3.441   5.390  1.5178  0.6927  0.6880
20607SOL    HW273800   9.363   3.346   5.273 -0.3108  0.5605  0.5451
20608SOL     OW73801   0.181   1.342   9.635  0.2057  0.0131  0.0692
20608SOL    HW173802   0.134   1.365   9.555  0.0959 -0.8285 -0.1227
20608SOL    HW273803   0.225   1.422   9.662 -0.8501  0.6551 -0.0926
20609SOL     OW73804   4.730   6.512   5.904 -0.1354  0.2354 -0.0382
20609SOL    HW173805   4.645   6.555   5.900 -1.0210 -1.4527 -0.1728
20609SOL    HW273806   4.762   6.528   5.993  1.4386  4.4514 -1.1037
20610SOL     OW73807   1.961   6.402   9.059  0.5119  0.2499  0.1074
20610SOL    HW173808   1.959   6.332   9.125  2.9518  0.2890  0.3243
20610SOL    HW273809   1.974   6.355   8.976 -0.1212  0.3439 -0.0512
20611SOL     OW73810   2.151   7.049   6.976  0.3504 -0.1339  0.0938
20611SOL    HW173811   2.179   6.997   6.901  0.9524 -1.9157  1.4703
20611SOL    HW273812   2.233   7.077   7.017  0.0311  0.9824  0.0025
20612SOL     OW73813   8.853   0.366   2.767  0.1027  0.6919  0.2344
20612SOL    HW173814   8.844   0.429   2.839 -0.8952  1.3188 -0.4193
20612SOL    HW273815   8.925   0.401   2.714  0.6260  0.4012  0.7429
20613SOL     OW73816   5.233   7.870   9.401  0.4919 -0.1184  0.0606
20613SOL    HW173817   5.229   7.781   9.365  3.0411 -1.1642  1.9914
20613SOL    HW273818   5.284   7.919   9.337  0.1096 -0.3893 -0.4537
20614SOL     OW73819   8.367   9.567   9.641 -0.1618 -0.2763 -0.3488
20614SOL    HW173820   8.437   9.628   9.661 -0.1470 -0.4023 -0.0142
20614SOL    HW273821   8.309   9.570   9.717 -1.6150  1.3339 -1.4448
20615SOL     OW73822   9.218   7.776   1.363 -0.1429  0.0239 -0.2709
20615SOL    HW173823   9.139   7.807   1.319 -0.7154 -1.6286 -0.4605
20615SOL    HW273824   9.245   7.699   1.313  0.8122 -0.2184  0.5924
20616SOL     OW73825   7.798   8.219   5.566  0.1265 -0.2495  0.4750
20616SOL    HW173826   7.863   8.153   5.544 -0.8877 -0.7901 -1.0538
20616SOL    HW273827   7.823   8.296   5.515  0.4432  0.0745  1.1011
20617SOL     OW73828   3.094   3.133   9.461  0.3181 -0.5261 -0.1929
20617SOL    HW173829   3.149   3.209   9.480 -0.2731  0.0612 -0.7511
20617SOL    HW273830   3.139   3.089   9.389 -0.0194  0.0630 -0.7820
20618SOL     OW73831   6.198   0.570   9.654 -0.6281 -0.0573 -0.4741
20618SOL    HW173832   6.293   0.570   9.649 -0.5971  0.8388 -0.1172
20618SOL    HW273833   6.174   0.662   9.660 -1.5464 -0.2505 -0.9391
20619SOL     OW73834   6.644   5.403   5.537  0.4383 -0.4819  0.0207
20619SOL    HW173835   6.701   5.479   5.525  0.7577 -0.7670 -0.2915
20619SOL    HW273836   6.701   5.337   5.576 -0.2448 -0.0248  1.9413
20620SOL     OW73837   4.183   9.177   2.251 -0.4233  0.1948 -0.4109
20620SOL    HW173838   4.204   9.225   2.332 -3.8869  1.8118 -0.3008
20620SOL    HW273839   4.200   9.240   2.181  1.3487 -0.7792 -0.9149
20621SOL     OW73840   8.888   0.143   4.399 -0.2591  0.1894 -0.2421
20621SOL    HW173841   8.924   0.229   4.375 -0.0828 -0.3188 -1.9116
20621SOL    HW273842   8.842   0.114   4.321  0.0592 -1.4469  0.1542
20622SOL     OW73843   2.489  10.289   1.936  0.3233  0.3695  0.2916
20622SOL    HW173844   2.457  10.326   1.853 -1.2699 -0.3817  0.5335
20622SOL    HW273845   2.518  10.201   1.914 -1.4313 -0.3579  0.7455
20623SOL     OW73846   6.551   0.473   8.362  0.1462 -0.0966 -0.9300
20623SOL    HW173847   6.559   0.568   8.374 -0.3806  0.0732 -1.7918
20623SOL    HW273848   6.499   0.444   8.437  0.2380  0.3093 -0.7053
20624SOL     OW73849   5.053   2.330   9.486  0.6176 -0.9616 -0.5349
20624SOL    HW173850   5.098   2.403   9.528 -1.8080  0.5434 -0.3472
20624SOL    HW273851   5.117   2.295   9.424  1.5668  1.9954 -1.3933
20625SOL     OW73852   4.673   7.871   7.358 -0.2779  0.3751  0.2766
20625SOL    HW173853   4.587   7.887   7.397 -0.4598  2.5395 -0.8720
20625SOL    HW273854   4.663   7.787   7.313 -2.5542  1.5302 -1.6246
20626SOL     OW73855   5.810   0.986   1.897  0.7668  0.8089 -0.2032
20626SOL    HW173856   5.800   0.947   1.984 -0.8893 -2.3991 -1.6760
20626SOL    HW273857   5.854   0.918   1.845 -0.8956  1.3928 -2.5632
20627SOL     OW73858   7.079   1.362   6.199 -0.4505  0.0006  0.1954
20627SOL    HW173859   7.002   1.330   6.152 -0.5050  1.8916 -1.1060
20627SOL    HW273860   7.069   1.457   6.200  1.6357  0.2679  0.3753
20628SOL     OW73861   1.268   8.543   2.555  0.3201  0.5556  0.4524
20628SOL    HW173862   1.251   8.592   2.636 -0.6783  1.2559 -0.1580
20628SOL    HW273863   1.195   8.566   2.497  0.8527 -0.1770 -0.5408
20629SOL     OW73864   1.151   5.140   9.677  0.1713 -0.1799 -0.0641
20629SOL    HW173865   1.119   5.178   9.595 -0.8056  0.5685  0.6464
20629SOL    HW273866   1.178   5.216   9.729 -0.3409 -0.5535  0.7663
20630SOL     OW73867   1.211   1.290   7.820 -0.4207  0.1170  0.3730
20630SOL    HW173868   1.139   1.312   7.761 -0.4482  0.1517  0.4196
20630SOL    HW273869   1.288   1.331   7.779 -0.0612 -1.5688 -0.7267
20631SOL     OW73870   0.958   2.462   0.780 -0.2625  0.3069  0.2613
20631SOL    HW173871   1.002   2.388   0.738  0.1585 -0.4651  2.0058
20631SOL    HW273872   0.868   2.456   0.750  0.1182  0.0671 -0.8963
20632SOL     OW73873   7.542   9.840   1.046  0.0564  0.1798  0.1170
20632SOL    HW173874   7.500   9.900   1.107 -0.2541  0.5965 -0.5051
20632SOL    HW273875   7.560   9.762   1.099 -1.1174  0.1467  0.5042
20633SOL     OW73876   1.535   6.192   8.982 -0.5997  0.1755 -0.0034
20633SOL    HW173877   1.455   6.213   8.934 -0.8462 -0.1907  0.2383
20633SOL    HW273878   1.513   6.209   9.074  0.0418  1.3999 -0.0601
20634SOL     OW73879   8.774   5.297   6.395 -0.6096  0.7044 -0.0229
20634SOL    HW173880   8.769   5.361   6.324  0.5571  0.1188 -0.6670
20634SOL    HW273881   8.769   5.350   6.475  2.4760  1.9366 -0.4819
20635SOL     OW73882   6.689   7.723   3.647  0.0738  0.0268 -0.2311
20635SOL    HW173883   6.647   7.804   3.675  2.8699  2.1588 -1.6821
20635SOL    HW273884   6.716   7.681   3.729  1.5467  2.3698  0.5891
20636SOL     OW73885  10.060   6.572   9.086  0.0628 -0.2160 -0.1572
20636SOL    HW173886  10.126   6.599   9.022  0.8279 -2.8005 -0.5804
20636SOL    HW273887  10.078   6.625   9.163  2.3017 -0.4220 -0.4574
20637SOL     OW73888   7.700   9.484   2.230 -0.1531  0.1200 -0.1409
20637SOL    HW173889   7.743   9.555   2.183  0.0271 -0.6994 -1.2706
20637SOL    HW273890   7.647   9.528   2.297  2.9387  1.1315  1.8350
20638SOL     OW73891   7.676   6.555  10.013  0.4156  0.2691  0.1583
20638SOL    HW173892   7.605   6.537  10.074 -1.0489 -0.1315 -1.5812
20638SOL    HW273893   7.687   6.650  10.017 -0.4195  0.3664  0.2464
20639SOL     OW73894   3.769   2.680   5.636  0.3526 -0.4929 -0.3023
20639SOL    HW173895   3.776   2.754   5.575 -1.2090 -0.8422 -0.9468
20639SOL    HW273896   3.785   2.603   5.581 -0.5019 -0.7735 -0.1684
20640SOL     OW73897   9.584   9.050   1.740 -0.9387 -0.3291 -0.2629
20640SOL    HW173898   9.630   9.074   1.659  2.9357 -1.7815  1.2865
20640SOL    HW273899   9.575   9.132   1.788 -0.4895  0.0605 -0.8263
20641SOL     OW73900   0.139   1.366   4.428 -0.4041  0.3346 -0.4778
20641SOL    HW173901   0.089   1.284   4.420  1.0435 -0.6215 -0.0554
20641SOL    HW273902   0.211   1.356   4.367  0.1856  1.0000  0.0969
20642SOL     OW73903   5.621   0.449   1.008 -0.4151  0.0283 -0.6223
20642SOL    HW173904   5.576   0.423   1.089 -0.3064 -0.0371 -0.5828
20642SOL    HW273905   5.712   0.421   1.021 -0.4128 -0.0440 -0.7948
20643SOL     OW73906   6.927   4.405   6.199  0.4419 -0.1672 -0.7795
20643SOL    HW173907   6.894   4.437   6.283 -0.2110  0.2994 -1.2119
20643SOL    HW273908   6.915   4.310   6.204 -0.9001 -0.0241 -0.8899
20644SOL     OW73909   7.660   9.219   6.691 -0.3420 -0.1893 -0.3995
20644SOL    HW173910   7.662   9.243   6.598 -0.6775  0.8223 -0.1666
20644SOL    HW273911   7.743   9.174   6.706 -0.4220 -0.6521 -1.2599
20645SOL     OW73912   6.975   1.343  10.097  0.2674  0.2289  0.0594
20645SOL    HW173913   6.929   1.425  10.081  0.9836  0.6136 -0.0713
20645SOL    HW273914   7.024   1.327  10.017  1.9817  0.9203  0.9015
20646SOL     OW73915   8.153   0.997   8.920 -0.0101 -0.2855  0.2806
20646SOL    HW173916   8.167   1.045   9.002 -0.1141  0.0058  0.1308
20646SOL    HW273917   8.172   0.906   8.942 -1.6794 -0.4684  1.0637
20647SOL     OW73918   2.998   9.869   3.506  0.0709 -0.0346 -0.2582
20647SOL    HW173919   3.022   9.830   3.591  0.4817  0.8623  0.0582
20647SOL    HW273920   3.082   9.886   3.463 -0.1576 -1.7970 -1.4898
20648SOL     OW73921   6.259   2.450   4.789  0.4347  0.3492 -0.2422
20648SOL    HW173922   6.337   2.431   4.738  0.8221  1.2657  0.0005
20648SOL    HW273923   6.289   2.452   4.880 -0.3112 -1.6123  0.1020
20649SOL     OW73924   8.177   2.298   5.951  0.0486 -0.3856  0.2733
20649SOL    HW173925   8.189   2.255   6.036  1.0738 -1.2382 -0.2671
20649SOL    HW273926   8.116   2.241   5.903  0.2165 -0.4217  0.1000
20650SOL     OW73927   0.810   6.252   9.338 -0.3500 -0.9299  0.3953
20650SOL    HW173928   0.723   6.213   9.348 -0.5354 -0.8851 -0.8455
20650SOL    HW273929   0.825   6.252   9.244 -1.0172  3.3149  0.0880
20651SOL     OW73930   9.429   9.627   8.904  0.0863  0.2205 -0.7137
20651SOL    HW173931   9.349   9.678   8.891  0.5504  1.0446 -0.4165
20651SOL    HW273932   9.430   9.607   8.997  0.1082 -0.0095 -0.7613
20652SOL     OW73933   2.837   1.922  10.062  0.1496 -0.0150  0.4705
20652SOL    HW173934   2.787   1.844  10.085  0.3219 -0.2724 -0.0160
20652SOL    HW273935   2.771   1.986  10.036  0.0612 -0.3934 -0.2889
20653SOL     OW73936   9.118   1.549   3.219 -0.2869  0.5031 -0.9287
20653SOL    HW173937   9.156   1.575   3.302 -0.1426  0.4445 -0.9771
20653SOL    HW273938   9.183   1.573   3.153 -1.1331  2.2082 -1.2033
20654SOL     OW73939   6.645   2.551   0.166  0.3866 -0.1880 -0.2227
20654SOL    HW173940   6.616   2.547   0.075 -0.7727 -1.0136  0.1647
20654SOL    HW273941   6.658   2.644   0.183  0.2047  0.0060 -1.0979
20655SOL     OW73942   5.154   9.283   5.632  0.1686 -0.3960 -0.3225
20655SOL    HW173943   5.244   9.280   5.600  0.3739 -1.0595  0.2960
20655SOL    HW273944   5.106   9.327   5.562  1.0715  0.4911 -0.4202
20656SOL     OW73945   0.577   3.771   0.503  0.1297 -0.1641  0.2084
20656SOL    HW173946   0.572   3.743   0.594 -1.7249 -0.2912  0.1110
20656SOL    HW273947   0.578   3.867   0.507 -0.2026 -0.1650  0.3680
20657SOL     OW73948   0.536   1.460  10.364  0.3182  0.0500  0.2183
20657SOL    HW173949   0.485   1.499  10.293 -0.6765 -0.4876  0.6150
20657SOL    HW273950   0.491   1.377  10.382  2.3991 -1.3649 -0.6695
20658SOL     OW73951   5.472   0.333   5.061  0.3076 -0.1886  0.0605
20658SOL    HW173952   5.416   0.259   5.086  1.2448 -0.8592  0.2422
20658SOL    HW273953   5.520   0.355   5.141 -1.0016  1.6077  0.4251
20659SOL     OW73954   6.957   2.707   6.148  0.6903  0.2442 -0.4141
20659SOL    HW173955   7.009   2.773   6.102  2.0155 -0.0462  0.5865
20659SOL    HW273956   6.942   2.744   6.235 -0.7215  0.2698 -0.6497
20660SOL     OW73957   6.175   0.960   3.426 -0.1292  0.0557 -0.0571
20660SOL    HW173958   6.246   0.937   3.485  1.2124  2.9994 -0.3545
20660SOL    HW273959   6.142   1.043   3.459 -2.0058 -0.1907 -1.1826
20661SOL     OW73960   3.996   3.516   6.336  0.2682 -0.3121  0.3839
20661SOL    HW173961   3.965   3.606   6.347 -2.2716 -1.1066  0.3361
20661SOL    HW273962   3.987   3.477   6.422  0.6487 -0.7199  0.2374
20662SOL     OW73963   2.922   7.371   2.876 -0.3640 -0.3456  0.0139
20662SOL    HW173964   2.835   7.403   2.900  0.2614 -0.5600  3.0769
20662SOL    HW273965   2.972   7.377   2.958  2.1094 -1.4960 -1.3167
20663SOL     OW73966   3.380   9.956   6.126 -0.3911 -0.0788  0.5774
20663SOL    HW173967   3.357   9.895   6.197  1.3464 -0.0067  1.2650
20663SOL    HW273968   3.365  10.043   6.164  0.7187 -0.0358  0.9642
20664SOL     OW73969   9.656   8.307   8.121 -0.2279  0.3795 -0.2689
20664SOL    HW173970   9.606   8.262   8.053 -1.1053  0.4151  0.3467
20664SOL    HW273971   9.740   8.261   8.123  0.2214  1.0149 -2.0745
20665SOL     OW73972   9.608   9.393   4.989 -0.2554  0.2316  0.2343
20665SOL    HW173973   9.631   9.412   5.080 -0.6112  1.0013  0.1683
20665SOL    HW273974   9.659   9.454   4.937 -0.5979  0.2898 -0.0423
20666SOL     OW73975   5.585   8.653   3.862  0.5837 -0.1642 -0.1030
20666SOL    HW173976   5.580   8.728   3.921  0.0973  0.3244 -0.7488
20666SOL    HW273977   5.645   8.680   3.793  2.0876 -1.1708  0.7574
20667SOL     OW73978   8.446   6.386   2.269 -0.2444 -0.3882  0.1708
20667SOL    HW173979   8.539   6.371   2.252 -0.4790 -1.2774 -0.3880
20667SOL    HW273980   8.420   6.312   2.324 -0.6260 -0.1461  0.3150
20668SOL     OW73981   8.923   1.438   2.477  0.0342 -0.5619  0.1032
20668SOL    HW173982   8.840   1.484   2.464  0.2050 -0.2874 -0.0252
20668SOL    HW273983   8.972   1.493   2.537 -0.0794 -0.9861  0.5877
20669SOL     OW73984   6.425   8.430   4.659  0.1105  0.3932 -0.6972
20669SOL    HW173985   6.420   8.364   4.727 -1.3704  1.8585  0.6993
20669SOL    HW273986   6.416   8.381   4.577  0.1394 -1.2170  0.2212
20670SOL     OW73987   3.365   0.228   5.889 -0.6238  0.4082 -0.5384
20670SOL    HW173988   3.341   0.201   5.801 -0.2218 -2.3876  0.1161
20670SOL    HW273989   3.298   0.188   5.945  0.6521 -0.1979  0.6106
20671SOL     OW73990   1.911   6.400   8.009 -0.0520  0.2067  0.1243
20671SOL    HW173991   1.966   6.363   7.941  1.2863  1.0664  0.7105
20671SOL    HW273992   1.858   6.467   7.964 -1.0159 -0.9498 -0.5282
20672SOL     OW73993   7.478   9.186   2.453  0.1610  0.2015 -0.5157
20672SOL    HW173994   7.571   9.176   2.470  0.6544 -0.5649 -3.1723
20672SOL    HW273995   7.435   9.135   2.523  1.7828 -0.6170 -0.0690
20673SOL     OW73996   5.524   4.308   1.468 -0.1037 -0.2708  0.1423
20673SOL    HW173997   5.551   4.372   1.533 -2.6285 -0.4562  1.4975
20673SOL    HW273998   5.485   4.237   1.519  0.1480 -1.6350 -1.4686
20674SOL     OW73999   9.425   6.362   1.979  1.1171 -0.5224  0.6459
20674SOL    HW174000   9.413   6.352   2.074 -0.8078 -1.0921  0.3878
20674SOL    HW274001   9.366   6.298   1.941  0.2274  1.1770 -0.9706
20675SOL     OW74002   9.103   6.856   2.282  0.1453  0.5496 -0.4684
20675SOL    HW174003   9.131   6.791   2.218  1.3350 -1.1845  1.6889
20675SOL    HW274004   9.065   6.805   2.354  0.4836  2.2556  0.9997
20676SOL     OW74005   1.623   7.691   7.128 -0.2251  0.3640  0.0513
20676SOL    HW174006   1.716   7.686   7.107 -0.4461  1.4102 -1.2763
20676SOL    HW274007   1.619   7.742   7.209  0.3973 -0.5549  0.6838
20677SOL     OW74008   9.133   1.302   8.297 -0.1145 -0.2715 -0.2187
20677SOL    HW174009   9.055   1.345   8.262 -0.5766 -0.8492  0.0711
20677SOL    HW274010   9.105   1.211   8.311  0.5924 -0.4651 -0.0438
20678SOL     OW74011   0.743   7.553   9.520  0.3310  0.2013 -0.0769
20678SOL    HW174012   0.680   7.620   9.546  0.8676  0.7685 -0.2365
20678SOL    HW274013   0.786   7.588   9.443 -0.6081 -1.0799 -1.2232
20679SOL     OW74014   7.041   6.233   6.194 -0.4365 -0.5148 -0.3727
20679SOL    HW174015   7.057   6.152   6.146 -0.8530 -0.9716  0.2410
20679SOL    HW274016   7.011   6.204   6.281 -0.0571  0.2897  0.0416
20680SOL     OW74017   0.358   7.286   5.506 -0.0083  0.4194 -0.0832
20680SOL    HW174018   0.381   7.302   5.597  3.8316  2.0726 -1.1281
20680SOL    HW274019   0.402   7.203   5.485  1.1920  1.2241 -0.9259
20681SOL     OW74020   8.394   0.266   4.889  0.0905 -0.0713  0.0234
20681SOL    HW174021   8.479   0.261   4.844  0.7447 -0.6299  1.2809
20681SOL    HW274022   8.380   0.359   4.905 -0.7386  0.2960 -2.3415
20682SOL     OW74023   1.568  10.350   3.557 -0.2609 -0.2938  0.0773
20682SOL    HW174024   1.563  10.255   3.541 -0.6931 -0.6796  2.1921
20682SOL    HW274025   1.600  10.386   3.474  0.4223 -2.3380 -0.6304
20683SOL     OW74026  10.320   8.625   1.937  0.1421  0.2108 -0.7931
20683SOL    HW174027  10.270   8.546   1.957  0.2314 -0.0008 -1.3738
20683SOL    HW274028  10.273   8.696   1.981  1.0663 -0.3803  1.3216
20684SOL     OW74029   4.342   3.267   6.029  0.4844  0.7201 -0.3109
20684SOL    HW174030   4.367   3.337   5.968  2.9336 -0.5569 -0.8976
20684SOL    HW274031   4.372   3.187   5.986 -1.2237 -0.5997  0.8685
20685SOL     OW74032   0.477   7.258   4.674 -0.1815 -0.3818 -0.3226
20685SOL    HW174033   0.425   7.286   4.600 -0.7151 -0.4720  0.0106
20685SOL    HW274034   0.418   7.264   4.749  0.5604  0.3907  0.2129
20686SOL     OW74035   9.852   1.069   2.294  0.1574  0.5549  0.3412
20686SOL    HW174036   9.836   1.153   2.253 -1.3532  1.1297  2.0076
20686SOL    HW274037   9.824   1.080   2.385  1.3321 -1.3015  0.9935
20687SOL     OW74038   9.703   5.496   3.535  0.1550  0.0059  0.1449
20687SOL    HW174039   9.773   5.537   3.482  1.4578 -2.7836 -0.4751
20687SOL    HW274040   9.622   5.534   3.500  1.1570  0.6201 -1.6841
20688SOL     OW74041   7.938   1.391   3.252 -0.4120  0.3073 -0.6005
20688SOL    HW174042   8.025   1.388   3.213  0.2484  1.8547  0.6602
20688SOL    HW274043   7.881   1.353   3.185  1.0138  0.5781 -2.0328
20689SOL     OW74044   9.814   5.534   5.832 -0.1408 -0.2412 -0.3994
20689SOL    HW174045   9.866   5.478   5.775  1.1224 -0.3922  0.8418
20689SOL    HW274046   9.840   5.623   5.808  0.6703 -0.3147  0.1787
20690SOL     OW74047   7.500   8.017   3.225 -0.1783 -0.0223 -0.1154
20690SOL    HW174048   7.592   8.029   3.249 -0.5006 -0.4038  1.3973
20690SOL    HW274049   7.482   7.926   3.246 -0.2227 -0.7388 -2.8969
20691SOL     OW74050   1.025   2.398   3.853  0.6970 -0.1359  0.5272
20691SOL    HW174051   1.070   2.429   3.931 -0.7130  0.9544  0.9508
20691SOL    HW274052   0.935   2.429   3.863  0.0963 -1.3382 -0.7812
20692SOL     OW74053   1.933   6.090   6.115 -0.9240  0.3018 -0.1329
20692SOL    HW174054   1.850   6.065   6.155 -1.6249 -0.6796 -2.1129
20692SOL    HW274055   1.995   6.024   6.146 -0.9425  0.7993  1.0180
20693SOL     OW74056   6.660   8.916   6.030  0.0532 -0.0338 -0.1765
20693SOL    HW174057   6.581   8.903   5.977 -0.4259 -1.0259  0.7314
20693SOL    HW274058   6.669   9.011   6.038  0.6218  0.1785 -2.6851
20694SOL     OW74059   9.366   9.161   7.487  0.0867  0.3913 -0.0864
20694SOL    HW174060   9.331   9.080   7.523  1.6331  0.3146  1.3578
20694SOL    HW274061   9.421   9.133   7.413 -0.5852  0.2803 -0.5565
20695SOL     OW74062   0.862   5.698   7.189  0.3151 -0.1780 -0.2208
20695SOL    HW174063   0.795   5.737   7.134 -1.7923 -1.6091  1.2068
20695SOL    HW274064   0.933   5.676   7.128 -1.0507  0.1399 -1.9969
20696SOL     OW74065   9.660   6.350   0.820  0.0331  0.2001  1.2365
20696SOL    HW174066   9.733   6.327   0.877  0.5276  0.7100  0.8310
20696SOL    HW274067   9.665   6.288   0.748  1.1167  1.2537  0.3515
20697SOL     OW74068   8.329   6.989   3.550  0.1319 -0.4550  0.4854
20697SOL    HW174069   8.318   6.894   3.549 -0.7662 -0.3549  0.4241
20697SOL    HW274070   8.322   7.015   3.459  0.8924 -0.3827  0.4446
20698SOL     OW74071   6.288   2.995   2.677  0.8426  0.4328  0.5043
20698SOL    HW174072   6.196   2.995   2.704  0.3528 -0.7879 -1.0036
20698SOL    HW274073   6.316   3.085   2.690  0.1325  0.3642  3.1224
20699SOL     OW74074   7.003   4.052   5.466  0.1121 -0.6012 -0.1966
20699SOL    HW174075   7.045   4.132   5.498 -1.8193  0.4561 -0.1241
20699SOL    HW274076   7.017   3.988   5.535 -0.4513  0.4319  0.9139
20700SOL     OW74077   4.417   7.395   7.897  0.4885  0.2328  0.1582
20700SOL    HW174078   4.343   7.412   7.956  0.5374  0.3619  0.1830
20700SOL    HW274079   4.494   7.407   7.951  0.5369  0.4720  0.0384
20701SOL     OW74080   8.507   1.550   9.059  0.1550  0.1219 -0.2758
20701SOL    HW174081   8.492   1.643   9.042 -0.9628 -0.2814 -1.7505
20701SOL    HW274082   8.453   1.531   9.135 -0.5580  0.4440 -0.6883
20702SOL     OW74083   5.058   8.170   3.418  0.0318 -0.0844  0.4221
20702SOL    HW174084   5.053   8.143   3.326 -0.2060  0.3187  0.3143
20702SOL    HW274085   4.995   8.113   3.463  1.3719 -1.4761  0.6380
20703SOL     OW74086   2.078   6.838   9.640 -0.9642 -0.5603  0.5650
20703SOL    HW174087   2.161   6.795   9.620 -0.6349  0.2393  0.2037
20703SOL    HW274088   2.027   6.830   9.560  0.0428  1.9023 -0.4216
20704SOL     OW74089   2.553   7.032   3.314 -0.3883  0.4698 -0.3960
20704SOL    HW174090   2.501   7.011   3.391  0.5386  1.2487  0.4603
20704SOL    HW274091   2.553   7.127   3.309  1.2268  0.5176 -0.1479
20705SOL     OW74092   4.749   6.530   9.860 -0.3621  0.1189 -0.2052
20705SOL    HW174093   4.728   6.617   9.895  0.8114  0.2085  0.3195
20705SOL    HW274094   4.834   6.541   9.818 -1.7616  0.0605 -3.3414
20706SOL     OW74095   5.438   8.697   9.712  0.0968  0.3457  0.2062
20706SOL    HW174096   5.482   8.782   9.708 -0.3494  0.7355  2.3321
20706SOL    HW274097   5.349   8.718   9.742 -0.4450 -0.7550 -0.5770
20707SOL     OW74098   5.842   4.067  10.316 -0.6953  0.3880 -0.1727
20707SOL    HW174099   5.840   3.997  10.250 -0.8856 -0.1173  0.3542
20707SOL    HW274100   5.843   4.148  10.266 -0.4298  0.0007 -0.7989
20708SOL     OW74101   2.601   8.653   6.453  0.3432  0.5054 -0.9046
20708SOL    HW174102   2.519   8.694   6.480  0.2530 -0.1615 -0.1302
20708SOL    HW274103   2.596   8.565   6.489  1.2269  0.3279 -1.2083
20709SOL     OW74104   2.479   4.370   8.567 -0.1357 -0.2351  0.4013
20709SOL    HW174105   2.482   4.461   8.595 -1.2930  0.4758 -1.5663
20709SOL    HW274106   2.427   4.325   8.634 -2.1071  1.2067 -0.0755
20710SOL     OW74107   0.012   5.384   6.688 -0.3663 -0.6917 -0.5772
20710SOL    HW174108   0.004   5.436   6.608  0.3898 -1.5411 -1.2173
20710SOL    HW274109   0.055   5.442   6.750 -0.9645 -0.0231 -0.7687
20711SOL     OW74110   2.104   7.693   1.906 -0.8396  0.7984  0.3488
20711SOL    HW174111   2.057   7.679   1.824  0.1280 -0.6745  0.0031
20711SOL    HW274112   2.043   7.664   1.974 -0.9016  0.0727 -0.0052
20712SOL     OW74113   5.164   9.704   2.654 -0.4792  0.3041 -0.1100
20712SOL    HW174114   5.078   9.746   2.645 -0.3362  0.6900  0.2406
20712SOL    HW274115   5.150   9.635   2.719 -0.3486  0.9116  0.5862
20713SOL     OW74116   2.169   6.806   3.515  0.1877  0.2953  0.0082
20713SOL    HW174117   2.140   6.831   3.603  0.1126 -2.0803  0.7290
20713SOL    HW274118   2.240   6.866   3.495  0.3945  0.7133  1.8200
20714SOL     OW74119   3.239   1.935  10.159  0.1656  0.0404  0.9379
20714SOL    HW174120   3.149   1.962  10.177 -0.7653 -0.2536 -2.5755
20714SOL    HW274121   3.274   2.005  10.103  1.8249 -0.3140  1.4906
20715SOL     OW74122   5.933   0.238   0.266  0.3462  0.5409 -0.2259
20715SOL    HW174123   5.992   0.272   0.333 -0.7683  0.5781  0.7784
20715SOL    HW274124   5.900   0.156   0.303 -0.0644  0.4180 -0.8500
20716SOL     OW74125   1.284   8.700   4.866 -0.2572  0.5140 -0.1070
20716SOL    HW174126   1.334   8.642   4.923 -1.8701 -0.8734 -0.0222
20716SOL    HW274127   1.344   8.772   4.846  1.0334 -0.0088  1.6514
20717SOL     OW74128   7.323   3.278   4.072  0.6499  0.1890 -0.0750
20717SOL    HW174129   7.419   3.278   4.066  0.7865  0.8574  1.6487
20717SOL    HW274130   7.296   3.351   4.016  1.1251 -0.0670 -0.6489
20718SOL     OW74131   2.453   2.617   8.667 -0.0606  0.1545 -0.5919
20718SOL    HW174132   2.414   2.530   8.653  0.2499 -0.4586  1.9687
20718SOL    HW274133   2.378   2.677   8.665 -0.6960 -0.5662  0.6279
20719SOL     OW74134   7.088   2.204   1.072  0.1231 -0.3080  0.2214
20719SOL    HW174135   7.143   2.168   1.003 -0.0937 -2.0718  0.9095
20719SOL    HW274136   7.000   2.208   1.032 -0.3534 -2.9149  0.8206
20720SOL     OW74137   9.247   6.639   7.566 -0.1453 -0.2360 -0.0400
20720SOL    HW174138   9.338   6.647   7.540  0.2071  0.7279  1.4054
20720SOL    HW274139   9.198   6.641   7.483  1.0886 -0.2178 -0.7929
20721SOL     OW74140   0.965   8.285   3.630  0.2636 -1.1378  0.3367
20721SOL    HW174141   1.059   8.271   3.642  0.3000 -1.5336 -0.3773
20721SOL    HW274142   0.928   8.197   3.625 -0.1506 -0.9829  0.6259
20722SOL     OW74143   2.062   6.027   5.867 -0.3523 -0.0204 -0.1083
20722SOL    HW174144   2.033   6.058   5.953  0.6819 -0.5618  0.4638
20722SOL    HW274145   2.111   6.101   5.830 -1.1922  0.3768 -0.4450
20723SOL     OW74146   3.914   7.405  10.162  0.3325  0.4196  0.8817
20723SOL    HW174147   3.895   7.498  10.172  1.6206  0.7210  0.6662
20723SOL    HW274148   3.925   7.393  10.067  0.6378  0.1472  0.9478
20724SOL     OW74149   8.597   9.262   1.554 -0.6594 -0.2234  0.1857
20724SOL    HW174150   8.587   9.212   1.635  2.6540 -1.9147 -0.2471
20724SOL    HW274151   8.670   9.322   1.572 -1.1595  0.7680 -0.9605
20725SOL     OW74152   8.205   5.067   9.524  0.2283 -0.2668 -0.0607
20725SOL    HW174153   8.189   5.153   9.485  1.6018 -0.5234 -1.2806
20725SOL    HW274154   8.121   5.044   9.564 -0.3556  1.3571 -0.2470
20726SOL     OW74155   3.452   0.315  10.282 -0.2145  0.5321  0.4304
20726SOL    HW174156   3.432   0.404  10.253 -0.6959  0.1013 -0.5935
20726SOL    HW274157   3.373   0.265  10.261  0.8065 -0.5802 -0.9317
20727SOL     OW74158   3.566   3.016   6.902 -0.3084 -0.2428 -0.2618
20727SOL    HW174159   3.547   3.108   6.887 -1.0560 -0.4502 -0.6222
20727SOL    HW274160   3.624   3.016   6.979 -0.4815  0.5077 -0.1225
20728SOL     OW74161   2.583   3.291   1.239  0.2036 -0.1869 -0.1442
20728SOL    HW174162   2.656   3.255   1.189 -0.2608 -1.8650  0.3033
20728SOL    HW274163   2.516   3.310   1.174  0.6738  0.4214 -0.4536
20729SOL     OW74164   2.880   8.902   9.932  0.1246  0.0100  0.6760
20729SOL    HW174165   2.931   8.981   9.948 -1.3758  1.1490  0.1428
20729SOL    HW274166   2.835   8.886  10.015 -2.0869  1.6941 -0.0984
20730SOL     OW74167   4.068   1.685   7.688  0.0106 -0.0505 -0.2453
20730SOL    HW174168   4.142   1.653   7.740  1.1205  0.7795 -1.2773
20730SOL    HW274169   4.071   1.634   7.607 -1.1824 -0.7210  0.1032
20731SOL     OW74170   6.646   7.789   6.515 -0.1888 -0.2418  0.4557
20731SOL    HW174171   6.638   7.694   6.515  1.1166 -0.3716  1.0823
20731SOL    HW274172   6.702   7.809   6.591 -0.5540  1.0344  0.4244
20732SOL     OW74173   4.211   5.764   8.608 -0.4135  0.2400  0.1854
20732SOL    HW174174   4.297   5.805   8.598 -1.1277  2.0417  0.8501
20732SOL    HW274175   4.169   5.775   8.523 -0.7529  1.3727  0.4695
20733SOL     OW74176   3.836   3.755   6.880 -0.0083  0.2321 -0.5005
20733SOL    HW174177   3.811   3.769   6.789  1.8674  0.7458 -0.9825
20733SOL    HW274178   3.888   3.832   6.903  0.6969 -0.5193  0.5584
20734SOL     OW74179   9.364   4.907   2.031 -0.1755 -0.2016  0.4182
20734SOL    HW174180   9.340   4.821   2.064 -0.2982  0.0912  1.1194
20734SOL    HW274181   9.436   4.891   1.970 -0.3630 -0.8192  0.3540
20735SOL     OW74182   2.608   9.767   4.187 -0.8488 -0.1632  1.0088
20735SOL    HW174183   2.645   9.850   4.217 -1.0786 -0.1210  1.1829
20735SOL    HW274184   2.544   9.743   4.254 -0.7717 -0.4920  0.9693
20736SOL     OW74185   2.068   4.050   7.979 -0.6272 -0.0768  0.0328
20736SOL    HW174186   2.128   4.033   7.907 -1.3094 -2.3729 -0.0540
20736SOL    HW274187   1.998   4.103   7.940  0.1471  0.6513 -0.4023
20737SOL     OW74188   9.517   8.426   9.767  0.3297  0.0406 -0.1539
20737SOL    HW174189   9.549   8.514   9.746  0.2939  0.0508 -0.1642
20737SOL    HW274190   9.561   8.404   9.849  0.4882 -0.0092 -0.2507
20738SOL     OW74191   6.514   5.814   3.136  0.8625  0.6204  0.1429
20738SOL    HW174192   6.587   5.826   3.196  2.2342  0.0952 -1.3652
20738SOL    HW274193   6.525   5.725   3.101 -0.0515  0.8065 -0.6768
20739SOL     OW74194   2.218   9.437   8.559  0.6793 -0.0229  0.0836
20739SOL    HW174195   2.312   9.443   8.576  0.5132  1.5065  0.5630
20739SOL    HW274196   2.180   9.414   8.645  0.4425  1.3413  0.3588
20740SOL     OW74197   1.339   0.001  10.073 -0.5416  0.0949 -0.3116
20740SOL    HW174198   1.377  -0.022  10.158  1.1036 -2.7786 -1.6902
20740SOL    HW274199   1.246   0.014  10.091 -0.2404 -0.4720  1.9266
20741SOL     OW74200   7.585   8.363   7.713  0.3362 -0.2262 -0.0569
20741SOL    HW174201   7.517   8.426   7.689  1.2776  1.4931  1.5839
20741SOL    HW274202   7.536   8.283   7.732 -1.0282  0.3730 -0.8405
20742SOL     OW74203   2.099   1.278   6.351 -0.2601 -0.8014 -0.2468
20742SOL    HW174204   2.060   1.264   6.265 -1.2094 -0.7399  0.1537
20742SOL    HW274205   2.025   1.273   6.412  0.2411  0.1213  0.4703
20743SOL     OW74206   5.031   5.066   2.946 -0.6968  0.6402 -0.6331
20743SOL    HW174207   4.968   5.118   2.896 -2.3220  0.3018  0.9826
20743SOL    HW274208   4.978   4.999   2.990  0.8585  0.0242  0.3800
20744SOL     OW74209   4.228  10.225   4.708  0.6634 -0.2025 -0.4339
20744SOL    HW174210   4.153  10.249   4.762 -0.9420 -0.9467 -2.2179
20744SOL    HW274211   4.303  10.265   4.752 -0.7263  0.3821  1.5394
20745SOL     OW74212   4.194   0.198   7.164  0.5134 -0.4215  0.1597
20745SOL    HW174213   4.230   0.110   7.160  2.5458  0.3605  0.1845
20745SOL    HW274214   4.188   0.218   7.258  0.0505 -0.5272  0.1544
20746SOL     OW74215   7.562   1.623   1.260 -0.3194 -0.2000 -0.3603
20746SOL    HW174216   7.580   1.611   1.166 -0.2597  0.4088 -0.4334
20746SOL    HW274217   7.541   1.535   1.292 -0.9335 -0.3220 -1.0710
20747SOL     OW74218   4.121   4.367   6.635  0.5716 -0.3443  0.5512
20747SOL    HW174219   4.100   4.439   6.576  0.2420 -1.7062 -1.0562
20747SOL    HW274220   4.198   4.396   6.683  1.5944  0.3283 -1.4306
20748SOL     OW74221   8.348  10.102   5.175  0.0531  0.1670 -0.0045
20748SOL    HW174222   8.413  10.036   5.153  1.3034  0.8154  1.5687
20748SOL    HW274223   8.398  10.182   5.187 -1.4449  1.5397 -2.1103
20749SOL     OW74224   0.472   7.737   6.413  0.4422  0.2783  0.1038
20749SOL    HW174225   0.504   7.822   6.381  0.2469  0.3642  0.1330
20749SOL    HW274226   0.378   7.739   6.396  0.4924 -0.0759 -0.2180
20750SOL     OW74227   9.040   0.174   7.134 -0.0139 -0.3881  0.4144
20750SOL    HW174228   8.990   0.242   7.179  2.0789  0.6347  1.3346
20750SOL    HW274229   8.991   0.093   7.150 -1.3348  0.5444  1.2718
20751SOL     OW74230   3.292   8.116   4.282 -0.0293 -0.1351 -0.4346
20751SOL    HW174231   3.355   8.045   4.273 -0.2021 -0.4328  0.6258
20751SOL    HW274232   3.296   8.141   4.374 -0.8189  0.4382 -0.5424
20752SOL     OW74233   3.189   9.324   4.628 -0.7672 -0.2959 -0.0637
20752SOL    HW174234   3.264   9.320   4.569 -0.6586 -0.0911  0.0595
20752SOL    HW274235   3.222   9.367   4.707 -0.8981 -0.6134  0.1677
20753SOL     OW74236   5.223   5.538   2.478  0.9834 -0.2068 -0.1095
20753SOL    HW174237   5.218   5.561   2.571  0.6143 -0.9122  0.0463
20753SOL    HW274238   5.147   5.580   2.438  0.8031 -0.4091  0.0185
20754SOL     OW74239   8.264   5.272   8.126 -0.0151  0.0827 -0.0516
20754SOL    HW174240   8.282   5.346   8.184  1.9216  0.9661 -1.6485
20754SOL    HW274241   8.183   5.297   8.081  0.3049  0.9945 -0.1526
20755SOL     OW74242   6.714   0.317   1.573 -0.7042 -0.0544 -0.2550
20755SOL    HW174243   6.735   0.230   1.608  1.0861  0.0505 -0.9643
20755SOL    HW274244   6.678   0.299   1.486  1.3253 -0.0575 -1.1368
20756SOL     OW74245   2.368   9.644   1.224 -0.0476 -0.1236  0.0654
20756SOL    HW174246   2.285   9.619   1.184 -0.5875  0.7254  0.6418
20756SOL    HW274247   2.398   9.565   1.269 -1.9073  0.2839  2.1670
20757SOL     OW74248   1.901   2.774   2.436 -0.2148 -0.4355  0.6252
20757SOL    HW174249   1.821   2.827   2.434 -0.6696 -0.9712  2.3265
20757SOL    HW274250   1.897   2.722   2.356 -2.4201 -1.5517  1.3590
20758SOL     OW74251   4.858   5.705   5.107 -0.0393 -0.2558  0.5484
20758SOL    HW174252   4.953   5.701   5.093  0.2631  1.3236  1.8504
20758SOL    HW274253   4.848   5.696   5.202 -1.0587  1.0348  0.5821
20759SOL     OW74254   2.046   9.023   2.526 -0.1741  0.6051  0.8756
20759SOL    HW174255   2.004   9.025   2.612  0.9065  0.4645  1.4226
20759SOL    HW274256   2.112   8.955   2.534 -0.9824 -0.3974 -0.5270
20760SOL     OW74257   5.162   8.889   4.525 -0.8622  0.3330  0.3977
20760SOL    HW174258   5.241   8.903   4.575  0.5630  1.0185 -1.8875
20760SOL    HW274259   5.167   8.798   4.496 -1.1240  0.2575  0.5841
20761SOL     OW74260   7.723   2.705   3.377 -0.3613  0.0525 -0.3090
20761SOL    HW174261   7.690   2.616   3.365  1.7489 -1.1063  1.6888
20761SOL    HW274262   7.658   2.747   3.433 -2.6490  0.7100 -3.2233
20762SOL     OW74263   6.206   7.589   5.247  0.4628 -0.2833 -0.2345
20762SOL    HW174264   6.174   7.507   5.209 -2.1546 -0.2538  1.6451
20762SOL    HW274265   6.129   7.629   5.286  1.6199  3.2435 -1.2130
20763SOL     OW74266   4.134   7.558   2.451 -0.6790 -0.2929  0.1383
20763SOL    HW174267   4.124   7.653   2.450 -0.1295 -0.2347 -0.6470
20763SOL    HW274268   4.083   7.528   2.376 -1.5027 -0.7027  0.8363
20764SOL     OW74269   9.392   7.226  10.019  0.2977  0.0870 -0.0317
20764SOL    HW174270   9.311   7.182  10.044  0.1565 -0.9256 -2.0807
20764SOL    HW274271   9.392   7.308  10.070 -1.9058  0.0256  0.1442
20765SOL     OW74272   1.652   6.591   0.747 -0.1200 -0.0549  0.6077
20765SOL    HW174273   1.631   6.685   0.747  1.2045  0.2672  1.9583
20765SOL    HW274274   1.590   6.553   0.809 -0.5219 -0.0709  0.2102
20766SOL     OW74275   1.246   4.650   3.375 -0.1299  0.1425 -0.2514
20766SOL    HW174276   1.255   4.722   3.437 -0.2444 -0.2509  0.2224
20766SOL    HW274277   1.250   4.571   3.428 -0.3718 -0.1953 -0.7264
20767SOL     OW74278   9.990   5.930   2.590 -0.3812 -0.0392 -0.7659
20767SOL    HW174279  10.008   5.841   2.620 -1.4834  0.4613  1.5506
20767SOL    HW274280  10.049   5.942   2.515  1.6304 -1.8173  0.4284
20768SOL     OW74281  10.081   7.288   9.087  0.2057  0.5284  0.5623
20768SOL    HW174282  10.112   7.273   8.998  0.9982 -1.7307  1.1372
20768SOL    HW274283  10.002   7.235   9.094  0.4140  0.3095  1.3361
20769SOL     OW74284   3.924   9.925   0.774 -0.0562 -0.2332  0.1280
20769SOL    HW174285   3.960   9.837   0.787 -0.9705 -0.4322  1.5755
20769SOL    HW274286   3.860   9.935   0.845 -2.4178  0.3295 -1.9424
20770SOL     OW74287   2.211   0.541   2.019  0.3651 -0.4203 -0.1884
20770SOL    HW174288   2.184   0.451   2.001  0.8579 -0.5968 -0.0626
20770SOL    HW274289   2.132   0.584   2.053 -1.0219  0.2844 -3.8563
20771SOL     OW74290   2.973   2.232   6.724 -0.1105  0.4291 -0.5350
20771SOL    HW174291   3.006   2.180   6.797 -0.3363 -2.2488 -2.1893
20771SOL    HW274292   2.933   2.309   6.764 -1.0386 -1.3666  2.1946
20772SOL     OW74293   9.846   6.130   4.741 -0.3821  0.0326  0.2412
20772SOL    HW174294   9.868   6.145   4.833 -0.3844 -0.0905  0.2620
20772SOL    HW274295   9.751   6.136   4.737 -0.5023 -1.3653  0.5119
20773SOL     OW74296   7.787   8.375   7.513  0.4198  0.0235 -0.3251
20773SOL    HW174297   7.868   8.400   7.556  0.5710 -0.7785 -0.1310
20773SOL    HW274298   7.725   8.361   7.584  0.2893  0.0109 -0.4399
20774SOL     OW74299   6.738   2.923  10.173  0.0578  0.8075 -0.4354
20774SOL    HW174300   6.812   2.922  10.112  1.2868  1.0235  0.9831
20774SOL    HW274301   6.718   3.016  10.186  1.0797  0.8713  0.9156
20775SOL     OW74302   3.395   3.046   5.832  0.4339  0.3336 -0.1174
20775SOL    HW174303   3.328   3.044   5.763  0.5008 -0.7938 -0.1688
20775SOL    HW274304   3.464   3.101   5.797 -0.9777  2.5790  0.4465
20776SOL     OW74305  10.277   8.953   2.132 -0.0237  0.5577 -0.4340
20776SOL    HW174306  10.353   8.937   2.187 -1.3464 -1.1900  1.0107
20776SOL    HW274307  10.235   9.030   2.171 -1.3121 -1.0436  1.5630
20777SOL     OW74308   5.569   3.408   5.239  0.0225  0.0298 -0.0240
20777SOL    HW174309   5.605   3.353   5.169 -2.7818 -0.0887 -1.5229
20777SOL    HW274310   5.553   3.492   5.197  1.9756  1.3068  1.6107
20778SOL     OW74311   3.462   8.552   4.883  0.2777 -0.0587  0.1340
20778SOL    HW174312   3.462   8.646   4.869 -2.0060  0.1236  0.9732
20778SOL    HW274313   3.374   8.523   4.856  0.4021 -1.6969  1.2815
20779SOL     OW74314   2.656   7.507  10.144 -0.1121 -0.2398  0.3845
20779SOL    HW174315   2.568   7.542  10.159  0.2036  0.1695  1.4128
20779SOL    HW274316   2.642   7.423  10.102 -0.9500  0.4179 -0.6990
20780SOL     OW74317  10.285   2.042   2.276 -0.9494  0.5930  0.2446
20780SOL    HW174318  10.312   2.030   2.367  2.6515  2.1801 -0.4575
20780SOL    HW274319  10.318   2.129   2.253  1.6400 -1.1934 -3.6202
20781SOL     OW74320   4.858   0.033  10.297  0.0672 -0.0489  0.0457
20781SOL    HW174321   4.798   0.095  10.256  1.2868  0.9467 -0.2990
20781SOL    HW274322   4.897   0.082  10.369 -0.4675 -1.0967  1.0650
20782SOL     OW74323   4.055   9.306   1.966 -0.5265  0.1681 -0.0625
20782SOL    HW174324   4.053   9.211   1.962 -1.1474  0.0188  2.2102
20782SOL    HW274325   4.105   9.333   1.890 -2.1140 -1.8512 -1.9405
20783SOL     OW74326   3.268   2.576   1.295 -0.1692  0.6297  0.3584
20783SOL    HW174327   3.316   2.575   1.378  1.0392 -0.6327 -0.3005
20783SOL    HW274328   3.288   2.491   1.255 -0.1859  1.4432 -1.4995
20784SOL     OW74329   6.227   0.578   4.801  0.1908  0.1091  0.0824
20784SOL    HW174330   6.305   0.603   4.851  0.1634 -0.2325  0.3030
20784SOL    HW274331   6.238   0.620   4.716 -0.0141  1.1309  0.5480
20785SOL     OW74332   1.847   4.144  10.193  0.1502 -0.0200  0.1148
20785SOL    HW174333   1.853   4.060  10.147 -0.1491 -1.1328  2.0064
20785SOL    HW274334   1.938   4.168  10.212  0.2254 -0.0018 -0.2584
20786SOL     OW74335   6.596   1.706   6.742  0.9599  0.3266  0.1453
20786SOL    HW174336   6.610   1.662   6.658  1.1380  0.3102  0.1829
20786SOL    HW274337   6.506   1.739   6.737  1.7982  2.6537 -1.1444
20787SOL     OW74338   5.234   1.777   5.487  0.1142  0.8088  0.1653
20787SOL    HW174339   5.191   1.786   5.572  1.5332 -1.5610  1.2558
20787SOL    HW274340   5.314   1.830   5.495 -0.8660  2.4830 -0.6216
20788SOL     OW74341   2.692   8.047   0.451  0.2628 -0.3663  1.2968
20788SOL    HW174342   2.750   8.026   0.377 -2.1838 -0.9656 -0.5817
20788SOL    HW274343   2.654   7.963   0.477  2.0887 -0.4130  4.3047
20789SOL     OW74344   4.819   5.305   6.403  0.1848 -0.5492  0.4383
20789SOL    HW174345   4.744   5.268   6.357  0.9517 -1.7225  0.0981
20789SOL    HW274346   4.873   5.344   6.334  0.0672 -0.0170  0.6422
20790SOL     OW74347   4.735   1.246   6.765 -0.1496  0.0725  0.1633
20790SOL    HW174348   4.662   1.305   6.745 -0.9788 -0.3221  1.8036
20790SOL    HW274349   4.698   1.158   6.751 -1.0663 -0.2795  3.8375
20791SOL     OW74350   1.901   4.750   9.424  0.1316  0.0835 -0.1004
20791SOL    HW174351   1.917   4.693   9.499  2.4321  0.3673 -0.2951
20791SOL    HW274352   1.851   4.824   9.461  1.0171  0.1089  1.1268
20792SOL     OW74353   7.852   8.515   2.666 -0.2861  0.0718  0.0585
20792SOL    HW174354   7.786   8.573   2.705 -0.8027 -1.3548  1.3896
20792SOL    HW274355   7.808   8.431   2.656  1.5122 -1.1922  1.8199
20793SOL     OW74356   0.800   3.257   3.626 -0.1438 -0.5343 -0.0675
20793SOL    HW174357   0.883   3.243   3.672 -0.8281 -0.0968  1.3389
20793SOL    HW274358   0.798   3.187   3.560  1.4993 -0.3339 -0.3874
20794SOL     OW74359   9.039   8.570   7.180 -0.4726  0.4358  0.6070
20794SOL    HW174360   9.056   8.556   7.087  1.2622  0.2826  0.9142
20794SOL    HW274361   8.981   8.498   7.205 -1.1060  0.5808 -0.3816
20795SOL     OW74362   5.369  10.281   2.521  0.5413 -0.1645 -0.0044
20795SOL    HW174363   5.399  10.196   2.489  0.6882 -0.1999  0.2320
20795SOL    HW274364   5.411  10.344   2.462  1.3017 -0.2002  0.4891
20796SOL     OW74365   6.138  10.162   7.321 -0.1265 -0.2531 -0.0315
20796SOL    HW174366   6.197  10.122   7.386  0.1845  0.2392 -0.0030
20796SOL    HW274367   6.064  10.102   7.315  0.3653 -0.8737 -0.0427
20797SOL     OW74368   9.345   5.449   4.751  0.2270  0.6952  0.5937
20797SOL    HW174369   9.435   5.418   4.743 -0.2757 -0.4072 -1.9511
20797SOL    HW274370   9.307   5.394   4.820  0.7301 -0.9326 -0.3757
20798SOL     OW74371   3.990   1.284   3.467 -0.8096 -0.0993  0.1594
20798SOL    HW174372   4.071   1.268   3.420 -0.9036 -1.6670  0.4795
20798SOL    HW274373   3.966   1.199   3.504 -1.6490  0.7094  1.5831
20799SOL     OW74374   0.279   3.949   6.885 -0.3977 -0.1517  0.3258
20799SOL    HW174375   0.298   3.873   6.939  0.3922  0.1316  0.4681
20799SOL    HW274376   0.200   3.926   6.836 -1.2647 -0.3150  1.7690
20800SOL     OW74377   7.510   5.310   9.083  0.3627 -0.1318  0.0592
20800SOL    HW174378   7.583   5.248   9.091  0.9856  0.3265 -1.6622
20800SOL    HW274379   7.542   5.377   9.023 -1.3384  0.3086 -0.4090
20801SOL     OW74380   1.472   8.221   2.527  0.5507  0.4470 -0.3238
20801SOL    HW174381   1.561   8.218   2.563  0.7205 -1.4695 -0.8084
20801SOL    HW274382   1.418   8.178   2.593 -0.2730  2.6073  0.5005
20802SOL     OW74383   5.771   2.956   8.820 -0.2737 -0.1957 -0.4293
20802SOL    HW174384   5.798   2.908   8.742  0.0324  0.1969 -0.5698
20802SOL    HW274385   5.781   2.893   8.892 -0.0496 -0.3969 -0.6345
20803SOL     OW74386   9.800   7.141   8.194 -0.1714 -0.1764 -0.4343
20803SOL    HW174387   9.727   7.098   8.150 -1.7333  1.8404  0.0849
20803SOL    HW274388   9.815   7.088   8.272  0.0540 -1.5305 -1.3496
20804SOL     OW74389   5.503   3.902   4.738 -0.1376 -0.4909  0.0616
20804SOL    HW174390   5.463   3.816   4.723  0.2756 -0.7535  0.4317
20804SOL    HW274391   5.432   3.965   4.724 -0.5941 -0.9276  0.3810
20805SOL     OW74392  10.017   9.433   2.674  0.4395 -0.2519  0.1675
20805SOL    HW174393   9.955   9.504   2.693  0.0940  0.0238 -1.7896
20805SOL    HW274394  10.102   9.477   2.669  0.3922 -0.1656  0.1095
20806SOL     OW74395   8.869   3.013  10.280  0.2727  0.5035 -0.6537
20806SOL    HW174396   8.955   2.997  10.319 -0.9458 -2.5552  1.1419
20806SOL    HW274397   8.826   3.071  10.342 -0.7431 -2.3167  1.5098
20807SOL     OW74398   1.803   3.542   3.354 -1.0628 -0.3871  0.3551
20807SOL    HW174399   1.739   3.596   3.308  0.4010  0.4797 -0.7821
20807SOL    HW274400   1.831   3.477   3.290  2.1220  1.7699 -0.7104
20808SOL     OW74401   3.840   1.674   4.520  0.2526 -0.8483 -0.1007
20808SOL    HW174402   3.750   1.640   4.522  0.1125 -0.4967 -0.2191
20808SOL    HW274403   3.842   1.730   4.442 -0.2857  1.3884  1.3899
20809SOL     OW74404   7.376   8.072   5.963 -0.3664 -0.3413  0.1983
20809SOL    HW174405   7.305   8.061   5.900 -0.0856 -0.1496 -0.1556
20809SOL    HW274406   7.348   8.022   6.039 -0.8784 -0.2704  0.0598
20810SOL     OW74407   1.247   9.200   4.623 -0.6504 -0.3328  0.4191
20810SOL    HW174408   1.315   9.267   4.632 -1.2242  0.0983  1.7018
20810SOL    HW274409   1.166   9.244   4.647 -0.9302 -1.7023  2.1740
20811SOL     OW74410   0.085   5.909   0.853 -0.0302  0.6182 -0.3291
20811SOL    HW174411   0.054   5.918   0.763  0.7613 -1.1212 -0.8164
20811SOL    HW274412   0.144   5.984   0.865 -0.8871  1.4148 -0.9002
20812SOL     OW74413   1.241   9.318   9.063  0.9805  0.3305  0.7449
20812SOL    HW174414   1.170   9.368   9.103  0.9191  0.7261  0.1571
20812SOL    HW274415   1.315   9.332   9.121  0.5894 -0.0742  1.3582
20813SOL     OW74416   1.852   9.125   8.842 -0.7230  0.0976  0.2199
20813SOL    HW174417   1.830   9.041   8.803 -0.9894  0.8870 -1.4074
20813SOL    HW274418   1.948   9.125   8.846 -0.7414 -0.5221  0.8112
20814SOL     OW74419   5.053   1.505   5.746  0.3206 -0.1943  0.1782
20814SOL    HW174420   4.989   1.566   5.709 -0.4735 -2.0396 -1.7328
20814SOL    HW274421   5.039   1.510   5.840  0.4564  2.6655  0.1165
20815SOL     OW74422   7.136   8.304   6.236  0.0034  0.2703  0.3528
20815SOL    HW174423   7.127   8.212   6.210 -2.4577  1.2686 -3.1229
20815SOL    HW274424   7.230   8.320   6.234  0.5219 -2.1936  1.3324
20816SOL     OW74425   5.183   6.729   5.091 -0.0728 -0.3351 -0.0657
20816SOL    HW174426   5.091   6.718   5.113 -0.3503  2.1064  0.3375
20816SOL    HW274427   5.222   6.643   5.104 -1.6075 -0.6760  3.2251
20817SOL     OW74428  10.028   1.609   9.769  0.2150 -0.3805  0.4075
20817SOL    HW174429   9.989   1.675   9.826 -0.2634  0.2647 -0.6294
20817SOL    HW274430   9.968   1.535   9.772 -1.1488  0.5902 -1.1454
20818SOL     OW74431   0.953   7.839   1.448 -0.0206  0.5416  0.2520
20818SOL    HW174432   0.906   7.784   1.512  0.2417  0.6938  0.5766
20818SOL    HW274433   0.990   7.910   1.500 -1.2607  1.6361 -0.3192
20819SOL     OW74434   6.363   9.155   7.722 -0.4177 -0.3561 -0.5835
20819SOL    HW174435   6.406   9.235   7.694  0.2097 -0.7545 -0.7712
20819SOL    HW274436   6.377   9.094   7.649 -1.6350 -0.3806 -0.8316
20820SOL     OW74437   8.382   1.806   4.270  0.2264 -0.0377  0.2258
20820SOL    HW174438   8.452   1.872   4.275 -0.0438  0.2072  1.0452
20820SOL    HW274439   8.306   1.851   4.306 -0.8925  0.3432 -2.3887
20821SOL     OW74440   7.667   3.872   6.989  0.2361  0.0589  0.2097
20821SOL    HW174441   7.713   3.820   6.923 -0.3485 -0.4743  0.2080
20821SOL    HW274442   7.675   3.962   6.958 -0.2128 -0.2049 -0.7221
20822SOL     OW74443   6.354   6.215   3.408  0.2683 -0.1412  0.2090
20822SOL    HW174444   6.314   6.141   3.364  0.9925  0.6474 -1.8822
20822SOL    HW274445   6.295   6.233   3.482  0.0908 -2.7517  0.7920
20823SOL     OW74446   3.382   8.906   2.205  0.0419  0.1665 -0.2598
20823SOL    HW174447   3.400   8.978   2.144  2.3960 -0.5946 -0.5911
20823SOL    HW274448   3.444   8.920   2.277  0.3185 -1.3148 -0.1753
20824SOL     OW74449   2.920   3.967   5.907 -0.1892  0.1016  0.0292
20824SOL    HW174450   2.869   3.959   5.988 -1.4949  1.9642 -0.5405
20824SOL    HW274451   2.918   4.061   5.887  0.3853 -0.2762 -1.9821
20825SOL     OW74452   9.585   9.886   7.937  0.6497  0.0325 -0.2240
20825SOL    HW174453   9.616   9.797   7.956  1.4838  0.3833  0.0921
20825SOL    HW274454   9.508   9.897   7.993  1.8245  0.2857  1.4116
20826SOL     OW74455   6.267   3.120   1.353 -0.1440  0.3185  0.2865
20826SOL    HW174456   6.292   3.186   1.418  0.6441 -0.5625  0.8923
20826SOL    HW274457   6.176   3.141   1.332  0.6874  2.9381 -1.1655
20827SOL     OW74458   8.933   8.192   1.188 -0.3308  0.2833 -0.2960
20827SOL    HW174459   8.953   8.273   1.141  0.5201  0.3552  0.1627
20827SOL    HW274460   8.981   8.200   1.271  0.8476 -1.2391 -0.7866
20828SOL     OW74461   9.157   7.268  10.356  0.0642  0.5537  0.0521
20828SOL    HW174462   9.082   7.270  10.416 -1.9165  2.2679 -2.2657
20828SOL    HW274463   9.151   7.351  10.308  2.8864  0.2721 -0.9661
20829SOL     OW74464   0.030   3.540   7.477  0.0018  0.1970 -0.3008
20829SOL    HW174465  -0.058   3.555   7.443  0.1423 -0.4691 -0.9796
20829SOL    HW274466   0.017   3.516   7.568 -0.6547 -1.4361 -0.7939
20830SOL     OW74467   8.533   0.882   0.870  0.8695 -0.1296  0.2494
20830SOL    HW174468   8.520   0.890   0.775  1.2360 -1.2952  0.0775
20830SOL    HW274469   8.446   0.864   0.905  0.6745  0.6674  0.1804
20831SOL     OW74470   6.426   2.802   5.171 -0.0154 -0.1843  0.8331
20831SOL    HW174471   6.422   2.818   5.265  0.3484  0.3427  0.7672
20831SOL    HW274472   6.479   2.722   5.162  1.1337  0.5211  1.0256
20832SOL     OW74473   4.683   6.022   1.810 -0.3167  0.1938 -0.2219
20832SOL    HW174474   4.737   5.943   1.800 -0.9605 -0.2853  0.0207
20832SOL    HW274475   4.671   6.031   1.904  0.8448  1.3471 -0.1551
20833SOL     OW74476   6.847   9.814   6.161  0.0924 -0.9271 -0.1153
20833SOL    HW174477   6.816   9.731   6.125 -1.7836 -0.7359  0.9505
20833SOL    HW274478   6.781   9.878   6.137  1.1524  0.1368 -0.2978
20834SOL     OW74479   0.824   4.342   1.567  0.0665 -0.5029 -0.7041
20834SOL    HW174480   0.758   4.349   1.636  1.1203  2.1543  0.1868
20834SOL    HW274481   0.880   4.269   1.595 -0.9982 -1.1243 -0.1260
20835SOL     OW74482   2.188   0.991   2.653  0.0149 -0.0428 -0.4358
20835SOL    HW174483   2.132   1.067   2.635  0.4547  0.3029 -0.3476
20835SOL    HW274484   2.238   0.978   2.573  1.1808  0.8255  0.1263
20836SOL     OW74485  10.109   9.281   4.133 -0.3578  0.1042 -0.3058
20836SOL    HW174486  10.071   9.327   4.058  0.9033 -1.7417 -2.1642
20836SOL    HW274487  10.033   9.244   4.178 -1.3246  2.9327  0.6495
20837SOL     OW74488   0.511   2.879   5.229 -0.0099 -0.1010 -0.0888
20837SOL    HW174489   0.573   2.830   5.176 -0.2519 -0.9694  0.4250
20837SOL    HW274490   0.562   2.913   5.302  0.5370  1.8922 -1.3034
20838SOL     OW74491   2.814   0.038   1.311 -0.9978 -0.5085 -0.4572
20838SOL    HW174492   2.788   0.106   1.248  1.1394  0.1993 -0.6627
20838SOL    HW274493   2.889  -0.005   1.269 -1.1837 -1.7800  0.4833
20839SOL     OW74494   9.567   1.146   3.324 -0.4313  0.1013 -0.3726
20839SOL    HW174495   9.530   1.113   3.406 -1.1273  1.0108 -0.3039
20839SOL    HW274496   9.492   1.181   3.276  0.0939  0.3583 -1.0149
20840SOL     OW74497   6.449   5.519   5.143 -0.7307 -0.0613 -0.2548
20840SOL    HW174498   6.377   5.575   5.117  0.2273  0.1146 -2.8516
20840SOL    HW274499   6.527   5.560   5.105  0.9770  0.3563  3.3507
20841SOL     OW74500   0.791   8.574   9.349  0.7050 -0.0404  0.0182
20841SOL    HW174501   0.779   8.647   9.409 -1.4553 -0.6904  0.4675
20841SOL    HW274502   0.778   8.613   9.262 -0.6106  0.1261  0.2620
20842SOL     OW74503   6.160   6.490   0.245 -0.3116  0.2329 -0.1990
20842SOL    HW174504   6.162   6.508   0.339 -0.6698  2.7870 -0.5993
20842SOL    HW274505   6.249   6.462   0.224  0.0086  0.4685  0.7772
20843SOL     OW74506   9.284   7.650   0.090 -0.3426 -0.0363 -0.2768
20843SOL    HW174507   9.205   7.621   0.045 -0.1402 -0.5769 -0.2973
20843SOL    HW274508   9.297   7.585   0.159  1.1942 -1.1251 -1.5114
20844SOL     OW74509   1.596   1.147   6.304 -0.5698  0.1948  0.1360
20844SOL    HW174510   1.631   1.067   6.345  0.6608  0.3308 -0.6056
20844SOL    HW274511   1.504   1.126   6.286 -0.9832 -0.1102  2.2945
20845SOL     OW74512   5.709   6.398   8.167 -0.1990 -0.1673  0.5683
20845SOL    HW174513   5.644   6.330   8.150 -1.2858  0.4405  2.1235
20845SOL    HW274514   5.690   6.465   8.101 -0.3470 -0.5231  0.2384
20846SOL     OW74515   8.226   3.377   6.294  0.2160  0.2770  0.1357
20846SOL    HW174516   8.282   3.435   6.243 -0.4162  0.7339 -0.0432
20846SOL    HW274517   8.212   3.301   6.236  1.4793 -0.3281  0.5743
20847SOL     OW74518   3.076   1.998   0.103 -0.0987  0.0097 -0.2017
20847SOL    HW174519   3.077   2.011   0.009 -1.0325 -0.5503 -0.3041
20847SOL    HW274520   2.995   2.039   0.133 -0.2750 -0.6195  0.2212
20848SOL     OW74521   7.343   1.693   1.689  0.1244 -0.2752 -0.1692
20848SOL    HW174522   7.423   1.729   1.652 -1.4956  2.9247 -0.9510
20848SOL    HW274523   7.295   1.658   1.614  0.4616 -1.6320  0.2140
20849SOL     OW74524   0.814   8.381   7.685  0.3471 -0.0981 -0.1990
20849SOL    HW174525   0.775   8.401   7.600  0.0827  0.2411 -0.0028
20849SOL    HW274526   0.859   8.461   7.710  0.4646 -0.2141 -0.0424
20850SOL     OW74527   1.606   0.960   0.033  0.2155  0.4307 -0.1898
20850SOL    HW174528   1.673   0.899   0.001  0.5116  0.6448  0.0207
20850SOL    HW274529   1.652   1.015   0.095  0.1025  1.2891 -0.8479
20851SOL     OW74530   0.358   9.008   8.325 -0.0156  0.5623 -0.3174
20851SOL    HW174531   0.329   9.025   8.415 -2.2128  0.1055 -0.8851
20851SOL    HW274532   0.447   8.973   8.335 -0.4064 -0.0058  1.7070
20852SOL     OW74533   4.488   1.502   8.595  0.0736  0.1139 -0.6048
20852SOL    HW174534   4.505   1.464   8.681 -1.6804 -1.8746 -1.0473
20852SOL    HW274535   4.574   1.530   8.564  0.9543 -0.4832  1.1645
20853SOL     OW74536   3.082   0.734   9.341 -0.0363 -0.1372  0.1619
20853SOL    HW174537   3.161   0.788   9.339  0.0550 -0.2817 -0.6762
20853SOL    HW274538   3.011   0.794   9.318 -0.1112 -0.1009  0.4865
20854SOL     OW74539   8.927   1.313   7.825  0.0003 -0.5038  0.1670
20854SOL    HW174540   8.926   1.399   7.867 -0.5899 -0.6646  0.4897
20854SOL    HW274541   8.999   1.319   7.762 -0.1842  0.3116  0.0112
20855SOL     OW74542   1.504   4.062   3.806 -0.0904  0.9909  0.1932
20855SOL    HW174543   1.477   4.024   3.889 -1.3048  0.5012 -0.4156
20855SOL    HW274544   1.453   4.143   3.799  0.0229  1.0405 -0.0714
20856SOL     OW74545   4.474   4.896   5.229  0.4326  0.4906  0.2560
20856SOL    HW174546   4.551   4.850   5.195 -0.0258 -0.3930  0.3859
20856SOL    HW274547   4.493   4.988   5.214  0.7806  0.2038 -1.2706
20857SOL     OW74548   0.079   5.874   6.623  0.6066  0.0610  0.0993
20857SOL    HW174549   0.084   5.875   6.527 -1.2990 -2.2443 -0.1046
20857SOL    HW274550  -0.014   5.868   6.642  0.9901 -0.1490  2.1147
20858SOL     OW74551   4.431   5.081   5.490 -0.0344  0.0893  0.3681
20858SOL    HW174552   4.458   4.989   5.491 -0.7250 -0.1578 -1.2892
20858SOL    HW274553   4.435   5.107   5.398 -2.6827  0.8487  0.3870
20859SOL     OW74554   6.038   3.811   6.329  0.2941  0.2192  1.0130
20859SOL    HW174555   5.969   3.820   6.263  1.0694  1.8353  0.3545
20859SOL    HW274556   6.046   3.717   6.343 -0.9062 -0.0775 -0.1131
20860SOL     OW74557   0.080   2.469   6.578 -0.0838  0.5207 -0.4338
20860SOL    HW174558   0.013   2.528   6.611 -0.6110  0.8787 -2.0734
20860SOL    HW274559   0.127   2.519   6.511 -0.3991 -0.7978 -1.7019
20861SOL     OW74560   6.947   9.362   2.663 -0.8662 -0.2191  0.0565
20861SOL    HW174561   6.984   9.378   2.750 -0.3763 -1.1826  0.0424
20861SOL    HW274562   6.853   9.378   2.674 -0.7079  0.3873  0.5776
20862SOL     OW74563   0.033   7.022   7.727 -0.1365 -0.6083  0.1053
20862SOL    HW174564  -0.027   7.025   7.652 -0.8205  1.5226  0.6526
20862SOL    HW274565   0.119   7.043   7.690 -0.3479 -0.2625 -0.1918
20863SOL     OW74566   7.470   9.344   6.848  0.3380  0.0356 -0.4128
20863SOL    HW174567   7.546   9.301   6.810  0.3785 -0.5596  0.3196
20863SOL    HW274568   7.451   9.294   6.928 -1.1388 -0.1581 -0.8480
20864SOL     OW74569   4.971   9.528   9.318  0.4681 -0.4226 -0.6397
20864SOL    HW174570   4.964   9.436   9.344  0.9681 -0.7048 -1.4617
20864SOL    HW274571   4.891   9.568   9.351  0.0517 -1.2434 -0.6143
20865SOL     OW74572   6.446   4.518   1.160  0.0983 -0.0512 -0.0332
20865SOL    HW174573   6.467   4.438   1.209 -2.3697 -1.1449 -0.6103
20865SOL    HW274574   6.452   4.493   1.068 -4.1809 -0.8325 -0.3269
20866SOL     OW74575   3.878   4.556   7.903  0.2639 -0.0561 -0.0553
20866SOL    HW174576   3.788   4.530   7.886  0.7934 -1.7793 -0.4310
20866SOL    HW274577   3.931   4.493   7.854  1.6882  0.4823  0.7242
20867SOL     OW74578   8.376   2.793   6.604  1.4068 -0.0661  0.4227
20867SOL    HW174579   8.300   2.813   6.658  0.1725  0.6635 -1.4589
20867SOL    HW274580   8.435   2.746   6.662 -0.1563 -0.0163  2.1609
20868SOL     OW74581   4.754   0.977   2.906  0.0945 -0.5023 -0.0069
20868SOL    HW174582   4.688   1.033   2.865 -1.4943  2.6234  5.6687
20868SOL    HW274583   4.703   0.909   2.951  1.1051 -0.6310  1.0013
20869SOL     OW74584   7.230   3.454   9.322  0.2604 -0.5355  0.7020
20869SOL    HW174585   7.305   3.411   9.281 -1.3166 -1.2161 -1.6771
20869SOL    HW274586   7.251   3.547   9.318 -0.0035 -0.5148 -2.2558
20870SOL     OW74587  10.050   5.681   9.496  0.0312  0.3409  0.2307
20870SOL    HW174588  10.094   5.676   9.581 -0.8448 -0.0924  0.6812
20870SOL    HW274589   9.967   5.725   9.515 -1.7351 -2.6956  0.3392
20871SOL     OW74590   2.571   8.800   9.290 -0.0497 -0.6216  0.1121
20871SOL    HW174591   2.605   8.770   9.206 -0.6913  0.4494 -0.5556
20871SOL    HW274592   2.476   8.795   9.282 -0.2397  2.0761 -0.3017
20872SOL     OW74593   2.991  10.213   2.428 -0.1846 -0.2475 -0.5703
20872SOL    HW174594   2.904  10.226   2.466  0.3048  1.1577  0.1476
20872SOL    HW274595   3.018  10.301   2.401  1.9260 -0.2652  1.2826
20873SOL     OW74596   7.953   6.164   6.894  0.0466 -0.3250  0.0065
20873SOL    HW174597   7.996   6.217   6.827 -0.7263  1.0856  0.5699
20873SOL    HW274598   8.008   6.173   6.971  1.2041 -2.3512 -0.5150
20874SOL     OW74599   3.151   0.719   6.325  0.0150  0.7143 -0.4568
20874SOL    HW174600   3.230   0.766   6.351  0.6729  0.1286 -1.3007
20874SOL    HW274601   3.157   0.713   6.229 -0.7271  0.1077 -0.4790
20875SOL     OW74602   2.043   6.660   9.376  0.3843  0.4133  0.1171
20875SOL    HW174603   1.952   6.656   9.347  0.2047  0.5824  0.6415
20875SOL    HW274604   2.085   6.719   9.315  0.1687  0.2528 -0.1945
20876SOL     OW74605   9.800   7.216   3.834 -0.7242  0.2646  0.1255
20876SOL    HW174606   9.811   7.286   3.770 -2.0207  1.2739  0.9422
20876SOL    HW274607   9.796   7.261   3.919  1.2652 -1.0560  1.0024
20877SOL     OW74608   3.815   3.218   3.633 -0.0570  0.0042  0.0131
20877SOL    HW174609   3.782   3.128   3.626  1.1460 -0.4987  0.5589
20877SOL    HW274610   3.801   3.241   3.725 -1.2862  0.7710 -0.3388
20878SOL     OW74611   4.965   9.442   3.310 -0.0471  0.4698 -0.2161
20878SOL    HW174612   4.903   9.401   3.371  0.9154 -2.3479 -0.9911
20878SOL    HW274613   4.931   9.421   3.223  1.3544 -0.1765 -0.6399
20879SOL     OW74614   3.089   0.698   2.935  0.5369  0.3346 -0.4222
20879SOL    HW174615   3.115   0.606   2.942 -1.2290 -0.1951 -0.3471
20879SOL    HW274616   3.089   0.730   3.025 -1.3153 -0.3568 -0.1318
20880SOL     OW74617   1.640   6.545   8.857  0.1050 -0.3998 -0.4932
20880SOL    HW174618   1.619   6.546   8.764 -1.9111  0.7852 -0.0786
20880SOL    HW274619   1.557   6.523   8.900  0.3517  1.5373  1.1183
20881SOL     OW74620   2.070   7.463   2.552  0.2616 -0.1598  0.1229
20881SOL    HW174621   2.103   7.532   2.609  2.7514  0.4738 -1.9169
20881SOL    HW274622   1.993   7.501   2.511 -1.1763 -0.3812  2.4064
20882SOL     OW74623   9.767   4.623  10.012  0.1549  0.4533  0.0033
20882SOL    HW174624   9.694   4.623   9.950 -0.4645 -1.1027  0.6843
20882SOL    HW274625   9.835   4.572   9.968  0.3494  0.7828 -0.0829
20883SOL     OW74626   7.354  10.171   1.533 -0.3058  0.4034  0.3610
20883SOL    HW174627   7.399  10.179   1.449 -1.2419 -0.2505 -0.2201
20883SOL    HW274628   7.286  10.238   1.530  1.2572  2.1336  1.6871
20884SOL     OW74629   1.087   0.612  10.070 -0.2439 -0.1259 -0.9553
20884SOL    HW174630   1.166   0.577  10.111  0.6587 -1.2456 -3.4328
20884SOL    HW274631   1.038   0.535  10.041 -0.5849  0.5686 -2.3465
20885SOL     OW74632   6.922   2.016   6.445 -0.1769 -0.1106 -0.0498
20885SOL    HW174633   6.843   1.962   6.437  0.2529 -0.6350 -0.8420
20885SOL    HW274634   6.939   2.020   6.539 -0.1297 -1.4786  0.0140
20886SOL     OW74635  10.275   5.731   9.186  0.1759 -0.3848 -0.1729
20886SOL    HW174636  10.241   5.790   9.254 -0.7938  0.5699 -1.4244
20886SOL    HW274637  10.368   5.753   9.181  0.3507 -0.7453  1.0943
20887SOL     OW74638   2.372   0.347   4.886 -0.3128  0.0508 -0.1636
20887SOL    HW174639   2.439   0.282   4.870 -1.4029 -1.2534  0.3561
20887SOL    HW274640   2.289   0.301   4.871 -1.1287  1.1550  0.7200
20888SOL     OW74641   1.908   6.533   6.974 -0.2197  0.4406  0.7416
20888SOL    HW174642   1.861   6.450   6.967 -1.9565  1.4916 -1.4479
20888SOL    HW274643   1.840   6.600   6.978  1.1324  1.8314  1.8527
20889SOL     OW74644   2.318   1.542  10.323 -0.2269 -0.3235  0.3121
20889SOL    HW174645   2.319   1.636  10.303 -0.8730 -0.2811  0.4677
20889SOL    HW274646   2.411   1.519  10.332  0.0829 -0.1882 -1.9405
20890SOL     OW74647   8.388   3.024   9.129  0.7510  0.2360 -1.0114
20890SOL    HW174648   8.357   2.936   9.151  0.4337  0.8447  1.2269
20890SOL    HW274649   8.454   3.010   9.061  2.3113 -1.9755  0.8080
20891SOL     OW74650   2.099   3.658   4.866 -0.3658 -0.1378 -0.6470
20891SOL    HW174651   2.018   3.633   4.822  0.1886  0.3145 -1.9617
20891SOL    HW274652   2.169   3.624   4.811  0.3773 -1.3098  0.9335
20892SOL     OW74653   0.479   1.876   1.256  0.1367  0.5859 -0.0244
20892SOL    HW174654   0.520   1.896   1.172  0.2685 -0.0774 -0.1231
20892SOL    HW274655   0.528   1.927   1.320 -0.0423  1.1909 -0.3617
20893SOL     OW74656   8.754   4.929   5.684  0.0655 -0.8174 -0.3302
20893SOL    HW174657   8.769   4.949   5.777  0.2595 -0.8582 -0.3526
20893SOL    HW274658   8.791   4.841   5.673  0.0767 -0.7959 -0.4553
20894SOL     OW74659   2.515   8.113   6.627 -0.5505  0.3292  0.9475
20894SOL    HW174660   2.601   8.076   6.649 -0.3612  0.3311  0.2595
20894SOL    HW274661   2.487   8.064   6.550 -1.1647  0.3412  1.1560
20895SOL     OW74662   4.755   3.527   8.599  0.0446  0.2889  0.0069
20895SOL    HW174663   4.725   3.611   8.633  1.3215  1.0793 -0.7501
20895SOL    HW274664   4.695   3.463   8.638  0.0997  1.3482  1.9678
20896SOL     OW74665  10.165   2.126   7.251  0.0349  0.0811  0.8947
20896SOL    HW174666  10.104   2.057   7.228  0.5570 -0.5347  1.3329
20896SOL    HW274667  10.191   2.164   7.167 -0.7573  0.1931  0.6939
20897SOL     OW74668   6.235   2.982   1.739  0.0155  0.4321  0.3286
20897SOL    HW174669   6.151   3.017   1.712  1.2559  2.1588 -1.5632
20897SOL    HW274670   6.280   3.056   1.781  1.1883 -0.0020 -0.1158
20898SOL     OW74671   8.940   1.563   5.463  0.0876  0.2241  0.3617
20898SOL    HW174672   9.024   1.539   5.423 -0.0309  0.9126 -0.3146
20898SOL    HW274673   8.964   1.614   5.540  0.3055 -0.6027  0.8549
20899SOL     OW74674   4.527   3.423   7.269 -0.0748 -0.3467  0.6762
20899SOL    HW174675   4.607   3.476   7.275 -0.1095 -0.3198  0.8984
20899SOL    HW274676   4.503   3.406   7.360 -0.7657  0.3000  0.6228
20900SOL     OW74677   2.089   4.392   6.030 -0.0174 -0.1946 -0.0791
20900SOL    HW174678   2.125   4.442   5.956 -0.0191  0.3955  0.3118
20900SOL    HW274679   2.152   4.321   6.043 -0.1860 -0.4896 -0.8552
20901SOL     OW74680   5.586   2.685   1.797 -0.5439  0.1639 -0.3534
20901SOL    HW174681   5.612   2.730   1.877 -0.2559  0.6969 -0.7414
20901SOL    HW274682   5.522   2.620   1.826 -1.1738  1.0055  0.1828
20902SOL     OW74683   3.091   5.940   5.124 -0.2806  0.0604 -0.4604
20902SOL    HW174684   3.157   6.008   5.112 -0.3195  0.1365 -0.2542
20902SOL    HW274685   3.137   5.868   5.166 -0.0688 -0.3358 -1.3512
20903SOL     OW74686   4.830   6.063   3.071 -0.0891 -0.6347 -0.2272
20903SOL    HW174687   4.875   5.998   3.016 -0.9257 -0.6148 -0.9627
20903SOL    HW274688   4.747   6.079   3.025 -0.2814  0.2829  0.4259
20904SOL     OW74689   1.092   5.134   8.404  0.0637 -0.7056  0.1916
20904SOL    HW174690   1.146   5.059   8.380  0.5966 -0.9398  1.9548
20904SOL    HW274691   1.068   5.118   8.495 -0.9687  0.6023  0.1804
20905SOL     OW74692   6.377   1.971   4.583  0.1548  0.5660  0.0633
20905SOL    HW174693   6.296   1.954   4.631  0.5492 -0.4551  0.3980
20905SOL    HW274694   6.446   1.951   4.646  0.6730 -0.0553 -0.6823
20906SOL     OW74695   3.900   7.826   6.657  0.0493 -0.1305 -0.3255
20906SOL    HW174696   3.865   7.743   6.625  0.2413  0.2795 -1.6701
20906SOL    HW274697   3.884   7.887   6.585  1.0935  0.6951  0.1279
20907SOL     OW74698   8.559   0.214   0.282 -0.6838 -0.4120 -0.6297
20907SOL    HW174699   8.506   0.242   0.207  1.5476 -1.4709 -2.7623
20907SOL    HW274700   8.544   0.120   0.288  2.1865 -1.1451 -2.5577
20908SOL     OW74701   7.041   0.854   0.301 -0.4440 -0.1711  0.5718
20908SOL    HW174702   7.072   0.862   0.211 -1.4675  0.4379  0.2499
20908SOL    HW274703   7.057   0.940   0.340 -0.5956 -0.2271  0.7625
20909SOL     OW74704   7.697   2.254   5.810  0.0434 -0.1259  0.2331
20909SOL    HW174705   7.675   2.335   5.765 -1.9724 -0.2864  0.8499
20909SOL    HW274706   7.719   2.280   5.899 -1.8153 -0.3221  0.7837
20910SOL     OW74707   8.855   2.128   2.700  0.0085 -0.2158  0.9142
20910SOL    HW174708   8.897   2.206   2.665  0.3954 -1.1918 -0.9528
20910SOL    HW274709   8.915   2.096   2.768  1.0626 -0.1875  0.0289
20911SOL     OW74710   6.773   7.287   5.873  0.1563 -0.1360  0.0172
20911SOL    HW174711   6.778   7.194   5.896  0.5061 -0.4174 -1.1442
20911SOL    HW274712   6.855   7.306   5.828  0.9950  1.2674  1.9892
20912SOL     OW74713   1.292   2.790   9.369 -0.2673 -0.0870 -0.0527
20912SOL    HW174714   1.201   2.762   9.364  0.0898 -1.0594 -1.6375
20912SOL    HW274715   1.330   2.765   9.285  1.3251  0.8339  0.3483
20913SOL     OW74716   6.272   3.740   8.703  0.6864  0.1723 -0.3225
20913SOL    HW174717   6.292   3.824   8.662 -1.9218  1.2608  0.4007
20913SOL    HW274718   6.195   3.758   8.758  0.7335 -2.4460  0.7459
20914SOL     OW74719   6.757   8.325   6.010 -0.0532 -0.3723 -0.0510
20914SOL    HW174720   6.713   8.249   6.048 -2.6132  0.2536 -1.5459
20914SOL    HW274721   6.714   8.400   6.050 -0.0471  0.2724 -1.2222
20915SOL     OW74722   6.909   7.716   8.309 -0.4564 -0.4652  0.0912
20915SOL    HW174723   6.985   7.721   8.367 -0.5832 -0.8132  0.2901
20915SOL    HW274724   6.946   7.698   8.223 -0.1742  1.2977 -0.1818
20916SOL     OW74725   2.742   6.427   3.579  0.1686 -0.5175 -0.0782
20916SOL    HW174726   2.814   6.433   3.641 -0.3501 -3.1548  0.9201
20916SOL    HW274727   2.779   6.454   3.496  1.4759  0.9995  0.9475
20917SOL     OW74728   8.308   9.360   6.131  0.1558  0.0342  0.2158
20917SOL    HW174729   8.312   9.371   6.226  0.5530 -0.4196  0.2578
20917SOL    HW274730   8.353   9.437   6.096  1.8521 -0.8002  0.4669
20918SOL     OW74731   6.577   5.963   6.032  0.2406 -0.4925 -0.3170
20918SOL    HW174732   6.664   5.924   6.033  0.5551  0.2121  0.9989
20918SOL    HW274733   6.518   5.889   6.014  0.8109 -1.6708  2.2212
20919SOL     OW74734   6.819   6.416   8.290  0.4582  0.0797 -0.9981
20919SOL    HW174735   6.743   6.469   8.266 -1.5891 -2.2670 -0.2376
20919SOL    HW274736   6.849   6.377   8.208  1.8734  2.1440 -1.5332
20920SOL     OW74737   2.765   8.405   3.866 -0.0980  0.0698  0.0058
20920SOL    HW174738   2.797   8.454   3.942 -0.5083  1.5016 -0.7197
20920SOL    HW274739   2.804   8.318   3.876  0.2034  0.3518  1.6186
20921SOL     OW74740   6.379   2.461   0.682 -0.0923 -0.1767  0.1038
20921SOL    HW174741   6.321   2.385   0.683  2.1376 -1.9689  0.6971
20921SOL    HW274742   6.450   2.436   0.623  1.8678  0.4386  2.0709
20922SOL     OW74743   4.624   1.626   6.227  0.7108  0.6760 -0.7475
20922SOL    HW174744   4.679   1.704   6.218  0.2186  1.1325  0.0706
20922SOL    HW274745   4.642   1.575   6.149  2.2709  0.8310 -0.5260
20923SOL     OW74746   3.485   8.824   4.397  0.5673 -0.2969  0.1905
20923SOL    HW174747   3.517   8.861   4.315  3.1203  0.0272  1.2519
20923SOL    HW274748   3.459   8.900   4.449 -2.1455 -0.5507 -0.6399
20924SOL     OW74749   8.952   9.460   3.976 -0.2624  0.1221  0.1210
20924SOL    HW174750   8.900   9.381   3.995  0.7468 -0.9633 -1.3818
20924SOL    HW274751   9.038   9.442   4.014 -0.0340  0.5071 -0.2039
20925SOL     OW74752   4.903   9.111   2.219  0.0901  0.2476 -0.3342
20925SOL    HW174753   4.869   9.023   2.231 -1.4028  0.8918  0.4562
20925SOL    HW274754   4.848   9.166   2.275  2.5923  1.3457  1.2320
20926SOL     OW74755   3.377   8.664   7.374  0.1386 -0.1808  0.1764
20926SOL    HW174756   3.340   8.590   7.421 -2.3696  0.5835 -0.4569
20926SOL    HW274757   3.364   8.642   7.281  0.8948  0.3468 -0.0688
20927SOL     OW74758   8.406   4.212   8.517 -0.2465  0.1074  0.0815
20927SOL    HW174759   8.473   4.151   8.547  0.1448  0.0447 -0.8645
20927SOL    HW274760   8.392   4.188   8.425 -0.9633  0.6613  0.0369
20928SOL     OW74761   9.959   9.032   9.023 -0.6521 -0.1882  0.4558
20928SOL    HW174762   9.983   9.075   8.941 -0.3223  0.1885  0.7442
20928SOL    HW274763   9.981   8.940   9.009  2.7580  0.3534  1.2895
20929SOL     OW74764   9.564   2.962   1.361  0.4007 -0.1778 -0.0958
20929SOL    HW174765   9.649   2.972   1.404  1.3530 -3.0282 -1.0748
20929SOL    HW274766   9.584   2.926   1.275 -1.7992 -0.8517 -0.3991
20930SOL     OW74767   6.373   6.257   1.403  0.6868  0.3645  0.1649
20930SOL    HW174768   6.329   6.220   1.327 -1.0794 -0.0830  1.3411
20930SOL    HW274769   6.455   6.207   1.410  0.3867 -0.2986 -0.8196
20931SOL     OW74770   5.213   4.172   4.648 -0.2592  0.0899  0.1905
20931SOL    HW174771   5.255   4.130   4.573 -0.3211 -3.5729  2.0050
20931SOL    HW274772   5.148   4.109   4.678  1.0506  0.4519  4.4326
20932SOL     OW74773   5.875   9.753   7.982 -0.1706 -0.5400 -0.1205
20932SOL    HW174774   5.806   9.819   7.982  0.2811 -0.0609  0.5882
20932SOL    HW274775   5.838   9.680   7.933 -2.1301 -1.2754  2.2912
20933SOL     OW74776   9.830   5.119   8.856 -0.4384  0.3738 -0.3829
20933SOL    HW174777   9.880   5.064   8.796  0.1944  0.6985 -0.1593
20933SOL    HW274778   9.877   5.112   8.940 -0.7879  0.6517 -0.1599
20934SOL     OW74779   9.938   6.147   0.504 -0.5037  0.2520  0.5820
20934SOL    HW174780   9.857   6.114   0.466 -0.2250  0.2084  0.0053
20934SOL    HW274781   9.950   6.096   0.584  0.4988 -1.8969 -0.8446
20935SOL     OW74782   9.894   2.800   9.513 -0.1978 -0.4851  0.0331
20935SOL    HW174783   9.909   2.857   9.437  0.3018  1.2181  1.3535
20935SOL    HW274784   9.802   2.813   9.535 -0.2392 -0.6714 -0.0266
20936SOL     OW74785   7.911   1.905   4.198  0.3946 -0.0894  0.3400
20936SOL    HW174786   7.848   1.833   4.199  1.3130 -1.1124 -2.9168
20936SOL    HW274787   7.859   1.983   4.220 -1.5420 -1.1913 -0.1140
20937SOL     OW74788   3.780   4.205   4.036  0.0559 -0.1309  0.2179
20937SOL    HW174789   3.717   4.135   4.020 -2.0119  1.5895  0.3969
20937SOL    HW274790   3.790   4.249   3.951  1.3634 -0.6178  0.0962
20938SOL     OW74791   1.082   8.779   6.913 -0.3940  0.0027  0.0738
20938SOL    HW174792   1.057   8.829   6.836 -0.8045  0.0581  0.2389
20938SOL    HW274793   1.153   8.721   6.883  1.0293  1.6089  0.1780
20939SOL     OW74794   4.408   7.032   9.256  0.1106 -0.1097  0.4634
20939SOL    HW174795   4.414   6.937   9.264 -0.1823  0.0027  2.8681
20939SOL    HW274796   4.437   7.064   9.342 -0.2426  1.9478 -0.1434
20940SOL     OW74797   6.245   9.597   9.086  0.6264  0.5618  0.2525
20940SOL    HW174798   6.325   9.592   9.138  0.7140  0.7757  0.1399
20940SOL    HW274799   6.212   9.507   9.084  1.2396  0.3410 -0.2818
20941SOL     OW74800   3.948   0.909  10.035 -0.4590  0.0954 -0.3689
20941SOL    HW174801   4.037   0.927  10.004 -0.8985  1.3617 -0.9337
20941SOL    HW274802   3.945   0.945  10.123 -0.3533 -0.1596 -0.2588
20942SOL     OW74803   0.290   6.738   8.640  0.5063  0.1453  0.8669
20942SOL    HW174804   0.236   6.811   8.672 -0.7903 -0.1044 -0.6340
20942SOL    HW274805   0.246   6.709   8.560  1.6448 -1.5423  0.8050
20943SOL     OW74806   7.726   7.999   4.178 -0.0746  0.5984  0.1580
20943SOL    HW174807   7.735   8.023   4.270 -1.6718 -2.8031  1.3866
20943SOL    HW274808   7.638   8.027   4.154 -0.0206  0.6110 -0.0278
20944SOL     OW74809   1.337   2.930   5.231 -0.4483 -0.5463  0.1259
20944SOL    HW174810   1.328   2.969   5.144 -0.8031  2.0289  1.2271
20944SOL    HW274811   1.262   2.872   5.239  1.0914 -3.1838 -2.2953
20945SOL     OW74812   5.957   0.950   0.195 -0.3672 -0.3105 -0.2701
20945SOL    HW174813   6.007   0.869   0.203 -0.1928 -0.3110 -1.2511
20945SOL    HW274814   5.866   0.922   0.205 -0.1728 -0.1891  2.3703
20946SOL     OW74815   0.141   7.684   7.573  0.2117 -0.0320  0.1102
20946SOL    HW174816   0.218   7.677   7.629  1.1674  0.7697 -1.0634
20946SOL    HW274817   0.167   7.643   7.491 -0.0547  1.6097 -0.8360
20947SOL     OW74818   0.507   8.014   6.245 -0.4376  0.1043  0.1100
20947SOL    HW174819   0.468   8.072   6.180  1.4260  1.1931 -0.1063
20947SOL    HW274820   0.455   8.029   6.324  1.1811  3.7994  0.7027
20948SOL     OW74821   2.398   8.848   0.557  0.0837 -0.0468 -0.0692
20948SOL    HW174822   2.433   8.861   0.645  0.2117 -0.5654 -0.0371
20948SOL    HW274823   2.363   8.933   0.532 -1.3994 -0.2652  1.1103
20949SOL     OW74824   9.246   9.109   3.733 -0.0306 -0.3812  0.0561
20949SOL    HW174825   9.291   9.029   3.706  0.6946  0.8532 -2.7781
20949SOL    HW274826   9.309   9.179   3.717 -2.4290  1.3160 -3.0229
20950SOL     OW74827   4.033   7.177   5.611  0.0652  0.5352 -0.4097
20950SOL    HW174828   4.074   7.119   5.675 -0.6073  0.4709 -0.0321
20950SOL    HW274829   4.099   7.243   5.593  1.2046 -0.8279 -1.5189
20951SOL     OW74830   2.063   3.168   5.769  0.1084  0.7295 -0.1534
20951SOL    HW174831   1.984   3.117   5.790  0.4073  0.9216  1.6010
20951SOL    HW274832   2.109   3.115   5.704 -0.9474  0.1134 -0.4231
20952SOL     OW74833   7.377   2.324   9.321 -0.1389 -0.1709 -0.0765
20952SOL    HW174834   7.383   2.298   9.229  1.0086 -1.3096  0.2909
20952SOL    HW274835   7.357   2.418   9.318 -0.9795 -0.3703 -1.4675
20953SOL     OW74836   3.762   5.014   2.026 -0.1447  0.2307 -0.1313
20953SOL    HW174837   3.685   4.971   2.064  0.0310  0.4136  0.4477
20953SOL    HW274838   3.746   5.012   1.931 -0.3120 -0.7566 -0.0920
20954SOL     OW74839   4.454   2.717   2.149  0.2735  0.3186  0.2673
20954SOL    HW174840   4.499   2.786   2.198  0.0976  0.7930 -0.2297
20954SOL    HW274841   4.522   2.654   2.127  0.4471  0.3618  0.6761
20955SOL     OW74842   3.846   4.149   9.822  0.1597  0.4048 -0.6361
20955SOL    HW174843   3.785   4.214   9.788  1.2660  0.9445 -1.6688
20955SOL    HW274844   3.862   4.176   9.912 -1.3692  0.0507 -0.2386
20956SOL     OW74845   8.519   5.815   7.651 -0.0450  0.0443 -0.3327
20956SOL    HW174846   8.525   5.719   7.655 -0.5310  0.0274  2.6918
20956SOL    HW274847   8.590   5.841   7.593  1.9045 -2.0557  0.9327
20957SOL     OW74848   4.567   7.075   5.743  0.3611 -0.3155 -0.1706
20957SOL    HW174849   4.620   7.148   5.776 -0.6840 -0.1491  1.2680
20957SOL    HW274850   4.478   7.097   5.770 -0.5587 -0.3653 -2.8960
20958SOL     OW74851   7.692   5.794   5.820  0.3083 -0.7469  0.4016
20958SOL    HW174852   7.734   5.718   5.861 -0.3934 -0.9524  0.7519
20958SOL    HW274853   7.700   5.863   5.885  0.0160 -0.8146  0.5100
20959SOL     OW74854   5.269   7.878   2.385 -0.5645  0.0021  0.1504
20959SOL    HW174855   5.305   7.881   2.474  2.6202  1.5012 -1.0316
20959SOL    HW274856   5.206   7.949   2.382  1.0035  1.4723  0.6237
20960SOL     OW74857   5.084   1.777   8.959  0.5816  0.0438 -0.3543
20960SOL    HW174858   5.069   1.728   9.040 -0.4158 -0.4765 -0.8398
20960SOL    HW274859   5.004   1.827   8.945  1.0557  0.7593 -0.6081
20961SOL     OW74860   2.748   1.958   1.472 -0.5730  0.6841  0.3021
20961SOL    HW174861   2.751   1.972   1.377 -1.5396 -0.3191  0.1038
20961SOL    HW274862   2.737   1.863   1.481 -0.5495  0.7831  1.4171
20962SOL     OW74863   3.940   2.367   9.158  0.0431 -0.3048 -0.5146
20962SOL    HW174864   3.912   2.295   9.215 -1.0165  0.6158  0.1738
20962SOL    HW274865   4.001   2.326   9.096 -1.1444 -1.9677 -0.6579
20963SOL     OW74866   1.846   8.297   0.875  0.5291  0.2861 -0.1516
20963SOL    HW174867   1.900   8.242   0.933  0.1456  0.0488 -0.0176
20963SOL    HW274868   1.829   8.241   0.799  1.6083  0.8276 -0.8259
20964SOL     OW74869   7.483   9.647   7.270 -0.3209  0.0198 -0.2890
20964SOL    HW174870   7.421   9.707   7.313 -0.6837 -0.0510 -0.7060
20964SOL    HW274871   7.555   9.704   7.242 -0.0775  0.0676  0.4026
20965SOL     OW74872   0.627   7.355   0.635  0.1553  0.5118  0.1660
20965SOL    HW174873   0.619   7.405   0.716 -2.2500 -0.1169  0.3940
20965SOL    HW274874   0.613   7.419   0.565  0.0146  0.6637  0.3338
20966SOL     OW74875   0.543   6.716   7.988 -0.7083 -0.0393  0.1636
20966SOL    HW174876   0.542   6.763   8.071 -1.5268 -1.3134  0.9100
20966SOL    HW274877   0.569   6.627   8.010 -1.2203 -0.4792 -0.8868
20967SOL     OW74878   2.225   0.712   2.705 -0.1536  0.9951  0.1528
20967SOL    HW174879   2.180   0.788   2.669 -1.0553  1.2279  1.6839
20967SOL    HW274880   2.156   0.646   2.717  0.7052 -0.3324 -1.7021
20968SOL     OW74881   4.631   3.788   2.110 -0.4698  0.0043 -0.5809
20968SOL    HW174882   4.608   3.845   2.037 -0.7933  1.1719  0.3993
20968SOL    HW274883   4.712   3.824   2.145 -0.5732 -0.2540 -0.0685
20969SOL     OW74884   8.205   1.024   6.963 -0.1734  0.0887 -0.2187
20969SOL    HW174885   8.277   0.987   6.913  0.5950 -0.5543  1.3064
20969SOL    HW274886   8.245   1.056   7.044 -1.5207  0.1491  0.4540
20970SOL     OW74887   6.151   6.977   6.325  0.2680  0.1098  0.1126
20970SOL    HW174888   6.154   7.068   6.352  0.7843  0.3740 -0.7946
20970SOL    HW274889   6.173   6.927   6.404 -0.1760  0.7518  0.6508
20971SOL     OW74890   3.214   5.500   5.775 -0.2522 -0.1141  0.3049
20971SOL    HW174891   3.226   5.594   5.765 -0.4862  0.1641  2.3284
20971SOL    HW274892   3.258   5.462   5.699 -0.4173  1.6211 -0.7021
20972SOL     OW74893   0.486   1.688   2.884  0.0951  0.1459  0.4130
20972SOL    HW174894   0.549   1.708   2.952 -0.3642  0.3496  0.7881
20972SOL    HW274895   0.449   1.773   2.860  1.0455  0.2183 -0.8892
20973SOL     OW74896   2.814   3.777   9.356  0.2307 -0.2255 -0.2618
20973SOL    HW174897   2.822   3.857   9.408  1.0176 -0.2536 -0.3303
20973SOL    HW274898   2.727   3.744   9.376  0.0732  0.4089  0.1164
20974SOL     OW74899   5.092   8.705   0.989 -0.1674 -0.5062  0.0591
20974SOL    HW174900   5.120   8.786   0.945 -1.8379 -0.2251 -0.5413
20974SOL    HW274901   5.155   8.694   1.061  1.3249  0.2023 -1.0780
20975SOL     OW74902   9.827   1.601   1.633  0.3117  0.0659 -0.1464
20975SOL    HW174903   9.890   1.672   1.647 -0.3998  0.5426  0.7127
20975SOL    HW274904   9.835   1.580   1.540  1.0944  0.7302 -0.2412
20976SOL     OW74905   4.489   2.069   8.764  0.0443  0.4972  0.4500
20976SOL    HW174906   4.450   2.009   8.701 -0.6067  1.0855  0.2842
20976SOL    HW274907   4.425   2.074   8.835  0.8666 -0.3350  1.2784
20977SOL     OW74908   8.224   1.939   8.087 -0.3601  0.2440 -0.2697
20977SOL    HW174909   8.175   1.960   8.008 -0.1551 -0.4066 -0.5820
20977SOL    HW274910   8.254   1.849   8.073  0.1490  0.3160  0.3074
20978SOL     OW74911   1.302   1.476   1.872  0.4218 -0.3169 -0.1193
20978SOL    HW174912   1.397   1.472   1.879  0.4176 -1.2446 -0.3659
20978SOL    HW274913   1.276   1.385   1.852 -0.6132 -0.3160  1.1319
20979SOL     OW74914   4.536   8.259   8.693 -0.0940  0.5908 -0.7493
20979SOL    HW174915   4.625   8.292   8.701 -0.4967  1.3939  0.8839
20979SOL    HW274916   4.546   8.165   8.679  1.0201  0.9294 -2.5665
20980SOL     OW74917   4.955   6.196   6.976 -0.1911 -0.4921  0.7672
20980SOL    HW174918   4.884   6.132   6.972 -0.4253 -0.1867 -0.2918
20980SOL    HW274919   4.988   6.201   6.886  1.3779 -0.8411  1.2809
20981SOL     OW74920   4.024   5.516   6.395  0.6806 -0.0647 -0.2124
20981SOL    HW174921   4.011   5.608   6.418 -1.0751  0.2139 -2.0335
20981SOL    HW274922   3.975   5.467   6.460 -0.9410  0.4837 -0.9739
20982SOL     OW74923   3.663   6.289   9.607 -0.0572 -0.3686 -0.0759
20982SOL    HW174924   3.609   6.211   9.599  0.0217 -0.3238 -1.2014
20982SOL    HW274925   3.609   6.360   9.572  0.7891 -0.3668 -1.4803
20983SOL     OW74926   1.632   0.039   2.702 -0.3232  0.3359  0.3408
20983SOL    HW174927   1.689  -0.019   2.752  0.1633 -1.5166 -2.1938
20983SOL    HW274928   1.685   0.118   2.688  0.9674 -0.6094 -0.3559
20984SOL     OW74929   9.812   6.913   7.354 -0.4569  0.2281 -0.1393
20984SOL    HW174930   9.737   6.951   7.400 -0.1485 -1.3047  1.7684
20984SOL    HW274931   9.775   6.839   7.305 -0.5992  1.1779 -1.5199
20985SOL     OW74932  10.235   5.551   7.355  0.3554 -0.2365 -0.6559
20985SOL    HW174933  10.214   5.522   7.444  1.7651 -3.3407 -1.2477
20985SOL    HW274934  10.150   5.573   7.317 -0.6956 -2.2833  0.3649
20986SOL     OW74935   3.163   1.626   0.459 -0.0537 -0.0642  0.4732
20986SOL    HW174936   3.246   1.627   0.507  0.3692  2.1694 -0.1891
20986SOL    HW274937   3.159   1.712   0.416 -1.4566 -1.1086 -1.6821
20987SOL     OW74938   1.659   4.229   0.156 -0.0341  0.0485 -0.4044
20987SOL    HW174939   1.609   4.310   0.162 -0.3571 -0.1339 -0.5813
20987SOL    HW274940   1.654   4.203   0.064  0.5705  0.1378 -0.4669
20988SOL     OW74941   7.704   6.949   7.303  0.5819 -0.0213 -0.0732
20988SOL    HW174942   7.755   6.872   7.329 -0.4372 -0.3449  1.1046
20988SOL    HW274943   7.665   6.980   7.385 -1.9349 -0.4262 -1.0378
20989SOL     OW74944   4.326   0.780   1.899 -0.3772 -0.0941  0.1087
20989SOL    HW174945   4.313   0.703   1.955  0.1703 -1.3202 -1.3861
20989SOL    HW274946   4.404   0.822   1.935  1.5436 -2.3125 -1.1763
20990SOL     OW74947   0.007   7.297   1.813 -0.4972  0.4246  0.6440
20990SOL    HW174948   0.078   7.360   1.807  0.0502 -0.2658 -0.2664
20990SOL    HW274949   0.048   7.212   1.798 -1.5018  0.0058  0.1650
20991SOL     OW74950   9.653   0.395   3.867 -0.0412  0.1486  0.2467
20991SOL    HW174951   9.639   0.357   3.780 -2.0249  0.7239  0.2713
20991SOL    HW274952   9.719   0.337   3.908 -0.4400 -1.2186 -0.9589
20992SOL     OW74953   5.693   1.920   1.295 -0.5231 -0.1191 -0.6041
20992SOL    HW174954   5.609   1.930   1.251 -1.1388  0.3379  0.6192
20992SOL    HW274955   5.731   1.841   1.257 -1.7834 -0.6898 -0.7399
20993SOL     OW74956   1.184   2.378   4.218  0.3463 -0.0590 -0.1978
20993SOL    HW174957   1.254   2.328   4.260  1.2564  0.3889 -1.1506
20993SOL    HW274958   1.205   2.470   4.238  0.7023  0.1477 -1.4798
20994SOL     OW74959   5.513   0.349   0.052 -0.2488  0.0670 -0.1983
20994SOL    HW174960   5.586   0.287   0.047 -0.7022 -0.5190  0.2391
20994SOL    HW274961   5.438   0.299   0.021 -0.7323  0.2137  0.7010
20995SOL     OW74962   8.982   6.867   6.343 -0.4112  0.1457  0.1593
20995SOL    HW174963   8.918   6.796   6.352 -0.3514 -0.0019 -0.5426
20995SOL    HW274964   9.064   6.828   6.371 -0.4384  0.0263  0.0787
20996SOL     OW74965   2.277   8.479   5.108  0.0700 -0.7890  0.3412
20996SOL    HW174966   2.365   8.448   5.087 -0.4287 -0.9017 -1.7163
20996SOL    HW274967   2.227   8.399   5.124 -0.2424 -0.8784 -0.9870
20997SOL     OW74968   5.853   9.505   3.878 -0.3775 -0.0685  0.3348
20997SOL    HW174969   5.915   9.439   3.910 -0.7261  0.9800  3.5470
20997SOL    HW274970   5.892   9.589   3.902 -1.4648  0.7796 -0.6978
20998SOL     OW74971   2.179   7.529   2.154  0.3538  0.2470  0.4773
20998SOL    HW174972   2.088   7.503   2.166  1.0532 -2.0515  1.3395
20998SOL    HW274973   2.230   7.458   2.194  2.5662  0.5467 -1.5536
20999SOL     OW74974   0.406   2.330   3.027 -0.0556 -0.5412 -0.2239
20999SOL    HW174975   0.466   2.401   3.006 -0.3229 -0.1563  0.2675
20999SOL    HW274976   0.374   2.351   3.115  0.2419 -1.5355  0.1381
21000SOL     OW74977   0.310   9.169   9.939  0.2016  0.0275  0.5260
21000SOL    HW174978   0.234   9.141   9.990  0.1905  0.2825  0.6492
21000SOL    HW274979   0.291   9.140   9.850 -0.3127  0.6114  0.4390
21001SOL     OW74980   8.344  10.312   6.294  0.1209  0.2738  0.4139
21001SOL    HW174981   8.391  10.395   6.283  1.3445 -0.4030  0.3308
21001SOL    HW274982   8.285  10.327   6.368 -1.1501  1.8379 -0.8458
21002SOL     OW74983   5.243   6.088   6.711  0.5307  0.5394  0.5049
21002SOL    HW174984   5.173   6.151   6.732 -0.7748 -0.1535 -1.5266
21002SOL    HW274985   5.305   6.139   6.659  2.1448  1.4058  3.0629
21003SOL     OW74986   1.655   0.911   7.074  0.4560 -0.6893 -0.3565
21003SOL    HW174987   1.720   0.889   7.007  1.0358  0.9759 -0.3893
21003SOL    HW274988   1.680   0.998   7.104 -0.1369 -1.1553  1.6340
21004SOL     OW74989   1.642   8.431   7.382 -0.3153 -0.2179 -0.5907
21004SOL    HW174990   1.717   8.439   7.323 -1.4337 -1.3047 -2.2569
21004SOL    HW274991   1.567   8.415   7.324 -1.1917 -3.3548  1.1378
21005SOL     OW74992   9.582   1.702   3.620  0.1998 -0.3213  0.6224
21005SOL    HW174993   9.595   1.795   3.640  1.4272 -0.3614  0.1268
21005SOL    HW274994   9.581   1.660   3.706  2.3185 -0.1257  0.8090
21006SOL     OW74995   7.729   9.287   1.151 -0.4694  0.3343 -0.3513
21006SOL    HW174996   7.639   9.277   1.182  0.0374  0.0111  1.0749
21006SOL    HW274997   7.781   9.303   1.230  0.6598  1.0855 -1.1993
21007SOL     OW74998   0.517   1.930   6.245  1.1668 -0.4779 -0.0405
21007SOL    HW174999   0.424   1.912   6.228  0.8653 -0.0019  0.9844
21007SOL    HW275000   0.520   2.024   6.260  1.7694 -0.5357  0.2080
21008SOL     OW75001   8.751   6.115   5.789 -0.3272 -0.8415  0.3799
21008SOL    HW175002   8.730   6.157   5.872  0.9634  1.7486 -0.4989
21008SOL    HW275003   8.716   6.175   5.723  0.8960 -1.5468 -0.9482
21009SOL     OW75004   9.720   9.404   8.140 -0.4003 -0.4875  0.0512
21009SOL    HW175005   9.632   9.387   8.173  0.3302 -3.2918  0.7854
21009SOL    HW275006   9.716   9.494   8.108 -3.1079 -0.0318  1.3759
21010SOL     OW75007   6.218   9.298   3.084  0.2385  0.3576 -0.3779
21010SOL    HW175008   6.297   9.280   3.135 -1.0840  0.8105  1.9924
21010SOL    HW275009   6.215   9.228   3.019  2.8860  0.7131 -0.9908
21011SOL     OW75010   0.338   8.498   5.107 -0.0813 -0.5629 -0.5134
21011SOL    HW175011   0.299   8.479   5.022 -0.0792 -0.8171 -0.4582
21011SOL    HW275012   0.429   8.521   5.087 -0.7978  2.2871 -0.8782
21012SOL     OW75013   0.920   5.606   4.082  0.2351  0.5487 -0.1028
21012SOL    HW175014   0.837   5.609   4.034 -0.7411  0.2779  1.4851
21012SOL    HW275015   0.984   5.643   4.021 -0.8389 -0.1870 -1.7505
21013SOL     OW75016   0.788   9.494   2.490 -0.0788 -0.0944 -0.5888
21013SOL    HW175017   0.844   9.502   2.567  0.6493 -0.7901 -1.0271
21013SOL    HW275018   0.733   9.417   2.508  0.1977 -0.3493 -0.8173
21014SOL     OW75019   7.807   6.956   4.723  0.0488 -0.3028  0.1956
21014SOL    HW175020   7.847   6.949   4.810  0.7424  0.1521 -0.0715
21014SOL    HW275021   7.785   6.867   4.698 -0.6472 -0.3800  1.0615
21015SOL     OW75022   0.335   5.434   8.932 -0.3650 -0.5589  0.1956
21015SOL    HW175023   0.360   5.342   8.922 -2.2528 -0.9780 -1.3234
21015SOL    HW275024   0.246   5.431   8.967 -0.6097  0.6677 -0.2799
21016SOL     OW75025   3.372   8.903   8.837  0.0936  0.1346  0.2185
21016SOL    HW175026   3.329   8.944   8.762  1.1943  2.2638  0.6827
21016SOL    HW275027   3.454   8.868   8.802  0.2031  0.3557  0.2507
21017SOL     OW75028   1.215   0.973   0.876 -0.6204 -0.0155  0.0392
21017SOL    HW175029   1.287   0.916   0.903  0.6316  0.1336 -2.6194
21017SOL    HW275030   1.159   0.917   0.822 -0.7583  0.6317 -0.5110
21018SOL     OW75031   4.779   8.251   0.466 -0.1859  0.1280 -0.8511
21018SOL    HW175032   4.849   8.217   0.521 -1.8069 -1.0673  0.6186
21018SOL    HW275033   4.743   8.325   0.515  0.7235  1.4500 -2.1228
21019SOL     OW75034  10.165   7.674   1.226  0.0815 -0.2667 -0.1387
21019SOL    HW175035  10.234   7.612   1.201  3.0073  1.4380  2.8211
21019SOL    HW275036  10.205   7.760   1.216 -2.3494  0.9658 -0.0649
21020SOL     OW75037   8.861   3.554   6.747 -0.3371 -0.0908  0.3931
21020SOL    HW175038   8.847   3.535   6.654  0.8711  2.4083 -0.3917
21020SOL    HW275039   8.807   3.632   6.763  1.6691  1.2471  0.9691
21021SOL     OW75040   1.624   1.331   2.757 -0.5560  0.4512  0.5735
21021SOL    HW175041   1.701   1.346   2.812 -0.2800  2.3213 -0.2254
21021SOL    HW275042   1.621   1.236   2.744  1.8647  0.3557  0.3026
21022SOL     OW75043   4.881   5.144   2.160 -0.3819  0.3824 -0.1669
21022SOL    HW175044   4.941   5.150   2.234  0.2902 -1.6759 -0.4709
21022SOL    HW275045   4.799   5.180   2.192  0.3439  1.0555  1.0246
21023SOL     OW75046   0.253   2.394   2.002  0.1895  0.1075 -0.1338
21023SOL    HW175047   0.266   2.320   2.061 -1.1626  1.1048  1.4774
21023SOL    HW275048   0.338   2.439   2.002  1.7419 -2.4225 -2.7463
21024SOL     OW75049   2.853   5.625   4.503  0.2554 -0.3403  0.1793
21024SOL    HW175050   2.923   5.671   4.549  0.6170 -1.0086  0.3100
21024SOL    HW275051   2.805   5.579   4.572  1.2518 -1.9529 -0.1637
21025SOL     OW75052   1.851   1.265   5.380  0.7790 -0.0113 -0.3325
21025SOL    HW175053   1.763   1.253   5.416  1.2077 -0.4963  0.6044
21025SOL    HW275054   1.842   1.334   5.314 -0.3578 -0.2868 -0.4756
21026SOL     OW75055   5.306   9.675   8.660  0.0989  0.4618  1.0267
21026SOL    HW175056   5.303   9.683   8.755  0.8437  0.7243  1.0344
21026SOL    HW275057   5.397   9.653   8.640  0.0384  0.7851  0.3541
21027SOL     OW75058   6.798   4.480   9.895  0.3134  0.2840 -0.3268
21027SOL    HW175059   6.798   4.441   9.808  2.4054  0.1519 -0.3215
21027SOL    HW275060   6.842   4.564   9.884 -0.9116  1.0377  0.3255
21028SOL     OW75061   1.059   1.122   2.501  0.2377  0.0673 -0.5008
21028SOL    HW175062   1.114   1.070   2.443 -0.9554 -0.6808 -0.9960
21028SOL    HW275063   1.119   1.188   2.537  1.4337 -0.6700 -1.0539
21029SOL     OW75064   5.376   8.554   5.036 -0.0716  0.3319 -0.2203
21029SOL    HW175065   5.348   8.487   5.098 -0.8387  0.1071 -0.7888
21029SOL    HW275066   5.294   8.595   5.008  0.0700 -0.7000 -2.3428
21030SOL     OW75067   6.010   2.658   6.047 -0.3840  0.2176  0.3821
21030SOL    HW175068   5.963   2.605   5.983 -0.4173  2.1906 -1.3187
21030SOL    HW275069   5.966   2.744   6.045  2.2819  1.6825 -0.1700
21031SOL     OW75070  10.080   5.115   6.271 -0.2810 -0.4320 -0.0557
21031SOL    HW175071  10.009   5.072   6.319 -0.4643  1.8452  1.8902
21031SOL    HW275072  10.158   5.099   6.323 -0.2519  0.9823  0.3802
21032SOL     OW75073   3.641   4.839   6.535 -0.0866  0.3429 -0.2109
21032SOL    HW175074   3.726   4.857   6.575  0.1333 -1.1151  0.0455
21032SOL    HW275075   3.578   4.860   6.604  0.1744 -0.1858  0.1960
21033SOL     OW75076   8.016   8.670   3.044 -0.6093  0.0404 -0.6689
21033SOL    HW175077   8.037   8.587   3.003 -1.7818 -0.5356 -0.1352
21033SOL    HW275078   7.970   8.720   2.976 -0.0651  0.1941 -0.9305
21034SOL     OW75079   0.723   5.909   5.910  0.1422 -0.1312  0.0947
21034SOL    HW175080   0.801   5.953   5.878  0.1451 -0.4304 -0.3088
21034SOL    HW275081   0.755   5.827   5.947 -0.0642 -0.6364 -0.8160
21035SOL     OW75082   1.237   3.126   1.163 -0.1550 -0.3786  0.0909
21035SOL    HW175083   1.270   3.065   1.229 -0.1189 -0.0943  0.3381
21035SOL    HW275084   1.302   3.196   1.161  0.8926 -1.3526 -1.6880
21036SOL     OW75085   4.205   4.225   0.462 -0.0348 -0.6612 -0.2675
21036SOL    HW175086   4.294   4.213   0.496 -0.2314  1.0537  0.9788
21036SOL    HW275087   4.169   4.136   0.457  2.1331 -1.5251 -2.0297
21037SOL     OW75088   0.976   0.456   9.685  0.1891  0.1314 -0.6761
21037SOL    HW175089   0.984   0.405   9.605  1.0457  0.0865 -0.5636
21037SOL    HW275090   0.888   0.494   9.680 -0.0828 -0.5366 -1.2352
21038SOL     OW75091   3.363   5.941   7.456  0.0436  0.6569  0.0076
21038SOL    HW175092   3.365   6.020   7.511  0.1420  0.0652  0.8712
21038SOL    HW275093   3.317   5.968   7.377  1.1073  1.9131 -0.2267
21039SOL     OW75094   9.079   4.821   4.934 -0.8829  0.1464 -0.1582
21039SOL    HW175095   9.076   4.915   4.954 -1.4444  0.3228 -1.0207
21039SOL    HW275096   9.164   4.808   4.894 -0.9753  0.3734 -0.4325
21040SOL     OW75097   7.348   0.084   2.718 -0.0837  0.3620  0.0285
21040SOL    HW175098   7.425   0.031   2.696  0.0078 -0.5466  2.2516
21040SOL    HW275099   7.381   0.174   2.719  0.4203  0.2090 -1.1110
21041SOL     OW75100   7.292   5.949   9.468 -0.1968  0.2741  0.3537
21041SOL    HW175101   7.271   6.016   9.403  0.6410 -0.7610 -1.0192
21041SOL    HW275102   7.242   5.872   9.439  0.6634 -0.3746  0.5808
21042SOL     OW75103   7.093   4.353   4.591 -0.7535 -0.5816  0.6226
21042SOL    HW175104   7.040   4.338   4.669  0.9644  0.0289  1.9704
21042SOL    HW275105   7.036   4.406   4.534 -1.6342 -0.0075  1.9627
21043SOL     OW75106   5.800   0.770   5.927 -0.1612  0.3339  0.2355
21043SOL    HW175107   5.767   0.684   5.901  0.1002 -0.1580  1.4469
21043SOL    HW275108   5.724   0.827   5.920 -0.5523 -0.1761  0.2131
21044SOL     OW75109   3.845   7.530   6.675  0.5326 -0.5167  0.0477
21044SOL    HW175110   3.931   7.519   6.716  0.6090  1.7220  0.6544
21044SOL    HW275111   3.783   7.520   6.748  0.4920  0.6326  0.1961
21045SOL     OW75112   7.013   2.194   3.903  0.1831 -0.6457 -0.2377
21045SOL    HW175113   6.981   2.132   3.969 -1.8407  0.2420 -0.2827
21045SOL    HW275114   7.043   2.139   3.830  1.9568 -1.6214  1.1731
21046SOL     OW75115   5.839  10.343   0.369  0.5015  0.3935 -0.2015
21046SOL    HW175116   5.825  10.251   0.348  0.1760  0.6656 -1.2604
21046SOL    HW275117   5.921  10.344   0.419 -0.9401 -0.7624  2.3981
21047SOL     OW75118   0.438   5.235   1.251  0.5326 -0.6549  0.6109
21047SOL    HW175119   0.439   5.307   1.314  1.7641 -1.4453  1.5549
21047SOL    HW275120   0.528   5.201   1.253 -0.2331 -2.7957  0.9046
21048SOL     OW75121   9.070   0.480   1.869 -0.4362  0.7651 -0.0682
21048SOL    HW175122   9.134   0.545   1.841 -2.2008  2.0150 -1.3963
21048SOL    HW275123   8.985   0.523   1.858 -1.7866 -2.0857 -2.0216
21049SOL     OW75124   3.923   6.883  10.026  0.0357  0.0889  0.7271
21049SOL    HW175125   3.912   6.801  10.074 -0.4251 -0.3311 -0.0674
21049SOL    HW275126   3.945   6.856   9.937  0.9343  0.8543  0.7071
21050SOL     OW75127   5.951   4.947   2.282 -0.2175  0.5230  0.4638
21050SOL    HW175128   5.898   4.976   2.208 -0.7747 -3.8073 -1.1705
21050SOL    HW275129   6.031   4.912   2.242  1.4432  1.8222  2.4011
21051SOL     OW75130   0.810   9.159   1.908  0.7158 -0.2479 -0.0299
21051SOL    HW175131   0.895   9.161   1.864  0.4440  1.3254 -0.5411
21051SOL    HW275132   0.746   9.154   1.837  0.2621  2.6154  0.0692
21052SOL     OW75133   5.669   3.553   9.694 -0.0360 -0.3107  0.0488
21052SOL    HW175134   5.580   3.558   9.729 -0.1849  0.2400 -0.4015
21052SOL    HW275135   5.724   3.584   9.766 -0.1149 -1.5297  0.6570
21053SOL     OW75136   0.014   0.976   1.375 -0.1665  0.4110 -0.0514
21053SOL    HW175137   0.020   0.952   1.282  0.5356  2.6058 -0.6248
21053SOL    HW275138  -0.007   0.894   1.419  1.9981 -1.2498 -1.8510
21054SOL     OW75139   3.961   6.462   0.934  0.0253 -0.0038 -0.5709
21054SOL    HW175140   3.957   6.367   0.930 -0.8368 -0.1803  2.1577
21054SOL    HW275141   3.886   6.487   0.988  1.5634  2.0104  0.8056
21055SOL     OW75142   3.954   3.603   1.491 -0.6386  0.4029 -0.3609
21055SOL    HW175143   3.918   3.606   1.402 -0.4006  0.6537 -0.4490
21055SOL    HW275144   3.922   3.520   1.526 -0.9129  0.4029 -0.6040
21056SOL     OW75145   3.312  10.084   4.782 -0.3566 -0.1250  0.3530
21056SOL    HW175146   3.381  10.109   4.843  0.0132  0.9933 -0.4987
21056SOL    HW275147   3.335   9.995   4.754  1.5982  0.7657 -1.0650
21057SOL     OW75148   9.052   3.961   7.778 -0.3118  0.0923 -0.1949
21057SOL    HW175149   9.121   3.918   7.829 -0.5465 -1.4946 -1.1589
21057SOL    HW275150   9.099   4.017   7.717  0.0181  0.7571  0.6351
21058SOL     OW75151   8.383   6.516   0.771  0.1722 -0.3720 -0.5193
21058SOL    HW175152   8.403   6.572   0.846  1.2910 -2.1274  0.5494
21058SOL    HW275153   8.354   6.577   0.703  1.1096  1.4780  0.6616
21059SOL     OW75154  10.160   1.520   1.948  0.1238 -0.1320  0.3502
21059SOL    HW175155  10.179   1.434   1.912  4.2747  0.9980 -0.7754
21059SOL    HW275156  10.175   1.511   2.043  3.7013 -0.1707 -0.0843
21060SOL     OW75157   3.174   1.196   2.176  0.4749  0.4300 -0.2682
21060SOL    HW175158   3.180   1.239   2.261  1.1492  0.5976 -0.3949
21060SOL    HW275159   3.149   1.106   2.197 -0.9455  0.8520 -0.0059
21061SOL     OW75160   0.875   2.259   7.648  0.0179  0.1214  0.1806
21061SOL    HW175161   0.871   2.343   7.695 -3.8348 -1.6011  3.5841
21061SOL    HW275162   0.939   2.208   7.697  0.0380  0.0426  0.0721
21062SOL     OW75163   4.154   1.039   8.984 -0.0602 -0.3349 -0.0836
21062SOL    HW175164   4.200   1.076   9.060  2.1052 -0.9054 -1.0470
21062SOL    HW275165   4.073   1.002   9.021  1.6837 -2.1083  2.2791
21063SOL     OW75166   3.021   6.026   7.351  0.0933  0.6330 -0.0675
21063SOL    HW175167   2.987   6.102   7.304 -2.0795  0.0975  0.4983
21063SOL    HW275168   3.019   6.053   7.443  0.4860  0.3064  0.0384
21064SOL     OW75169   9.673   3.547   8.553  0.0450 -0.2363  0.4179
21064SOL    HW175170   9.714   3.629   8.525  0.3171 -0.2612  0.7358
21064SOL    HW275171   9.737   3.479   8.530 -0.2357 -0.3752  0.0358
21065SOL     OW75172   4.122   5.083   8.407 -0.0268 -0.2219  0.2241
21065SOL    HW175173   4.187   5.152   8.414  1.0103 -1.2467  1.1678
21065SOL    HW275174   4.115   5.065   8.313 -0.4260  1.2260 -0.0465
21066SOL     OW75175   3.104   8.461   1.755 -0.1323 -0.0265  0.2698
21066SOL    HW175176   3.014   8.450   1.786 -1.0522  0.6954 -1.8899
21066SOL    HW275177   3.132   8.545   1.792 -1.5103  1.2458 -1.3830
21067SOL     OW75178   7.290   8.433   7.671  0.0739  0.2606 -0.2832
21067SOL    HW175179   7.250   8.399   7.751  0.0280  0.2143 -0.3259
21067SOL    HW275180   7.279   8.363   7.607  0.9802 -0.1057 -0.0676
21068SOL     OW75181   5.777   5.380   4.148  0.4268 -0.1522  0.3605
21068SOL    HW175182   5.814   5.301   4.189 -1.6681 -0.8932  0.9275
21068SOL    HW275183   5.741   5.430   4.221  1.4035  1.1895 -0.0383
21069SOL     OW75184   1.294   8.992   6.064 -0.0914  0.0521  0.2214
21069SOL    HW175185   1.297   9.086   6.046 -0.0019 -0.3103 -1.9299
21069SOL    HW275186   1.269   8.986   6.156 -1.0435  2.1557  0.1555
21070SOL     OW75187   1.041   8.635   8.470 -0.6544 -0.7699 -0.3690
21070SOL    HW175188   0.983   8.686   8.527  0.0104  0.5261 -0.8006
21070SOL    HW275189   0.983   8.599   8.403 -1.4087 -2.1234  0.9458
21071SOL     OW75190   5.850   5.325   9.114 -0.4199 -0.5294  0.6276
21071SOL    HW175191   5.758   5.351   9.105 -0.2728  0.4869  1.7348
21071SOL    HW275192   5.893   5.360   9.036 -1.0277 -1.3864 -0.1160
21072SOL     OW75193   3.558   0.663   7.842  0.4791  0.1000  0.3893
21072SOL    HW175194   3.618   0.604   7.888  0.9964  1.4254  1.4796
21072SOL    HW275195   3.551   0.626   7.754 -0.7850 -2.7142  1.5413
21073SOL     OW75196   9.043   8.497   6.653 -0.1298  0.3107  0.2947
21073SOL    HW175197   8.996   8.575   6.624  0.2965  0.7020  0.6376
21073SOL    HW275198   9.095   8.471   6.577 -1.4626 -0.5737 -0.3361
21074SOL     OW75199   3.161  10.021   7.312  0.0655  0.5200 -0.2745
21074SOL    HW175200   3.089  10.080   7.334  0.8300  1.6915 -0.8037
21074SOL    HW275201   3.182   9.977   7.394 -0.6560  0.8214  0.0828
21075SOL     OW75202   2.582  10.324   8.728  0.7817 -0.0900  0.1066
21075SOL    HW175203   2.626  10.330   8.643 -2.1744  0.3707 -1.5319
21075SOL    HW275204   2.537  10.240   8.725 -1.0397  0.8312  0.2644
21076SOL     OW75205   2.746   3.161   2.390 -0.3401 -0.2628 -0.3584
21076SOL    HW175206   2.829   3.195   2.354 -0.5489 -1.3080 -1.9174
21076SOL    HW275207   2.690   3.148   2.314 -2.2468  1.0856  0.7193
21077SOL     OW75208   9.440   7.621   7.857 -0.0484  1.0655 -0.9791
21077SOL    HW175209   9.497   7.579   7.921  0.4623 -0.7629 -2.5530
21077SOL    HW275210   9.352   7.612   7.894  0.0943 -1.0442 -1.0449
21078SOL     OW75211   7.498   1.167   2.882  0.0226  0.6686  0.3961
21078SOL    HW175212   7.409   1.204   2.881 -1.2058 -1.9430  2.3737
21078SOL    HW275213   7.487   1.079   2.917  3.4985  0.4249  1.1942
21079SOL     OW75214   1.029   9.948   3.544  0.2270  0.0898 -0.1262
21079SOL    HW175215   1.100   9.883   3.545 -0.0552 -0.2202 -0.0337
21079SOL    HW275216   1.058  10.015   3.606  0.5143  0.0467 -0.2105
21080SOL     OW75217   8.259   7.629   1.550  0.0140  0.0918  0.1510
21080SOL    HW175218   8.294   7.702   1.500 -0.0208  0.2365  0.3333
21080SOL    HW275219   8.247   7.559   1.487  3.1025 -0.8852  0.4808
21081SOL     OW75220   0.939   9.319   3.129  0.1372 -0.1100  0.2324
21081SOL    HW175221   1.025   9.278   3.130  0.0745 -0.2444  0.1500
21081SOL    HW275222   0.878   9.248   3.148  0.1605  0.2852  1.9638
21082SOL     OW75223   8.964   3.614   7.255 -0.0692 -0.3847 -0.1881
21082SOL    HW175224   8.981   3.670   7.180 -0.4086  1.3740  0.9869
21082SOL    HW275225   8.870   3.593   7.248 -0.0740 -0.3246 -0.3085
21083SOL     OW75226   8.812   8.831   2.264 -0.0035 -0.0225  0.0093
21083SOL    HW175227   8.776   8.871   2.343  0.9900  0.5216  0.2046
21083SOL    HW275228   8.889   8.782   2.295  0.4060  0.2128 -0.6090
21084SOL     OW75229  10.146   1.863   6.560  0.4594 -0.0258 -0.5163
21084SOL    HW175230  10.083   1.815   6.614  0.8715  0.3474  0.3291
21084SOL    HW275231  10.105   1.949   6.547  1.5804  0.9398  1.7158
21085SOL     OW75232   6.596   3.872   5.955 -0.1061 -0.4747  0.3070
21085SOL    HW175233   6.550   3.930   6.016 -0.2020  0.3700 -0.5650
21085SOL    HW275234   6.553   3.787   5.968 -0.5743 -0.1584  0.9364
21086SOL     OW75235   4.367  10.072   5.911 -0.8294 -0.1705 -0.0494
21086SOL    HW175236   4.326  10.158   5.913  0.5975  0.5243  1.0712
21086SOL    HW275237   4.440  10.078   5.973  1.0216 -1.3269 -1.9819
21087SOL     OW75238   8.459   0.730   3.530 -0.1452  0.4842 -0.4535
21087SOL    HW175239   8.551   0.710   3.513 -0.4304 -0.4166 -1.0099
21087SOL    HW275240   8.457   0.763   3.620  0.7520  0.7884 -0.5401
21088SOL     OW75241   6.902   5.655   8.008  0.0515  0.3366 -0.8231
21088SOL    HW175242   6.905   5.696   7.921  0.7975 -0.4331 -1.1880
21088SOL    HW275243   6.816   5.614   8.012 -0.3103  1.0799 -0.8571
21089SOL     OW75244   5.571   1.888   6.299 -0.2778 -0.6179 -0.1750
21089SOL    HW175245   5.496   1.936   6.264 -0.9058 -1.2580  0.2560
21089SOL    HW275246   5.588   1.820   6.233  0.9281  0.4711 -1.0295
21090SOL     OW75247   6.452   8.708   2.791 -0.0830  0.5473  1.0580
21090SOL    HW175248   6.381   8.769   2.769  0.5020  0.7006 -0.5897
21090SOL    HW275249   6.407   8.626   2.809 -0.7587  0.9476  1.2585
21091SOL     OW75250   9.598   8.939   2.410 -0.1134 -0.0474  0.6962
21091SOL    HW175251   9.665   9.002   2.436  0.6641 -1.2281  1.6619
21091SOL    HW275252   9.633   8.898   2.331  0.6209 -1.1000  1.5474
21092SOL     OW75253   0.409   8.452   8.547 -0.5362  0.2429  0.0101
21092SOL    HW175254   0.359   8.405   8.613  0.4702  0.7703  1.1875
21092SOL    HW275255   0.496   8.410   8.548 -0.1829  0.9470 -0.2074
21093SOL     OW75256   0.580  10.382   9.560 -0.2072  0.7429  0.0613
21093SOL    HW175257   0.537  10.405   9.477 -0.2410 -0.5521 -0.2990
21093SOL    HW275258   0.661  10.340   9.534  0.3837  1.4417  0.7235
21094SOL     OW75259   1.192   0.540   3.273 -0.2635  0.0767  0.2389
21094SOL    HW175260   1.106   0.537   3.229  0.6844  1.9928 -1.9557
21094SOL    HW275261   1.198   0.629   3.306 -0.0490 -0.7414  2.5895
21095SOL     OW75262   6.744   0.534   3.281  0.4995 -0.0705 -0.4362
21095SOL    HW175263   6.669   0.534   3.221  0.2191  1.6070 -0.1177
21095SOL    HW275264   6.803   0.601   3.247 -0.6059  2.4683  2.1954
21096SOL     OW75265   5.571  10.068   8.343  0.7712 -0.6498 -0.2660
21096SOL    HW175266   5.566  10.096   8.434  0.1705 -1.7298  0.0429
21096SOL    HW275267   5.488  10.095   8.305  0.7755 -0.7415 -0.3404
21097SOL     OW75268   1.141   1.207   0.436 -0.1658 -0.4694 -0.0536
21097SOL    HW175269   1.209   1.167   0.489 -1.0401 -2.9085 -0.6715
21097SOL    HW275270   1.131   1.149   0.360 -3.9620 -1.1315  0.7292
21098SOL     OW75271   7.269   1.044   9.889  0.4029  0.3394  0.5162
21098SOL    HW175272   7.267   1.007   9.977  0.4868 -0.1130  0.3322
21098SOL    HW275273   7.233   0.976   9.833  0.3027  0.6437  0.2036
21099SOL     OW75274   0.071   2.975   5.478 -0.2838 -0.1416 -0.2127
21099SOL    HW175275   0.144   2.933   5.432 -0.8305 -0.4915 -0.7659
21099SOL    HW275276   0.105   2.990   5.567  0.5114 -0.1664 -0.5008
21100SOL     OW75277   2.434   8.657   0.200 -0.5518  0.4426  0.3806
21100SOL    HW175278   2.519   8.677   0.160 -0.7253  1.3814  0.4577
21100SOL    HW275279   2.399   8.586   0.146  0.5962 -0.4827  0.8024
21101SOL     OW75280   6.429   5.845   4.040 -0.5314 -0.6264  0.0285
21101SOL    HW175281   6.439   5.898   3.961  1.6562 -0.2097  0.5306
21101SOL    HW275282   6.409   5.757   4.008 -2.5151  0.0987 -0.8669
21102SOL     OW75283   3.815   3.020   1.704  0.2218  0.5834 -0.1378
21102SOL    HW175284   3.747   2.961   1.670  1.8218 -1.8400  0.6278
21102SOL    HW275285   3.767   3.100   1.727 -2.0425 -0.3112 -1.3868
21103SOL     OW75286   4.026   6.063   4.226  0.4728  0.3812  0.0405
21103SOL    HW175287   4.036   5.982   4.275  2.6555  0.7854  0.3795
21103SOL    HW275288   3.957   6.044   4.162  0.4929 -1.5209  0.5163
21104SOL     OW75289   7.195   0.681   9.258  0.6706 -0.3393  0.2466
21104SOL    HW175290   7.182   0.776   9.253 -0.3388 -0.5150 -1.6051
21104SOL    HW275291   7.118   0.649   9.306 -0.0670 -0.3748 -0.9225
21105SOL     OW75292   8.282   0.334   2.382  0.1756 -0.2156 -0.0323
21105SOL    HW175293   8.365   0.381   2.393  0.5960 -1.0828  0.5993
21105SOL    HW275294   8.307   0.248   2.349 -0.1739 -1.4902  2.6892
21106SOL     OW75295  10.020   1.975   5.132 -0.1525 -0.2331 -0.0773
21106SOL    HW175296  10.068   2.007   5.208  3.4013 -0.0237 -2.1886
21106SOL    HW275297   9.971   1.899   5.164  1.8045 -0.6333  2.2616
21107SOL     OW75298   2.426   3.140   2.692  0.2023  0.3011  0.4659
21107SOL    HW175299   2.469   3.083   2.756  0.0578  1.0387  1.2359
21107SOL    HW275300   2.333   3.131   2.712  0.0731 -0.2959 -0.3578
21108SOL     OW75301   2.815   6.409   4.027 -0.1743 -0.5734  0.3656
21108SOL    HW175302   2.751   6.415   4.098 -0.7552 -0.1301 -0.1809
21108SOL    HW275303   2.807   6.319   3.995  1.4726 -1.3940  2.1036
21109SOL     OW75304   6.073   1.239   1.251  0.2979 -0.3696  0.5250
21109SOL    HW175305   6.003   1.303   1.241  0.2237 -0.5443 -0.1314
21109SOL    HW275306   6.112   1.259   1.336 -0.2398  0.0320  0.6841
21110SOL     OW75307   7.583   8.522   1.328  0.4741 -0.0308  0.2396
21110SOL    HW175308   7.645   8.507   1.257  0.5135  0.3908  0.1855
21110SOL    HW275309   7.627   8.487   1.406  0.5110 -0.3152  0.0920
21111SOL     OW75310   2.981   9.470   6.185  0.4091 -0.3386 -0.4079
21111SOL    HW175311   2.968   9.556   6.145  4.7011 -0.3460 -2.3805
21111SOL    HW275312   3.037   9.487   6.260  0.3753 -1.3150 -0.1485
21112SOL     OW75313   5.616   2.792   8.244 -0.0135  0.2655  0.2408
21112SOL    HW175314   5.703   2.753   8.251  0.8909  2.2342  0.8645
21112SOL    HW275315   5.579   2.785   8.331  0.0947  0.6196  0.3199
21113SOL     OW75316   2.258   5.059   4.989  0.1656 -0.1842  0.3198
21113SOL    HW175317   2.199   5.116   5.039 -1.0955  0.4029 -1.7176
21113SOL    HW275318   2.310   5.014   5.055 -1.0178  0.9684  2.1156
21114SOL     OW75319   5.336   6.884   1.799 -0.3572  0.2489 -0.2959
21114SOL    HW175320   5.407   6.937   1.834 -0.4045  0.3075 -0.2889
21114SOL    HW275321   5.281   6.946   1.750 -0.7096  0.3069  0.1653
21115SOL     OW75322   8.889   1.014   4.825 -0.1646 -0.6095 -0.3717
21115SOL    HW175323   8.983   1.033   4.836  0.1391 -0.9493 -2.1566
21115SOL    HW275324   8.845   1.084   4.875  1.0165  0.9285 -1.3841
21116SOL     OW75325   3.454   9.030   4.616  0.3469  0.6129  0.1022
21116SOL    HW175326   3.437   9.116   4.655 -1.3819 -0.8586  2.9752
21116SOL    HW275327   3.549   9.020   4.619  0.5823  2.3881 -0.2985
21117SOL     OW75328   8.984   8.084   3.329 -0.3566  0.1889  0.3165
21117SOL    HW175329   9.009   8.138   3.253  2.3472  0.4079  1.2541
21117SOL    HW275330   8.992   7.994   3.297  2.7107  0.2064  0.7368
21118SOL     OW75331   5.894   5.959   3.360  0.0968  0.4631  0.0815
21118SOL    HW175332   5.948   6.034   3.340 -1.7050  1.6886 -0.4365
21118SOL    HW275333   5.855   5.934   3.277  1.0159 -1.3769  0.1528
21119SOL     OW75334   3.331   4.684   8.735  0.1509 -0.3388  0.3271
21119SOL    HW175335   3.371   4.708   8.651 -2.5285 -0.4920 -1.0933
21119SOL    HW275336   3.368   4.746   8.797  1.6904  0.2524 -1.0887
21120SOL     OW75337   6.025   9.396   6.380  0.5282 -0.0096  0.0868
21120SOL    HW175338   6.030   9.303   6.357  1.5126  0.1753 -0.5027
21120SOL    HW275339   6.063   9.441   6.304 -2.1094  1.0574 -0.7149
21121SOL     OW75340   5.325   5.902   6.888 -0.5158 -0.4753 -1.0112
21121SOL    HW175341   5.268   5.825   6.887  0.2869 -1.0830 -1.7422
21121SOL    HW275342   5.286   5.962   6.824 -2.5513  0.8484  1.2781
21122SOL     OW75343   1.944   7.330   3.398 -0.3068 -0.2742  0.7012
21122SOL    HW175344   1.993   7.277   3.461  0.8173  0.3091  0.3348
21122SOL    HW275345   1.952   7.283   3.316 -0.9995 -0.5536  0.7819
21123SOL     OW75346   3.886   7.979   8.164 -0.0498 -0.4805 -0.3627
21123SOL    HW175347   3.902   7.913   8.231  1.4818 -1.4945 -1.6309
21123SOL    HW275348   3.964   8.035   8.166 -1.2516  1.2156  0.5668
21124SOL     OW75349   2.700   9.985   9.005 -0.5020  0.3238  0.1030
21124SOL    HW175350   2.759  10.046   9.049 -1.2410  1.5693 -0.5737
21124SOL    HW275351   2.742   9.969   8.920 -1.3945  1.7035 -0.6329
21125SOL     OW75352   4.414   9.253   4.221 -0.7188 -0.4203  0.0048
21125SOL    HW175353   4.352   9.283   4.155 -2.3925 -2.2140  0.6728
21125SOL    HW275354   4.443   9.168   4.190  3.4065  1.2587 -1.5110
21126SOL     OW75355   9.996   9.096   5.451 -0.1071 -0.3937  0.2103
21126SOL    HW175356  10.074   9.087   5.505 -0.2941 -0.7508  0.4221
21126SOL    HW275357  10.021   9.160   5.384  1.6144 -3.1515 -1.9740
21127SOL     OW75358   2.140   0.323   0.321  0.2190  0.0524  0.2731
21127SOL    HW175359   2.115   0.401   0.370 -1.2405  0.5972 -1.2692
21127SOL    HW275360   2.233   0.335   0.303  0.4786  0.4551  1.7278
21128SOL     OW75361   8.494   7.030   0.226  0.6458 -0.0348 -0.1491
21128SOL    HW175362   8.436   7.045   0.152  0.0019 -0.6932  0.2202
21128SOL    HW275363   8.452   7.075   0.299  1.2539  0.5709 -0.1576
21129SOL     OW75364   9.379   7.026   5.208 -0.0768  0.2512  0.2100
21129SOL    HW175365   9.407   7.055   5.121 -1.1899  1.3598  0.1897
21129SOL    HW275366   9.289   7.059   5.216 -0.1861 -0.3243  1.5655
21130SOL     OW75367   0.266  10.328   4.161 -0.4355  0.4060 -0.4831
21130SOL    HW175368   0.233  10.279   4.236  0.8008  1.4731  0.8169
21130SOL    HW275369   0.306  10.406   4.200 -0.2124  1.2391 -2.3025
21131SOL     OW75370   1.085   5.760   7.749 -0.7664 -0.1818  0.2307
21131SOL    HW175371   1.021   5.795   7.811  0.5512  0.0600  1.4923
21131SOL    HW275372   1.153   5.827   7.744  0.5038 -1.3989  0.6678
21132SOL     OW75373   7.472   8.316   6.774  0.0623  0.0105  0.0302
21132SOL    HW175374   7.538   8.300   6.842 -0.3050  0.9856  0.6469
21132SOL    HW275375   7.469   8.412   6.765 -1.3537  0.0066  0.1226
21133SOL     OW75376   0.469   8.151   6.892  0.1682  0.5130  0.4573
21133SOL    HW175377   0.493   8.208   6.965  2.0656 -0.3893  0.6043
21133SOL    HW275378   0.532   8.079   6.896 -1.8934 -1.4156  0.0436
21134SOL     OW75379   9.043   6.538   4.807  0.4945 -0.1118  0.2407
21134SOL    HW175380   8.999   6.456   4.828  1.2370 -0.5402  0.1759
21134SOL    HW275381   9.103   6.515   4.736 -0.0308  0.7169 -0.4752
21135SOL     OW75382   2.589   6.350   5.728 -0.6051  0.4056 -0.4153
21135SOL    HW175383   2.653   6.354   5.656  0.0691  0.1600  0.1575
21135SOL    HW275384   2.555   6.439   5.734 -0.8347  0.3773 -1.1851
21136SOL     OW75385   4.199   0.459   2.683  0.5317  0.1246 -0.0244
21136SOL    HW175386   4.164   0.530   2.737 -0.8479 -0.0079 -0.6887
21136SOL    HW275387   4.161   0.474   2.596  0.7401 -1.0575 -0.3425
21137SOL     OW75388   0.012   6.871   5.602 -0.4071 -0.6197  0.0833
21137SOL    HW175389   0.012   6.787   5.648 -1.4237 -0.3632  0.5760
21137SOL    HW275390   0.091   6.868   5.548 -0.2808 -1.7753  0.2951
21138SOL     OW75391  10.199   4.543   2.794 -0.0416  0.6377 -0.0151
21138SOL    HW175392  10.236   4.484   2.860  1.6937  1.0122 -0.6182
21138SOL    HW275393  10.265   4.610   2.782 -1.3019  1.8310 -0.5262
21139SOL     OW75394   6.224   3.889   6.540  0.1875 -0.0533  0.0203
21139SOL    HW175395   6.224   3.809   6.592  0.4987 -0.2170 -0.2230
21139SOL    HW275396   6.145   3.883   6.487  0.6505 -0.6305 -0.6309
21140SOL     OW75397   0.081   3.984   4.374 -0.0312 -0.6817  0.6484
21140SOL    HW175398   0.140   4.047   4.331  0.6903 -0.4521  1.9320
21140SOL    HW275399   0.136   3.909   4.392 -1.1642 -2.3185 -2.0110
21141SOL     OW75400   5.237   7.124   8.515 -0.2766 -0.2350  1.0759
21141SOL    HW175401   5.257   7.183   8.442  2.4314 -1.2915  0.8086
21141SOL    HW275402   5.169   7.066   8.481 -1.4215  1.3264  0.6028
21142SOL     OW75403   7.571   6.714   3.270 -0.2377  0.3719 -0.1347
21142SOL    HW175404   7.632   6.651   3.232 -1.5217 -0.4864 -0.8410
21142SOL    HW275405   7.622   6.795   3.277  0.6937 -0.0272 -1.6791
21143SOL     OW75406   2.365   5.904   2.853 -0.1618  0.0061  0.2793
21143SOL    HW175407   2.435   5.958   2.888  0.4157 -1.1157  0.9017
21143SOL    HW275408   2.405   5.819   2.837 -0.4832  0.2906 -2.7432
21144SOL     OW75409   6.654   0.931   4.828  0.1796  0.3583  0.2483
21144SOL    HW175410   6.562   0.956   4.831  0.3632  1.0915 -0.0707
21144SOL    HW275411   6.690   0.982   4.756  0.7559 -0.2024  0.1356
21145SOL     OW75412   9.419   2.431   7.362  0.1872 -0.4011 -0.1894
21145SOL    HW175413   9.436   2.523   7.380  0.0909 -0.4339  0.0728
21145SOL    HW275414   9.329   2.417   7.392  0.9766 -1.1687  2.0808
21146SOL     OW75415   1.553   5.526   5.744  0.4319  0.0740 -0.1779
21146SOL    HW175416   1.564   5.588   5.671 -1.0488  0.4907 -0.0982
21146SOL    HW275417   1.641   5.514   5.779  1.0568  0.5198 -1.5013
21147SOL     OW75418   7.715   0.990   2.429 -0.8520  0.0580  0.4602
21147SOL    HW175419   7.737   1.051   2.499 -0.9542 -0.0152  0.5569
21147SOL    HW275420   7.671   0.918   2.473 -1.4365  0.2814  0.2458
21148SOL     OW75421   2.207   8.263   4.835 -0.2114  0.0299  0.0941
21148SOL    HW175422   2.136   8.204   4.863  0.0898  0.1514  1.1525
21148SOL    HW275423   2.282   8.237   4.888 -0.1941  1.6631  0.9192
21149SOL     OW75424   1.449   7.864   2.540  0.0310 -0.2977 -0.0851
21149SOL    HW175425   1.452   7.918   2.461 -1.5531 -2.4600 -1.7126
21149SOL    HW275426   1.368   7.890   2.584  0.3944  0.1815  0.3135
21150SOL     OW75427   0.431   6.255   2.421 -0.0766 -0.7363  0.0003
21150SOL    HW175428   0.425   6.345   2.389 -0.9923 -1.4702 -2.0688
21150SOL    HW275429   0.491   6.260   2.495 -1.9365  1.9591  1.5013
21151SOL     OW75430  10.014   7.018   1.245  0.4382  0.0880  0.3433
21151SOL    HW175431   9.924   6.995   1.267  0.1440  1.0802  0.2516
21151SOL    HW275432  10.047   6.943   1.197 -0.6733  0.1039 -0.5019
21152SOL     OW75433   5.621   5.533   1.859 -0.2039  0.1364  0.3725
21152SOL    HW175434   5.680   5.543   1.784 -1.2884  1.5988 -0.3332
21152SOL    HW275435   5.650   5.599   1.922 -0.4717  0.1857  0.4452
21153SOL     OW75436   6.101   3.910   1.355  0.0161  0.1787 -0.4020
21153SOL    HW175437   6.046   3.925   1.279  0.2532 -0.3034 -0.6726
21153SOL    HW275438   6.189   3.933   1.326  0.2329 -0.8074 -0.5294
21154SOL     OW75439   9.519   7.342   1.102 -0.3080 -0.2287  0.9546
21154SOL    HW175440   9.437   7.338   1.150 -0.2695 -1.2223  0.9588
21154SOL    HW275441   9.564   7.260   1.125 -1.3209 -1.9560 -2.6053
21155SOL     OW75442   3.327   8.037   9.740 -0.3906 -0.6428 -0.2711
21155SOL    HW175443   3.258   8.076   9.793 -1.1839  0.2417 -1.8519
21155SOL    HW275444   3.280   7.987   9.673  0.4600  0.0549 -1.4333
21156SOL     OW75445   1.082   1.726   2.289 -0.2457 -0.2288  0.3373
21156SOL    HW175446   1.158   1.688   2.245  0.6381  1.1470  0.6435
21156SOL    HW275447   1.010   1.667   2.266  0.8467 -1.4201 -0.1653
21157SOL     OW75448   7.173   9.796   6.857  0.2381 -0.4266  0.2382
21157SOL    HW175449   7.104   9.796   6.790  0.5772 -0.1557 -0.1223
21157SOL    HW275450   7.205   9.706   6.858 -0.2395 -0.5999  0.5414
21158SOL     OW75451   4.403   8.459   1.302 -0.5014 -0.4966  0.2985
21158SOL    HW175452   4.498   8.448   1.296 -0.4493  0.2064 -0.3471
21158SOL    HW275453   4.367   8.384   1.253 -0.2407 -0.0654 -0.5836
21159SOL     OW75454   9.806   5.117   6.569 -0.1040 -0.1400  0.2686
21159SOL    HW175455   9.774   5.032   6.540  1.8800 -0.7060 -0.3995
21159SOL    HW275456   9.760   5.180   6.514 -0.9783 -0.8284  0.2009
21160SOL     OW75457  10.126   9.384   3.077 -0.3594  0.4381  0.2166
21160SOL    HW175458  10.103   9.477   3.083  1.6280  0.9334  0.6302
21160SOL    HW275459  10.101   9.348   3.162  1.0838  1.1466  0.9699
21161SOL     OW75460   1.964   0.792   7.743  0.7730 -0.0365  0.0375
21161SOL    HW175461   2.026   0.720   7.749  0.2448 -0.7223 -1.9754
21161SOL    HW275462   2.017   0.869   7.724  1.1369 -0.3667 -0.2874
21162SOL     OW75463   3.608   7.042   9.114  0.1764  0.2138  0.5071
21162SOL    HW175464   3.600   7.079   9.202 -0.7433  0.0629  0.4882
21162SOL    HW275465   3.675   7.096   9.072  0.4915  0.4088  1.2292
21163SOL     OW75466   4.040   2.017   2.130 -0.6183  0.2516 -0.3216
21163SOL    HW175467   3.968   2.071   2.097  1.0198  2.8391 -0.0167
21163SOL    HW275468   4.031   2.018   2.225 -1.0542 -0.7569 -0.3460
21164SOL     OW75469   7.518   8.703   3.426  0.2377 -0.4456 -0.1911
21164SOL    HW175470   7.520   8.651   3.346 -1.1209 -1.1344  0.1893
21164SOL    HW275471   7.589   8.669   3.480  0.6696 -0.4940 -0.7791
21165SOL     OW75472   3.487   3.194   9.352 -0.0480  0.2584  0.5045
21165SOL    HW175473   3.459   3.111   9.389  0.9651  0.0778  0.9024
21165SOL    HW275474   3.528   3.171   9.268 -1.0198  0.5176 -0.0651
21166SOL     OW75475   3.950   7.506   9.179 -0.2072  0.0090  0.0721
21166SOL    HW175476   3.974   7.415   9.160  0.9934  0.1004  1.0769
21166SOL    HW275477   3.972   7.554   9.098  2.3028 -0.0587  0.6571
21167SOL     OW75478   2.394   8.502   1.217 -0.2929 -0.1493 -0.4835
21167SOL    HW175479   2.463   8.436   1.224  1.2258  1.4201  0.0456
21167SOL    HW275480   2.314   8.456   1.243  0.8746 -1.4870  0.9339
21168SOL     OW75481   2.870   0.370   7.615  0.1836  0.0097  0.0463
21168SOL    HW175482   2.903   0.445   7.665 -0.4221 -1.1946  2.4113
21168SOL    HW275483   2.941   0.348   7.554  1.7999  0.4116  1.6880
21169SOL     OW75484   3.224   4.053   2.328  0.1571  0.1229  0.3824
21169SOL    HW175485   3.193   4.120   2.267 -0.8661 -0.1594  0.5768
21169SOL    HW275486   3.240   3.976   2.272  0.0909  0.1401  0.3393
21170SOL     OW75487   4.740   6.263   1.719  0.2471 -0.0398 -0.3538
21170SOL    HW175488   4.714   6.172   1.735  1.3507 -0.4369 -0.7636
21170SOL    HW275489   4.703   6.311   1.793 -3.3051 -0.2172 -1.7883
21171SOL     OW75490   6.500   1.050   7.296 -0.1807  0.2328  0.5648
21171SOL    HW175491   6.521   1.003   7.216 -2.2201  1.0091 -0.5060
21171SOL    HW275492   6.404   1.044   7.303 -0.2706  2.0721  1.7130
21172SOL     OW75493   4.552   4.466   5.554 -0.1102 -0.3180  0.0048
21172SOL    HW175494   4.604   4.491   5.631  0.7750 -1.8635 -0.0371
21172SOL    HW275495   4.465   4.448   5.589  0.1638 -0.5647  0.5752
21173SOL     OW75496   7.130   4.400   2.844  0.1280 -0.2068  0.4739
21173SOL    HW175497   7.055   4.381   2.788 -0.8306 -1.4718  2.0969
21173SOL    HW275498   7.150   4.492   2.827 -3.5829  1.0239  1.9472
21174SOL     OW75499   8.157   8.658   3.481  0.5667 -0.3001  0.1066
21174SOL    HW175500   8.153   8.753   3.471 -0.2306 -0.4459 -1.2700
21174SOL    HW275501   8.201   8.628   3.401 -0.0219 -1.1340  0.0878
21175SOL     OW75502   4.201   7.896   8.530 -0.4115 -0.1960 -0.0956
21175SOL    HW175503   4.241   7.983   8.532  0.5269 -0.6306  0.4725
21175SOL    HW275504   4.133   7.900   8.598  0.6445 -0.3689  1.0062
21176SOL     OW75505   7.820   0.238   4.034  0.7838  0.1308 -0.0852
21176SOL    HW175506   7.812   0.323   3.990 -0.4314  0.5391  0.8584
21176SOL    HW275507   7.855   0.260   4.121 -0.4103 -0.1930  0.5048
21177SOL     OW75508   6.838   9.513   8.164 -0.2245  0.1392 -0.0596
21177SOL    HW175509   6.805   9.600   8.144 -0.8437  0.2146  1.1896
21177SOL    HW275510   6.822   9.502   8.258 -0.5166 -1.4647 -0.2648
21178SOL     OW75511   8.505   2.746   7.571 -0.5188 -0.1234 -0.5071
21178SOL    HW175512   8.415   2.730   7.597 -0.1148  1.2411  1.9835
21178SOL    HW275513   8.545   2.792   7.645  2.4356 -1.3015 -1.1963
21179SOL     OW75514   7.645   7.173   4.778  0.2132  0.1391  0.1560
21179SOL    HW175515   7.668   7.105   4.715  0.1192  0.8563 -0.6700
21179SOL    HW275516   7.678   7.254   4.739 -2.2991  1.0109 -0.3448
21180SOL     OW75517   9.898   6.120   2.757  0.2625  0.2123 -0.4656
21180SOL    HW175518   9.908   6.089   2.847  0.2292  1.5529  0.0212
21180SOL    HW275519   9.925   6.045   2.703 -0.0992 -0.7428  0.6376
21181SOL     OW75520   9.202   3.198   1.873 -0.3038  0.0265  0.1828
21181SOL    HW175521   9.125   3.198   1.929 -0.3466  3.0655  0.2586
21181SOL    HW275522   9.273   3.230   1.929  0.1305  0.9879 -0.8696
21182SOL     OW75523   1.927   9.120   4.656 -0.4761 -0.1416 -0.0414
21182SOL    HW175524   1.903   9.198   4.706 -1.9946 -1.2818  1.1291
21182SOL    HW275525   2.015   9.098   4.686 -0.5169  0.4437  0.5158
21183SOL     OW75526   0.287   4.919   6.436  0.0807 -0.0860 -0.4073
21183SOL    HW175527   0.293   4.978   6.511  0.3113 -0.9091  0.2458
21183SOL    HW275528   0.193   4.902   6.427 -0.3338  2.5733 -2.4143
21184SOL     OW75529   5.757   0.931   5.484 -0.0427  0.4872 -0.3520
21184SOL    HW175530   5.724   0.847   5.516  1.8817 -0.3859 -0.5490
21184SOL    HW275531   5.794   0.910   5.398  1.9860  1.1374  0.3071
21185SOL     OW75532   4.018   2.616   5.778  0.4091  0.1402 -0.0654
21185SOL    HW175533   4.067   2.690   5.742 -0.9878  0.6184 -1.0805
21185SOL    HW275534   3.927   2.634   5.755 -0.3446 -0.4641  2.1800
21186SOL     OW75535   9.594   6.918   8.811 -0.1222 -0.0845 -0.3002
21186SOL    HW175536   9.560   6.842   8.858 -0.4650  0.3646  0.2091
21186SOL    HW275537   9.516   6.972   8.794  0.1732  0.3863 -0.1943
21187SOL     OW75538   0.349   3.789   1.861 -0.0644  0.1985 -0.2465
21187SOL    HW175539   0.368   3.864   1.917 -0.5796  1.1770 -1.3462
21187SOL    HW275540   0.335   3.827   1.774  0.5540 -1.2676 -1.0140
21188SOL     OW75541   0.503   3.851   0.155  0.2481 -0.0663 -0.3830
21188SOL    HW175542   0.449   3.792   0.207  0.9454 -0.3564  0.0327
21188SOL    HW275543   0.527   3.801   0.077  2.3242 -1.0399  0.7944
21189SOL     OW75544   7.372   1.445   5.488 -0.1659  0.3901  0.1057
21189SOL    HW175545   7.343   1.536   5.502  1.0886  0.5731  1.8648
21189SOL    HW275546   7.341   1.398   5.565 -0.5698 -0.6307 -0.6676
21190SOL     OW75547   0.086   2.273   8.356  0.2610 -0.5455 -0.2393
21190SOL    HW175548   0.071   2.339   8.423  0.0701 -1.0879  0.2621
21190SOL    HW275549   0.169   2.232   8.379  0.4942 -0.3243 -0.6809
21191SOL     OW75550   7.259   1.476   4.822 -0.6778 -0.1237  0.1574
21191SOL    HW175551   7.175   1.521   4.806 -0.7523 -0.3310 -0.0372
21191SOL    HW275552   7.234   1.389   4.853 -0.5451  0.6021  2.4390
21192SOL     OW75553   8.948  10.182   8.399  0.0222 -0.1210 -0.1361
21192SOL    HW175554   8.992  10.247   8.452 -0.6432  1.1615 -1.1089
21192SOL    HW275555   8.977  10.098   8.435 -0.1709  0.6853  2.0347
21193SOL     OW75556   0.499   5.121   6.347  0.2891 -0.0381 -0.0655
21193SOL    HW175557   0.446   5.063   6.294 -0.5038 -2.2579  2.8923
21193SOL    HW275558   0.589   5.090   6.333  0.1248 -0.4298 -0.2750
21194SOL     OW75559   4.542   1.712   9.938  0.0108  0.2245 -0.4841
21194SOL    HW175560   4.480   1.743   9.873 -2.2958  0.3434  1.6412
21194SOL    HW275561   4.489   1.695  10.016  2.3076 -1.9562  0.7318
21195SOL     OW75562   7.464   3.742   6.169 -0.2438  0.4478  0.3641
21195SOL    HW175563   7.498   3.744   6.258 -0.6643 -0.1127  0.5411
21195SOL    HW275564   7.485   3.829   6.133 -0.7004  0.9292  1.2341
21196SOL     OW75565   3.620   6.990   2.877  0.2791 -0.2125  0.3510
21196SOL    HW175566   3.605   7.081   2.900 -0.9328 -0.3281  0.0816
21196SOL    HW275567   3.555   6.970   2.810  0.5912 -1.2485  0.3242
21197SOL     OW75568   1.081   7.637   5.944  0.7632  0.4409  0.7216
21197SOL    HW175569   1.129   7.706   5.989  2.9147 -1.0573  0.8758
21197SOL    HW275570   1.122   7.632   5.857 -1.5125  1.4462 -0.4952
21198SOL     OW75571   2.177   9.399   5.887 -0.1325 -0.1739  0.1623
21198SOL    HW175572   2.219   9.412   5.972 -0.3101  0.9863  0.0915
21198SOL    HW275573   2.093   9.443   5.895 -0.8665 -1.4968 -0.0766
21199SOL     OW75574   0.604   3.043   6.938  0.1739  0.3909  0.2573
21199SOL    HW175575   0.608   3.138   6.935  0.5676  0.3694  0.0086
21199SOL    HW275576   0.524   3.023   6.987 -0.3686  0.8351 -0.4422
21200SOL     OW75577   1.032   6.269   5.724 -0.9459 -0.0757 -0.0865
21200SOL    HW175578   1.048   6.356   5.688 -2.8559  0.8755  1.1677
21200SOL    HW275579   1.091   6.262   5.798  1.2496 -1.0700 -1.8003
21201SOL     OW75580   0.066   5.009   5.685 -0.2341 -0.2408 -0.0620
21201SOL    HW175581   0.150   5.039   5.649  0.3107  0.2775  1.5496
21201SOL    HW275582   0.008   5.004   5.609  1.1317 -0.1829 -1.1489
21202SOL     OW75583   1.805   7.399   2.853  0.4186  0.3636  0.4195
21202SOL    HW175584   1.816   7.359   2.767  0.5241  1.4862 -0.0973
21202SOL    HW275585   1.730   7.458   2.843 -0.4264 -0.4816  1.4680
21203SOL     OW75586   8.815  10.280   8.172  0.0117  0.2311 -0.1046
21203SOL    HW175587   8.856  10.235   8.247 -0.6175  0.7155  0.5449
21203SOL    HW275588   8.889  10.306   8.117  0.5491  0.5481  0.7433
21204SOL     OW75589   6.840   8.338   6.306 -0.4882  0.0913  0.8183
21204SOL    HW175590   6.778   8.265   6.302 -1.1944  0.6856  0.3370
21204SOL    HW275591   6.925   8.300   6.287 -0.7498 -0.7132  1.2569
21205SOL     OW75592  10.381   5.893   9.678  0.4956  0.1520  0.0847
21205SOL    HW175593  10.476   5.895   9.687  0.6502  1.3086 -1.3769
21205SOL    HW275594  10.353   5.980   9.706 -0.4099 -0.8494  2.5757
21206SOL     OW75595   1.458   9.468   7.516  0.5761 -0.3822 -0.1405
21206SOL    HW175596   1.474   9.400   7.451  0.9827  0.1441 -0.5930
21206SOL    HW275597   1.468   9.550   7.469  3.4663  0.1092  1.0873
21207SOL     OW75598   9.098   2.737   4.271  0.5752 -0.3012  0.2092
21207SOL    HW175599   9.137   2.652   4.292  3.4322  1.2641  1.8588
21207SOL    HW275600   9.167   2.784   4.225 -0.9908  1.1518 -0.7782
21208SOL     OW75601   3.121   4.732   7.944 -0.1946  0.0374 -1.0140
21208SOL    HW175602   3.044   4.782   7.974 -1.0464 -1.8137  0.0499
21208SOL    HW275603   3.093   4.692   7.862  0.5134  1.3025 -1.9045
21209SOL     OW75604   6.395   8.315   8.220 -0.5594  0.1670 -0.4387
21209SOL    HW175605   6.464   8.308   8.154 -0.0981 -0.0308  0.0560
21209SOL    HW275606   6.314   8.320   8.170 -0.1712  0.5844 -1.0346
21210SOL     OW75607   0.307   6.773   1.553  0.6344 -0.0864 -1.1009
21210SOL    HW175608   0.329   6.723   1.475 -1.6657  1.0863 -2.6105
21210SOL    HW275609   0.246   6.840   1.523 -1.2723 -0.2684  1.8536
21211SOL     OW75610   5.638   2.903   5.685 -0.0022 -0.3673 -0.5089
21211SOL    HW175611   5.634   2.812   5.653 -1.3942 -1.7055  3.0572
21211SOL    HW275612   5.623   2.896   5.779 -0.9947  3.7029 -0.2163
21212SOL     OW75613   6.922   9.987   6.963 -0.2914  0.0017  0.1569
21212SOL    HW175614   6.929   9.893   6.953 -0.2474 -0.4311  3.3591
21212SOL    HW275615   6.830  10.007   6.945  0.1232 -0.2273 -2.6749
21213SOL     OW75616   8.943   3.119   8.463 -0.5375 -0.1862 -0.3644
21213SOL    HW175617   8.962   3.213   8.466 -0.1200 -0.2883  0.5587
21213SOL    HW275618   8.999   3.085   8.394  3.6336 -0.6473  2.8279
21214SOL     OW75619   9.180   9.689   4.569  0.0822 -0.1026  0.3163
21214SOL    HW175620   9.227   9.642   4.637 -0.3309 -0.9792  0.0036
21214SOL    HW275621   9.236   9.684   4.491  0.7466  1.2496  0.6655
21215SOL     OW75622   1.724   1.069   4.583 -0.3311 -0.7621  0.6028
21215SOL    HW175623   1.630   1.086   4.580 -0.4740 -1.4582  0.8789
21215SOL    HW275624   1.736   1.018   4.663  0.0307 -2.1417 -0.3028
21216SOL     OW75625   6.713   2.841   7.000  0.0546 -0.0241 -0.3044
21216SOL    HW175626   6.806   2.849   6.978 -0.0258  0.6271 -0.4397
21216SOL    HW275627   6.700   2.906   7.069 -0.2724 -0.2039 -0.1987
21217SOL     OW75628   1.428   5.007   7.594  0.2760  0.1060  0.0975
21217SOL    HW175629   1.423   4.979   7.503  0.6127 -1.2801  0.4777
21217SOL    HW275630   1.522   5.017   7.611  0.2723 -0.4789  0.5135
21218SOL     OW75631   6.384   1.916   6.260  0.1375  0.3854  0.0647
21218SOL    HW175632   6.377   1.822   6.241 -3.5488  0.3668  0.6861
21218SOL    HW275633   6.433   1.952   6.186  2.2633 -2.0529  0.1444
21219SOL     OW75634   6.666   6.254   1.375  0.7129 -0.2536 -0.3562
21219SOL    HW175635   6.701   6.216   1.456  0.2945  0.0685 -0.0151
21219SOL    HW275636   6.712   6.208   1.305 -1.8668 -3.5605 -0.0884
21220SOL     OW75637   5.605   0.014   5.640  0.0404 -0.4044 -0.5758
21220SOL    HW175638   5.576   0.002   5.731 -0.2910  0.8631 -0.4835
21220SOL    HW275639   5.637  -0.072   5.613  0.2782 -0.7685  0.7869
21221SOL     OW75640   3.326   8.947   1.382 -0.0341 -0.3002  0.0593
21221SOL    HW175641   3.233   8.967   1.374 -0.0554 -0.7141 -0.8468
21221SOL    HW275642   3.339   8.872   1.324  0.8566 -0.2794  0.2248
21222SOL     OW75643   0.692   3.532   0.167 -0.2389  0.0978  0.2717
21222SOL    HW175644   0.715   3.605   0.111  1.0181 -0.9975 -0.7034
21222SOL    HW275645   0.726   3.556   0.254  0.0667  0.7083 -0.0118
21223SOL     OW75646   9.907   3.529   1.153  0.0584  0.0220 -0.2228
21223SOL    HW175647   9.934   3.478   1.229 -0.3045 -1.1292 -0.8468
21223SOL    HW275648   9.811   3.534   1.161 -0.1825 -1.6055 -1.4738
21224SOL     OW75649   6.812   5.799   7.134 -0.3158  0.4143  0.0948
21224SOL    HW175650   6.766   5.876   7.169 -4.4923 -2.1044  0.8114
21224SOL    HW275651   6.811   5.736   7.207  1.6565 -0.8768 -0.9189
21225SOL     OW75652   9.450   9.317   3.100 -0.6109  0.2408  0.3378
21225SOL    HW175653   9.387   9.245   3.104  1.3699 -1.6165  0.0011
21225SOL    HW275654   9.409   9.383   3.044 -1.9842 -1.1712 -0.3781
21226SOL     OW75655   6.813   6.271   8.498 -0.5086  0.1382  0.2898
21226SOL    HW175656   6.872   6.202   8.467 -0.9601  0.4953 -1.4559
21226SOL    HW275657   6.809   6.334   8.426 -2.0623  0.7298  0.8474
21227SOL     OW75658   1.108   8.529   5.323 -0.4849 -0.3050  0.7883
21227SOL    HW175659   1.149   8.466   5.382  1.8806  0.0780 -0.3400
21227SOL    HW275660   1.172   8.600   5.315 -1.9619  1.0036 -0.0240
21228SOL     OW75661   5.526   3.254   8.985 -0.0733  0.0851  0.3626
21228SOL    HW175662   5.505   3.332   9.037 -2.6079 -1.6342  2.1016
21228SOL    HW275663   5.589   3.206   9.039  1.1892  0.6876 -0.5326
21229SOL     OW75664   6.231   8.858   1.542  0.2855 -0.0122 -0.5847
21229SOL    HW175665   6.178   8.915   1.598 -1.3532  0.1262 -2.2187
21229SOL    HW275666   6.205   8.879   1.453  3.5017  0.4593 -1.5604
21230SOL     OW75667   1.301   1.597   1.627  0.0321  0.4697  0.1428
21230SOL    HW175668   1.217   1.558   1.602  0.3086 -0.5385  0.7621
21230SOL    HW275669   1.318   1.563   1.715  1.1142  0.6361  0.0042
21231SOL     OW75670   8.156   3.003   5.393  0.3712  0.3849  0.0956
21231SOL    HW175671   8.095   3.000   5.467  1.5382  1.1359  1.1118
21231SOL    HW275672   8.099   3.012   5.316 -0.8460 -0.1506  0.9069
21232SOL     OW75673   0.297   9.089  10.390 -0.0007  0.0129  0.2827
21232SOL    HW175674   0.284   9.181  10.370  0.3059 -0.1274 -0.6050
21232SOL    HW275675   0.228   9.067  10.452  0.2792  0.9812  0.9566
21233SOL     OW75676   7.764   8.120   4.434 -0.0426 -0.1006  0.3264
21233SOL    HW175677   7.846   8.070   4.437 -0.3045 -0.5820 -0.2778
21233SOL    HW275678   7.792   8.212   4.434  0.6003 -0.2462 -1.4743
21234SOL     OW75679   2.671   0.500   9.291  0.2834 -0.3859 -0.0249
21234SOL    HW175680   2.721   0.523   9.213 -0.4188 -0.5498 -0.5279
21234SOL    HW275681   2.677   0.577   9.347  0.9457 -0.3350 -0.1533
21235SOL     OW75682   8.025   6.014   7.305 -0.2086  0.5272 -0.0060
21235SOL    HW175683   8.106   6.015   7.356 -0.7717  1.1348  0.8905
21235SOL    HW275684   7.970   6.082   7.344 -1.0830  0.2612 -0.7294
21236SOL     OW75685   5.992   1.527   5.169 -0.4821  0.0962  0.1738
21236SOL    HW175686   5.941   1.491   5.097  0.3481 -0.0370 -0.3676
21236SOL    HW275687   5.979   1.466   5.242 -0.6403 -0.2323 -0.1316
21237SOL     OW75688   7.822   7.717   5.195 -0.4524 -0.0237  0.0899
21237SOL    HW175689   7.801   7.686   5.106 -1.0869  0.2733  0.1282
21237SOL    HW275690   7.737   7.719   5.240 -0.0031 -1.1957  1.0392
21238SOL     OW75691   7.252   1.086  10.172 -0.2365  0.3660 -0.2938
21238SOL    HW175692   7.275   1.178  10.166  0.5184  0.1458 -0.9991
21238SOL    HW275693   7.156   1.085  10.172 -0.2713  1.2024  0.9345
21239SOL     OW75694   9.698   4.806   2.796 -0.1316 -0.0599  0.0160
21239SOL    HW175695   9.767   4.765   2.744 -0.3194 -0.3373 -0.0158
21239SOL    HW275696   9.725   4.793   2.886  0.8593  1.5459  0.0005
21240SOL     OW75697   0.039   8.251   8.912  0.5629 -0.4250  0.1829
21240SOL    HW175698   0.084   8.177   8.872  2.8843  1.3304 -0.6729
21240SOL    HW275699   0.087   8.267   8.993 -0.8648 -0.7438  1.1214
21241SOL     OW75700   0.502   6.291   4.683 -0.0591  0.1774 -0.3006
21241SOL    HW175701   0.568   6.335   4.629  0.3962  1.2972  1.1031
21241SOL    HW275702   0.442   6.251   4.620  0.5023  1.3421 -1.6259
21242SOL     OW75703   3.449   7.272   4.936 -0.4624  0.5719 -0.2554
21242SOL    HW175704   3.404   7.199   4.978  0.1445  0.8848  0.9970
21242SOL    HW275705   3.381   7.319   4.890 -1.3484  0.7263  1.1407
21243SOL     OW75706   4.283   9.415   2.175 -0.0264  0.3023 -0.3563
21243SOL    HW175707   4.354   9.366   2.134  0.3836 -0.0100  0.6956
21243SOL    HW275708   4.291   9.503   2.138  0.2230 -0.0145 -1.0713
21244SOL     OW75709  10.206   2.251   9.852 -0.5332 -0.0887 -0.2870
21244SOL    HW175710  10.163   2.226   9.770 -1.5926  1.6772 -0.3290
21244SOL    HW275711  10.280   2.305   9.825  0.6168 -1.5213 -0.1298
21245SOL     OW75712   0.892   8.247   2.061  0.0614  0.2604 -0.4710
21245SOL    HW175713   0.984   8.271   2.067 -0.0214  0.3474  0.5575
21245SOL    HW275714   0.880   8.219   1.970  1.3119 -0.5863 -0.3938
21246SOL     OW75715   7.047   9.023   0.483  0.4239  0.0981  0.0854
21246SOL    HW175716   7.022   8.931   0.492  0.2866  0.1943  0.7301
21246SOL    HW275717   7.081   9.030   0.394  1.3050 -0.7871  0.3315
21247SOL     OW75718   4.673   7.485   8.799 -0.1471  0.3019  0.1497
21247SOL    HW175719   4.716   7.470   8.884 -0.0129  2.3575  0.4974
21247SOL    HW275720   4.672   7.399   8.758 -1.7557 -1.1764  2.9300
21248SOL     OW75721   7.135   7.043   6.743 -0.1743  0.0393  0.1508
21248SOL    HW175722   7.084   7.102   6.798 -2.3371 -1.2854 -0.2781
21248SOL    HW275723   7.174   6.980   6.805  2.6736  2.1112  0.6763
21249SOL     OW75724   0.341   2.334   2.346  0.2567  0.5973 -0.4491
21249SOL    HW175725   0.327   2.268   2.413 -1.1526 -0.2281 -1.4793
21249SOL    HW275726   0.335   2.285   2.263 -2.9104  2.2206 -1.3404
21250SOL     OW75727   7.839   3.783   7.201  0.2053 -0.0742 -0.4254
21250SOL    HW175728   7.776   3.805   7.132  0.6690  1.0780 -0.5091
21250SOL    HW275729   7.831   3.856   7.263 -0.3730 -1.2039  0.8792
21251SOL     OW75730   8.741   7.300   8.592 -0.0662 -0.0440  0.5460
21251SOL    HW175731   8.823   7.327   8.551 -0.1014  0.8216  1.0210
21251SOL    HW275732   8.768   7.257   8.674 -0.0229 -1.2812 -0.0896
21252SOL     OW75733   4.788  10.231   6.064  0.0442 -0.3733 -0.5313
21252SOL    HW175734   4.715  10.243   6.004  0.1969  1.7532 -0.3459
21252SOL    HW275735   4.747  10.195   6.143 -1.2810  2.7817  0.3807
21253SOL     OW75736   6.361   7.005   8.327  0.3279 -0.1144 -0.1778
21253SOL    HW175737   6.290   7.004   8.263 -0.4910  0.5749  0.6844
21253SOL    HW275738   6.342   6.931   8.385 -0.3616  0.7409  0.7288
21254SOL     OW75739   4.010   9.552   2.049 -0.0050  0.4484 -0.1965
21254SOL    HW175740   4.018   9.456   2.044 -1.1679  0.1151  2.4076
21254SOL    HW275741   4.098   9.582   2.068  0.0962 -0.3359  0.7086
21255SOL     OW75742   7.359   7.528   7.485 -0.2283 -0.0052  0.3662
21255SOL    HW175743   7.441   7.481   7.479 -0.5661 -0.4901 -0.6001
21255SOL    HW275744   7.326   7.509   7.573  0.7246  0.2651  0.7862
21256SOL     OW75745   8.746   4.704   5.222 -0.6851  0.0382  0.5653
21256SOL    HW175746   8.699   4.754   5.156 -3.5223 -2.4086  0.5312
21256SOL    HW275747   8.810   4.653   5.173 -0.5162  0.6675  0.1256
21257SOL     OW75748   9.879   1.597   7.519  0.6449 -0.3043  0.0279
21257SOL    HW175749   9.940   1.590   7.592 -0.6675 -1.3998  1.0982
21257SOL    HW275750   9.842   1.509   7.510 -3.0288  0.8714  1.5482
21258SOL     OW75751   0.021   4.188   8.065  0.1296 -0.2562 -0.3283
21258SOL    HW175752  -0.014   4.106   8.030 -1.0510  0.9592 -2.2056
21258SOL    HW275753   0.085   4.216   7.999 -0.8547  1.2320 -0.7007
21259SOL     OW75754   2.842  10.371   5.476  0.1881  0.4384 -0.3144
21259SOL    HW175755   2.826  10.377   5.571  0.4957  1.4899 -0.3098
21259SOL    HW275756   2.863  10.279   5.461 -1.3857 -0.0614  0.3851
21260SOL     OW75757   1.031   1.947   6.689 -0.1117  0.2053 -0.1396
21260SOL    HW175758   0.984   1.956   6.606  0.8553  1.3087 -0.6042
21260SOL    HW275759   1.123   1.939   6.663  0.1488  0.0791  0.8042
21261SOL     OW75760   7.684   1.180   9.583  1.0526 -0.0413  0.3280
21261SOL    HW175761   7.594   1.194   9.610  0.7893  0.9619 -0.9877
21261SOL    HW275762   7.723   1.267   9.580  1.1907 -0.1137 -1.9655
21262SOL     OW75763   5.589   1.587   8.800  0.2182  0.2450  0.0897
21262SOL    HW175764   5.539   1.526   8.746  0.0956  0.3808  0.0492
21262SOL    HW275765   5.589   1.668   8.751 -0.2087  0.4750  0.4599
21263SOL     OW75766   9.013   5.679   8.017 -0.0828  0.3507  0.8459
21263SOL    HW175767   9.054   5.741   8.077  0.7776 -1.1106  1.8383
21263SOL    HW275768   9.081   5.656   7.955 -0.6887  1.1266 -0.1206
21264SOL     OW75769   0.476   9.821   0.526  0.3317  0.2794  0.5700
21264SOL    HW175770   0.440   9.745   0.570  1.3225 -0.3526  0.3154
21264SOL    HW275771   0.565   9.795   0.502 -0.1275  0.6442 -1.6840
21265SOL     OW75772   6.098   8.780   0.523 -0.1877  0.0335 -0.5285
21265SOL    HW175773   6.098   8.831   0.442  0.4611  0.5309 -0.2342
21265SOL    HW275774   6.187   8.745   0.528 -0.1289  0.2644  0.1164
21266SOL     OW75775   2.492   5.854   9.588 -0.7996 -0.1618 -0.1479
21266SOL    HW175776   2.435   5.809   9.526 -1.9313 -0.7507  1.2544
21266SOL    HW275777   2.471   5.947   9.576 -0.7066 -0.2319 -0.9047
21267SOL     OW75778   9.082   2.950   8.983 -0.7260 -0.1790  0.0564
21267SOL    HW175779   9.021   2.930   8.912 -0.2623 -2.3335  0.1963
21267SOL    HW275780   9.162   2.977   8.938 -0.9787  0.2169 -0.1737
21268SOL     OW75781   2.386   7.573   6.340  0.1976 -0.3480 -0.9364
21268SOL    HW175782   2.386   7.556   6.246 -0.6978  0.8067 -1.1608
21268SOL    HW275783   2.312   7.631   6.355  0.3274 -0.4920  0.4903
21269SOL     OW75784   2.432   2.210   3.189  0.0764  0.1007  0.6101
21269SOL    HW175785   2.375   2.271   3.235  1.4950  0.5122  1.8953
21269SOL    HW275786   2.488   2.173   3.257 -0.0335 -1.8637 -0.2983
21270SOL     OW75787   3.645   6.766  10.296 -0.1677  0.9576 -0.6077
21270SOL    HW175788   3.661   6.764  10.390  0.4860  0.7652 -0.7203
21270SOL    HW275789   3.692   6.844  10.266  1.5315 -0.2148 -1.1065
21271SOL     OW75790   9.181   4.269   6.515  0.3264 -0.6883 -0.2523
21271SOL    HW175791   9.195   4.272   6.610 -0.8626 -0.1497 -0.0672
21271SOL    HW275792   9.267   4.280   6.477  0.8665 -1.2108  0.7714
21272SOL     OW75793   8.889   0.536   2.976 -0.4694  0.3550  0.5990
21272SOL    HW175794   8.940   0.618   2.982 -1.8301  1.1735  1.6119
21272SOL    HW275795   8.952   0.467   2.996  0.4390  1.2653  0.9771
21273SOL     OW75796  10.178   9.338   1.358  0.2002 -0.0859 -0.0950
21273SOL    HW175797  10.221   9.254   1.340 -1.2054 -0.6476 -1.0247
21273SOL    HW275798  10.144   9.365   1.273  2.8123  2.7734 -0.4153
21274SOL     OW75799   3.407   0.421   8.441 -0.0646  0.3728  0.3261
21274SOL    HW175800   3.397   0.457   8.529 -1.9357 -1.7243  1.0376
21274SOL    HW275801   3.322   0.384   8.419  1.4703 -3.1269 -0.5005
21275SOL     OW75802  10.012   2.945   2.129 -0.3309 -0.4586 -0.0647
21275SOL    HW175803   9.995   2.949   2.035  1.7289 -0.7833 -0.4889
21275SOL    HW275804  10.080   2.878   2.139 -0.3058 -0.2306  1.6334
21276SOL     OW75805   3.623   5.881   3.788 -0.4378 -0.1149  0.0437
21276SOL    HW175806   3.595   5.873   3.879 -0.4983  2.2860  0.2953
21276SOL    HW275807   3.705   5.930   3.792  0.2473 -1.1242 -1.1312
21277SOL     OW75808   7.380   0.696   6.179  0.4928  0.5220  0.0214
21277SOL    HW175809   7.340   0.694   6.265 -0.0102 -1.5159 -0.2288
21277SOL    HW275810   7.474   0.682   6.195  0.1990 -1.5716  0.1732
21278SOL     OW75811   4.835   0.628   8.106  0.2051 -0.4912  0.1134
21278SOL    HW175812   4.759   0.647   8.051 -0.0491  0.3063  0.7065
21278SOL    HW275813   4.810   0.663   8.192  1.2777 -0.1487  0.2952
21279SOL     OW75814   3.193   3.685   7.521  0.0264 -0.5078 -0.4509
21279SOL    HW175815   3.180   3.599   7.562  1.2685  0.2536  1.7002
21279SOL    HW275816   3.277   3.678   7.476  1.4862  0.2811  1.9704
21280SOL     OW75817   2.585   0.346   3.405  0.1358  0.1421  0.1189
21280SOL    HW175818   2.562   0.359   3.497 -2.2996 -1.8327 -0.1114
21280SOL    HW275819   2.554   0.258   3.384  1.9541 -0.0445 -2.2327
21281SOL     OW75820   7.652   7.891   4.606  0.3321 -0.5526  0.1844
21281SOL    HW175821   7.663   7.962   4.543 -2.0576 -0.3739 -0.1332
21281SOL    HW275822   7.660   7.933   4.691 -1.6980  0.2886  0.0072
21282SOL     OW75823   7.823   0.264   7.832  0.0448  0.6355  0.3485
21282SOL    HW175824   7.897   0.223   7.878  0.8165  0.9925 -0.5249
21282SOL    HW275825   7.812   0.211   7.753  0.5766  1.6463 -0.4338
21283SOL     OW75826   8.614   3.517   2.878 -0.1653 -0.3628 -0.1290
21283SOL    HW175827   8.677   3.490   2.811 -0.9197  1.3481 -1.5801
21283SOL    HW275828   8.529   3.499   2.840 -0.7369  3.4491 -1.0757
21284SOL     OW75829   7.924   9.256   4.244 -0.5396  0.5832 -0.1012
21284SOL    HW175830   7.830   9.242   4.239 -0.3122 -1.0021 -0.5080
21284SOL    HW275831   7.947   9.234   4.335 -0.3837 -0.4253 -0.3696
21285SOL     OW75832   9.871   0.739   2.775  0.2645  0.0903  0.0396
21285SOL    HW175833   9.895   0.805   2.840  3.1810  0.2143 -1.0350
21285SOL    HW275834   9.785   0.767   2.743 -0.3505  1.1019  2.3839
21286SOL     OW75835   7.655   4.990   5.553 -0.4314  0.5423 -0.3614
21286SOL    HW175836   7.727   5.036   5.509  0.0384  1.0906  0.9393
21286SOL    HW275837   7.692   4.961   5.636 -1.4462 -0.0284 -0.0958
21287SOL     OW75838   6.446   6.694   9.013  0.3766 -0.0902  0.6876
21287SOL    HW175839   6.438   6.688   9.108  1.1199 -0.9409  0.7040
21287SOL    HW275840   6.524   6.747   8.998  1.4429 -1.6482  0.5743
21288SOL     OW75841   4.393   4.938   9.462 -0.4135  0.3600  0.4101
21288SOL    HW175842   4.412   4.926   9.369  2.5659 -2.6749  1.2184
21288SOL    HW275843   4.316   4.882   9.478 -1.7232  1.8549 -0.3433
21289SOL     OW75844   2.752   0.423   7.991  0.2329  0.1654 -0.8579
21289SOL    HW175845   2.731   0.475   7.913 -0.5770  0.5208 -0.4112
21289SOL    HW275846   2.667   0.390   8.021  0.6751 -1.0182 -0.8458
21290SOL     OW75847   1.488   2.981   1.644  0.0418  0.1153 -0.4414
21290SOL    HW175848   1.485   2.923   1.721  1.4631  0.5676 -0.0177
21290SOL    HW275849   1.403   2.970   1.603 -0.4726 -0.7188  0.7826
21291SOL     OW75850   0.766   4.125   9.416 -1.1059 -0.3355  0.0310
21291SOL    HW175851   0.699   4.153   9.354 -0.4080 -0.5228 -0.8380
21291SOL    HW275852   0.790   4.204   9.463 -1.4127 -0.1227 -0.1655
21292SOL     OW75853   3.308   4.981   8.007 -0.1750 -0.3039 -0.1654
21292SOL    HW175854   3.253   4.912   7.970 -2.1794  1.8194 -1.5405
21292SOL    HW275855   3.382   4.987   7.947 -0.5122 -0.6134 -0.6261
21293SOL     OW75856   6.608   3.134   5.935  0.3052 -0.5564  0.0378
21293SOL    HW175857   6.553   3.128   5.857  0.9881 -0.5055 -0.4575
21293SOL    HW275858   6.619   3.044   5.963 -1.2212 -0.4810  1.0109
21294SOL     OW75859   1.047   2.987   1.770  0.0945  0.4662 -0.4403
21294SOL    HW175860   1.046   2.898   1.806  2.0664 -0.0691 -1.5671
21294SOL    HW275861   1.080   3.042   1.842 -0.7524  0.2519  0.1287
21295SOL     OW75862   8.178   8.265   6.478 -0.0758  0.6970 -0.4581
21295SOL    HW175863   8.189   8.194   6.541  0.0628  0.4257 -0.7865
21295SOL    HW275864   8.167   8.344   6.532 -0.6509  0.3693 -0.0874
21296SOL     OW75865   3.475   0.552   0.751  0.0538  0.3881  0.2664
21296SOL    HW175866   3.529   0.630   0.766  1.6031 -0.3131 -1.2473
21296SOL    HW275867   3.475   0.540   0.656 -0.3934 -1.2835  0.4315
21297SOL     OW75868   5.864   1.582   8.884 -0.2169  0.2236  0.4512
21297SOL    HW175869   5.771   1.584   8.859 -0.1635  0.2605  0.2550
21297SOL    HW275870   5.871   1.507   8.943  0.0502 -1.1601 -1.2414
21298SOL     OW75871   6.314   1.991   0.129  0.2596  0.1846 -1.0484
21298SOL    HW175872   6.241   2.032   0.082 -0.8035 -0.1103  0.3027
21298SOL    HW275873   6.349   2.060   0.185  0.8563  0.2473 -1.4872
21299SOL     OW75874   1.221   9.478   0.925  0.1938  0.6747 -0.2603
21299SOL    HW175875   1.252   9.518   1.006 -0.3876 -2.4466  1.6720
21299SOL    HW275876   1.143   9.528   0.902  1.6839  3.1237 -0.3217
21300SOL     OW75877   2.062   0.358   9.632 -0.0416 -0.2954  0.6866
21300SOL    HW175878   2.012   0.318   9.562 -0.4121  0.2058  0.6564
21300SOL    HW275879   2.148   0.316   9.629 -0.4074 -1.0396  0.6284
21301SOL     OW75880   3.033   0.712   1.883  0.0251 -0.0528  0.0187
21301SOL    HW175881   2.945   0.678   1.900 -0.8875  2.2145  0.2384
21301SOL    HW275882   3.070   0.653   1.818 -2.0855 -0.4504 -0.8961
21302SOL     OW75883   8.275   4.652   4.268  0.0738  0.3140 -0.4041
21302SOL    HW175884   8.199   4.709   4.263  0.2617  0.6054  0.0174
21302SOL    HW275885   8.247   4.571   4.225 -0.2613  0.6437 -0.8192
21303SOL     OW75886   7.998   3.200   5.507  0.4424  0.3046 -0.2859
21303SOL    HW175887   8.069   3.199   5.443  0.3060  0.3669 -0.4407
21303SOL    HW275888   8.012   3.280   5.557  1.0366 -0.1665  0.3219
21304SOL     OW75889   9.729   0.592   7.164  0.2326  0.2686 -0.0101
21304SOL    HW175890   9.747   0.680   7.132  0.0694  0.5032  0.5388
21304SOL    HW275891   9.760   0.534   7.094  2.0940  0.6902  0.4076
21305SOL     OW75892   0.015   4.073   8.925  0.0412  0.1455  0.5925
21305SOL    HW175893  -0.041   4.108   8.856  0.5423  0.5598  0.3947
21305SOL    HW275894  -0.046   4.044   8.993 -0.5614 -1.7296 -0.6740
21306SOL     OW75895   1.154   8.457   7.882 -0.1651  0.8303 -0.1097
21306SOL    HW175896   1.059   8.461   7.882 -0.2071  0.1015  0.5645
21306SOL    HW275897   1.180   8.502   7.963  0.1538  2.3558 -1.0172
21307SOL     OW75898   4.835   8.039   3.521  0.1874 -0.4103  0.1873
21307SOL    HW175899   4.766   8.084   3.570  1.0415  0.9717  0.1815
21307SOL    HW275900   4.797   7.954   3.498 -0.9975 -0.2279  1.3724
21308SOL     OW75901   0.790   2.428   1.127  0.4056  0.5232 -0.0976
21308SOL    HW175902   0.755   2.416   1.039  0.7650  1.7260 -0.4134
21308SOL    HW275903   0.847   2.352   1.141  1.1800  0.8494 -1.3226
21309SOL     OW75904   0.922   7.065   5.378  0.2378  0.0783  0.0542
21309SOL    HW175905   1.002   7.104   5.414  0.0931 -0.6509  1.2398
21309SOL    HW275906   0.861   7.138   5.372  0.7065  0.4745  0.0011
21310SOL     OW75907   3.831   2.463   5.519 -0.2780 -0.1208 -0.0432
21310SOL    HW175908   3.827   2.381   5.569  1.8895 -0.9740 -1.1354
21310SOL    HW275909   3.840   2.435   5.428 -0.1304  1.3495 -0.5053
21311SOL     OW75910   2.047   5.642   9.363  0.6330 -0.0589 -0.3637
21311SOL    HW175911   1.994   5.578   9.316  0.4415 -0.3109  0.1892
21311SOL    HW275912   2.030   5.625   9.456 -1.2242  2.2701 -0.1841
21312SOL     OW75913   1.149   9.393   5.371  0.3292  0.3807 -0.3207
21312SOL    HW175914   1.231   9.386   5.323  0.7202  2.2975  0.0033
21312SOL    HW275915   1.137   9.306   5.411  3.5749  0.7309  1.7655
21313SOL     OW75916   5.977   7.333   4.913  0.1234  0.0522 -0.3386
21313SOL    HW175917   5.888   7.300   4.923  0.0391  0.3125 -0.2451
21313SOL    HW275918   6.019   7.311   4.997 -0.5234  2.0403  0.5705
21314SOL     OW75919   2.530   0.897   2.084 -0.0660 -0.1640 -0.0605
21314SOL    HW175920   2.441   0.866   2.101 -0.4387  0.5296 -0.7026
21314SOL    HW275921   2.585   0.847   2.144 -0.6960 -1.7363 -0.7575
21315SOL     OW75922   7.236   2.014   4.189  0.2876 -0.5088 -0.9164
21315SOL    HW175923   7.249   1.992   4.097  0.2683 -0.9016 -0.8272
21315SOL    HW275924   7.248   1.931   4.235 -1.9197 -0.7911 -0.7588
21316SOL     OW75925   4.529   3.039   0.412 -0.3469  0.2969 -0.0510
21316SOL    HW175926   4.595   3.077   0.469  0.1052  0.3347 -0.5957
21316SOL    HW275927   4.560   2.951   0.394 -0.2711  0.4297 -0.5817
21317SOL     OW75928   8.090   5.925   6.641  0.3335 -0.3376  0.0337
21317SOL    HW175929   8.044   5.897   6.720  1.6182 -2.8267  0.0172
21317SOL    HW275930   8.181   5.936   6.669  0.6109 -0.1980 -0.8911
21318SOL     OW75931   1.884   8.560  10.235  0.1099 -0.4254  0.1710
21318SOL    HW175932   1.858   8.470  10.255 -1.9283  0.2100  0.6841
21318SOL    HW275933   1.957   8.578  10.294 -0.4605 -1.2761  1.1641
21319SOL     OW75934   0.085   2.204   9.023 -0.5270 -0.4642 -0.2300
21319SOL    HW175935   0.154   2.267   9.046  0.4512 -1.0609 -1.4013
21319SOL    HW275936   0.132   2.133   8.978 -2.0121 -0.3758 -2.0549
21320SOL     OW75937   5.155   7.311   2.413  0.1405 -0.4353 -0.0306
21320SOL    HW175938   5.153   7.395   2.367  0.1469 -0.1595  0.4582
21320SOL    HW275939   5.119   7.331   2.500  0.8304 -0.7828  0.3373
21321SOL     OW75940   3.195   6.112   2.460 -0.1375 -0.1690  0.3609
21321SOL    HW175941   3.252   6.047   2.419  0.0264 -0.4590  1.0375
21321SOL    HW275942   3.117   6.115   2.404  0.6280  0.4078 -0.7071
21322SOL     OW75943   8.983   8.210   7.326  0.0922  0.1334 -0.1654
21322SOL    HW175944   8.912   8.254   7.280  1.3578  0.4515 -1.9292
21322SOL    HW275945   9.037   8.172   7.256  0.3587 -2.2199  1.1964
21323SOL     OW75946   4.526   5.153   8.223 -0.0322 -0.0999 -0.0614
21323SOL    HW175947   4.438   5.153   8.186  0.0580 -1.2469 -0.3086
21323SOL    HW275948   4.540   5.063   8.251  1.3120 -0.0869 -0.6224
21324SOL     OW75949   1.438   8.065   2.317 -0.9382  0.4787 -0.3777
21324SOL    HW175950   1.438   8.126   2.391 -2.0176 -1.4095  1.2828
21324SOL    HW275951   1.528   8.067   2.283 -0.2043  0.7899  1.4988
21325SOL     OW75952   4.968   9.291   1.337  0.5254  0.3630  0.2865
21325SOL    HW175953   4.966   9.383   1.313 -0.4962  0.7273  1.6780
21325SOL    HW275954   4.998   9.290   1.428 -1.2360 -0.5058  0.8998
21326SOL     OW75955   2.275   3.240   2.046  0.3889  0.5802  0.3235
21326SOL    HW175956   2.328   3.296   2.103  0.7824  0.1915  0.3563
21326SOL    HW275957   2.271   3.286   1.962  2.5658 -0.3087 -0.3523
21327SOL     OW75958   8.764  10.249   4.785  0.2650 -0.2914 -0.3243
21327SOL    HW175959   8.679  10.207   4.773 -0.2753 -0.1801  2.5065
21327SOL    HW275960   8.764  10.322   4.723 -0.9618 -1.2874 -1.5593
21328SOL     OW75961   0.211   3.337   1.224  0.4655  0.3838 -0.1589
21328SOL    HW175962   0.157   3.394   1.169  0.5492  0.5922 -0.0274
21328SOL    HW275963   0.301   3.359   1.200  0.4959 -0.2668 -0.6868
21329SOL     OW75964   0.176   3.216   6.618 -0.2306  0.0852 -0.4189
21329SOL    HW175965   0.178   3.132   6.664  0.8262 -1.7545 -3.5121
21329SOL    HW275966   0.267   3.232   6.594 -0.8844 -0.4474 -3.8913
21330SOL     OW75967   6.796   8.218   1.316 -0.1134  0.1855  0.4660
21330SOL    HW175968   6.841   8.134   1.325 -3.3373 -1.6828  1.0899
21330SOL    HW275969   6.812   8.263   1.399  3.6333  1.4483 -0.7594
21331SOL     OW75970   1.171   9.231   5.050 -0.1897 -0.0147 -0.3088
21331SOL    HW175971   1.084   9.257   5.080  0.1740  3.3210 -1.7301
21331SOL    HW275972   1.231   9.284   5.103  0.9108 -0.9481 -0.5894
21332SOL     OW75973   2.480   0.905   4.256 -0.6231 -0.1311  0.1437
21332SOL    HW175974   2.492   1.000   4.249  0.4071 -0.2244  0.4452
21332SOL    HW275975   2.554   0.876   4.310  0.2815 -1.3933 -1.7029
21333SOL     OW75976   2.842   9.072   9.096 -0.0955 -0.3185  0.0604
21333SOL    HW175977   2.798   9.036   9.173 -0.5855  1.1469  0.5114
21333SOL    HW275978   2.845   9.000   9.034 -0.1108 -1.4112  1.2681
21334SOL     OW75979   8.202   8.006   1.416  0.2692  0.2029  0.0522
21334SOL    HW175980   8.158   8.035   1.496 -0.2494 -1.0804  0.2547
21334SOL    HW275981   8.131   7.972   1.361  0.5543  1.4996 -1.1728
21335SOL     OW75982   6.416   3.648   5.997  0.1593 -0.5102 -0.0511
21335SOL    HW175983   6.424   3.573   5.937  0.5771 -1.7840  1.5220
21335SOL    HW275984   6.368   3.613   6.072  1.8522  0.2910  1.4822
21336SOL     OW75985   8.350   1.737   3.388  0.1908  0.3940  0.1588
21336SOL    HW175986   8.370   1.826   3.416 -1.4809  0.1762  2.3111
21336SOL    HW275987   8.260   1.723   3.417  0.4857 -2.0815  0.0634
21337SOL     OW75988   8.075   7.937   9.133  0.3155 -0.3116  0.3958
21337SOL    HW175989   8.038   8.019   9.101  1.5977  0.4524  0.7746
21337SOL    HW275990   8.012   7.870   9.107 -0.8291  0.8060  0.2074
21338SOL     OW75991   7.517   4.786   1.265 -0.3909 -0.5448 -0.2040
21338SOL    HW175992   7.502   4.692   1.274  1.3159 -0.6688  2.3295
21338SOL    HW275993   7.461   4.825   1.332 -0.5889  0.2236 -0.8030
21339SOL     OW75994   7.148   9.997   0.216 -0.2750  0.2369 -0.6125
21339SOL    HW175995   7.057   9.999   0.246  0.4397  0.8644  1.6984
21339SOL    HW275996   7.199   9.977   0.294  1.6553  0.7291 -1.6822
21340SOL     OW75997   6.762   8.358   8.071 -0.5055 -0.7842 -0.5675
21340SOL    HW175998   6.845   8.324   8.038  0.6620  0.2275  1.2112
21340SOL    HW275999   6.775   8.366   8.165 -2.7620 -0.9153 -0.1938
21341SOL     OW76000   9.525   6.392   0.545 -0.2414 -0.4740  0.1084
21341SOL    HW176001   9.461   6.436   0.488 -0.6346 -0.7641  0.3181
21341SOL    HW276002   9.565   6.462   0.596 -1.3597 -0.4135  0.9347
21342SOL     OW76003   3.840   8.710   7.794  0.6899 -0.1150 -0.3589
21342SOL    HW176004   3.848   8.690   7.887  0.0346  0.8984 -0.0669
21342SOL    HW276005   3.930   8.720   7.763  0.9170 -0.6789  0.1086
21343SOL     OW76006   6.097   4.982   8.779  0.6233 -0.2087 -0.8159
21343SOL    HW176007   6.077   4.914   8.843  0.9176  0.7642  0.3309
21343SOL    HW276008   6.176   4.950   8.735  0.9099 -0.5023 -0.1084
21344SOL     OW76009   5.880   9.540   6.969 -0.1697 -0.1188  0.2410
21344SOL    HW176010   5.936   9.519   7.044 -1.7265  0.9352  1.7823
21344SOL    HW276011   5.903   9.629   6.945  0.1207 -0.3512 -0.3648
21345SOL     OW76012   1.857   5.876  10.349  0.1629 -0.1344 -0.4616
21345SOL    HW176013   1.842   5.783  10.334 -0.1628 -0.0776 -0.5154
21345SOL    HW276014   1.885   5.910  10.264 -0.5618 -0.0263 -0.6649
21346SOL     OW76015   8.154   7.134   3.050  0.6399  0.1411 -0.0192
21346SOL    HW176016   8.159   7.195   2.976  0.1415 -0.0986 -0.2548
21346SOL    HW276017   8.061   7.116   3.059  0.7254 -0.0336  0.5050
21347SOL     OW76018   3.297   3.903   5.131 -0.1685  0.2890  0.0026
21347SOL    HW176019   3.301   3.807   5.130  0.3262  0.3089 -0.2680
21347SOL    HW276020   3.350   3.929   5.206 -1.9586  0.2922  1.3150
21348SOL     OW76021   5.727   8.230   6.043 -0.1445 -0.0586 -0.3631
21348SOL    HW176022   5.702   8.315   6.007 -0.6651  0.3254  0.8474
21348SOL    HW276023   5.716   8.240   6.138 -0.8425 -1.6824 -0.2483
21349SOL     OW76024   9.663   8.523   0.758 -0.3903  0.0720  0.2313
21349SOL    HW176025   9.700   8.503   0.844 -0.2109 -0.2441  0.0862
21349SOL    HW276026   9.737   8.512   0.698 -0.8663 -1.2261 -0.1514
21350SOL     OW76027   5.739  10.342   3.036 -0.3094 -0.3000 -0.4881
21350SOL    HW176028   5.827  10.317   3.006  0.1813 -0.6306  1.1350
21350SOL    HW276029   5.683  10.270   3.006  0.3013 -1.0146  0.0391
21351SOL     OW76030   7.082   1.635   6.465 -0.3354 -0.4424 -0.6941
21351SOL    HW176031   7.127   1.720   6.465  0.4121 -0.8284 -1.2282
21351SOL    HW276032   7.017   1.643   6.535  1.4145 -0.2975  1.0058
21352SOL     OW76033   3.083   5.102   7.868 -0.3275  0.8189 -0.3230
21352SOL    HW176034   3.162   5.085   7.919 -1.0112 -0.5718  0.3245
21352SOL    HW276035   3.115   5.115   7.778  0.6544  0.4209 -0.0407
21353SOL     OW76036   0.712   6.320   7.596  0.4042  0.0080 -0.1498
21353SOL    HW176037   0.671   6.356   7.675 -0.8532  1.1175 -1.2715
21353SOL    HW276038   0.694   6.384   7.528  3.4577  0.2275 -0.8933
21354SOL     OW76039   0.762   4.893   2.013  0.4645 -0.1144  0.4055
21354SOL    HW176040   0.808   4.945   1.947 -0.9092  2.9333  1.6583
21354SOL    HW276041   0.822   4.892   2.088  0.1189  0.4609  0.6924
21355SOL     OW76042   4.494   8.481   2.541  0.3034 -0.0170 -0.7965
21355SOL    HW176043   4.480   8.399   2.589 -2.9885  0.5158 -0.5721
21355SOL    HW276044   4.479   8.457   2.449 -0.7301  0.3131 -0.7237
21356SOL     OW76045   3.593   1.051  10.256 -0.3481  0.5321  0.4616
21356SOL    HW176046   3.531   1.108  10.209 -0.3756 -1.0399 -1.5476
21356SOL    HW276047   3.539   1.002  10.317 -0.4329  2.0473  1.6667
21357SOL     OW76048   3.782   0.882   7.483  0.4120  0.0694  0.0830
21357SOL    HW176049   3.817   0.970   7.465 -1.9809  1.2881  0.9059
21357SOL    HW276050   3.704   0.876   7.428  0.6999 -1.6920 -0.1711
21358SOL     OW76051   6.255   1.720   9.080  0.3620  0.0158 -0.1268
21358SOL    HW176052   6.164   1.750   9.075 -0.3022 -1.9836 -1.0036
21358SOL    HW276053   6.286   1.753   9.165 -0.4234  2.6206 -0.7574
21359SOL     OW76054   7.462   6.650   1.922 -0.2087 -0.2698 -0.1606
21359SOL    HW176055   7.480   6.615   1.835 -0.0383 -0.7842  0.0831
21359SOL    HW276056   7.522   6.724   1.931  1.5525 -1.7214  0.4900
21360SOL     OW76057   1.265   2.023   8.754  0.1058 -0.7701 -0.2809
21360SOL    HW176058   1.181   2.013   8.800  0.2503 -0.9127 -0.0470
21360SOL    HW276059   1.331   2.013   8.822  0.3035  1.4710 -0.0601
21361SOL     OW76060   0.602   1.714   2.426 -0.2192  0.3235  0.1479
21361SOL    HW176061   0.644   1.771   2.491  0.1215 -0.8983  1.0223
21361SOL    HW276062   0.515   1.697   2.461  0.1790 -0.8299  0.5948
21362SOL     OW76063   0.965   5.506   7.710  0.5817 -0.1534  0.4644
21362SOL    HW176064   1.045   5.514   7.762 -0.0546  0.4708  1.3618
21362SOL    HW276065   0.905   5.458   7.766 -0.7941  2.2150  1.1745
21363SOL     OW76066   2.021   2.013   2.060  0.1116 -0.3618  0.8101
21363SOL    HW176067   2.083   1.957   2.014 -0.3763  0.5199 -0.9816
21363SOL    HW276068   1.946   2.019   2.002 -0.6344  0.6019  1.8283
21364SOL     OW76069   7.528   8.157   0.607  0.1179 -0.1165 -0.3719
21364SOL    HW176070   7.581   8.087   0.568 -0.0977  0.3439 -1.5315
21364SOL    HW276071   7.507   8.125   0.695  0.4346 -1.2967 -0.7098
21365SOL     OW76072   1.714   8.441   7.987  0.2707 -0.0536  0.5645
21365SOL    HW176073   1.810   8.446   7.993  0.2350 -0.6921  1.9238
21365SOL    HW276074   1.698   8.364   7.933  0.5094  1.0682 -1.2069
21366SOL     OW76075   6.893   8.261   2.167  0.0499  0.0700  0.2712
21366SOL    HW176076   6.941   8.226   2.092  2.1009  0.8482  1.1284
21366SOL    HW276077   6.805   8.276   2.134  0.5305 -0.8520 -1.5923
21367SOL     OW76078   0.821   2.879   5.946  0.1803 -0.7572 -0.0494
21367SOL    HW176079   0.837   2.788   5.919  0.1199 -0.7831  0.0021
21367SOL    HW276080   0.846   2.931   5.869  0.0077 -0.8310 -0.1566
21368SOL     OW76081   2.142   4.141   8.260 -0.5976  0.3906 -0.2679
21368SOL    HW176082   2.233   4.170   8.269 -1.0995  1.7386  0.9014
21368SOL    HW276083   2.132   4.121   8.167  1.0893 -0.5224 -0.2957
21369SOL     OW76084   8.097   8.921   4.028 -0.2590 -0.2733 -0.1762
21369SOL    HW176085   8.139   8.940   4.111 -2.8530 -0.4572  1.2731
21369SOL    HW276086   8.024   8.983   4.022 -1.3689 -1.6000 -1.3057
21370SOL     OW76087   0.838   3.703   3.129  0.3736 -0.4818 -0.1191
21370SOL    HW176088   0.814   3.792   3.105  0.7013 -0.5780 -0.8328
21370SOL    HW276089   0.821   3.698   3.223 -2.6490 -0.6028 -0.5571
21371SOL     OW76090   3.109   9.130   2.869  0.0286  0.1898  0.3996
21371SOL    HW176091   3.086   9.220   2.849 -0.5344 -0.2353 -0.9618
21371SOL    HW276092   3.194   9.117   2.826  1.2338  0.6915  2.4519
21372SOL     OW76093   8.954   9.090   0.890  0.1895 -0.4084  0.0050
21372SOL    HW176094   9.016   9.069   0.960  1.7260 -0.5552 -1.3309
21372SOL    HW276095   8.916   9.174   0.916 -0.7570 -1.3709  1.9460
21373SOL     OW76096   2.312   2.317   5.411 -0.0134  0.2252  0.5779
21373SOL    HW176097   2.316   2.321   5.507  0.0279 -0.6618  0.6231
21373SOL    HW276098   2.219   2.304   5.392  0.2527 -2.1651  0.6407
21374SOL     OW76099   7.256   2.529   6.557 -0.8081  0.2883  0.1052
21374SOL    HW176100   7.187   2.471   6.591  0.6887 -1.4076  0.3835
21374SOL    HW276101   7.336   2.478   6.566  0.4784  2.1637 -0.3491
21375SOL     OW76102   6.054   5.980   5.597  0.8945 -0.4749  0.0676
21375SOL    HW176103   6.001   5.977   5.676 -2.1858 -1.8043 -1.8512
21375SOL    HW276104   6.062   6.073   5.576  0.9729 -0.1647  1.4335
21376SOL     OW76105   2.190   2.534   4.094 -0.3280 -0.3167  0.0334
21376SOL    HW176106   2.108   2.564   4.054  0.7765 -1.4879 -3.4512
21376SOL    HW276107   2.190   2.439   4.080  1.9284 -0.2540 -0.6885
21377SOL     OW76108   4.184  10.371   5.531 -0.1768 -0.2157  0.0506
21377SOL    HW176109   4.096  10.400   5.507 -0.0859  1.1012  1.1666
21377SOL    HW276110   4.198  10.405   5.620  2.7275  2.6885 -1.2958
21378SOL     OW76111   4.697   6.541   9.323  0.1982  0.2189  0.3215
21378SOL    HW176112   4.669   6.541   9.231  0.3105  0.9252  0.2844
21378SOL    HW276113   4.749   6.461   9.332 -0.2368 -0.1220 -0.0938
21379SOL     OW76114   2.334   7.749   3.394  0.2545  0.5686  0.2206
21379SOL    HW176115   2.384   7.735   3.314  0.5137  0.9000  0.3213
21379SOL    HW276116   2.341   7.843   3.411  0.1945  0.5023  0.6265
21380SOL     OW76117   1.960   9.216   2.373  0.1477  0.0168  0.6981
21380SOL    HW176118   1.875   9.220   2.417  0.6813  3.3241  1.7291
21380SOL    HW276119   2.007   9.147   2.418 -1.4083 -0.7376  1.2313
21381SOL     OW76120   6.661   4.537   8.687  0.4051  0.1534  0.0058
21381SOL    HW176121   6.709   4.467   8.731  0.5042  0.9090  1.1499
21381SOL    HW276122   6.603   4.573   8.754 -2.1984 -1.0465 -1.4424
21382SOL     OW76123   8.625   0.035   6.133 -0.5101 -0.1973 -1.1387
21382SOL    HW176124   8.575  -0.033   6.179  0.3026  0.5796  0.9954
21382SOL    HW276125   8.593   0.031   6.043 -3.5101 -0.5493 -0.1526
21383SOL     OW76126   6.379   4.297   6.471 -0.0984  0.4336  0.1140
21383SOL    HW176127   6.338   4.248   6.542 -0.2775 -0.5035 -0.6102
21383SOL    HW276128   6.324   4.374   6.460 -0.3330  0.3524  0.6831
21384SOL     OW76129   6.007   0.293   1.181 -0.3180 -0.3901  1.1165
21384SOL    HW176130   6.000   0.200   1.160  0.9024 -0.4262  0.7853
21384SOL    HW276131   6.098   0.316   1.160 -1.3107  1.5666 -1.7124
21385SOL     OW76132   9.156   0.477   3.299  0.4250 -0.0016 -0.0941
21385SOL    HW176133   9.128   0.569   3.295  1.4681  0.3048 -1.1155
21385SOL    HW276134   9.195   0.468   3.386  0.3205  0.5348  0.0139
21386SOL     OW76135   8.735   7.566   3.405  0.6126  0.7416 -0.1550
21386SOL    HW176136   8.815   7.513   3.414  0.8677  1.1166 -0.2025
21386SOL    HW276137   8.752   7.643   3.458  0.4426  1.0131 -0.4950
21387SOL     OW76138  10.133   5.701   6.903  0.3587 -0.3405 -0.1377
21387SOL    HW176139  10.215   5.691   6.952 -1.0824 -0.0840  2.4977
21387SOL    HW276140  10.133   5.627   6.841  0.7908 -2.7575  2.5449
21388SOL     OW76141   8.613   5.016   0.893 -0.7087  0.2006 -0.1832
21388SOL    HW176142   8.640   5.107   0.880 -0.4804  0.2778  0.7856
21388SOL    HW276143   8.519   5.021   0.907 -0.4581  0.4838  1.5554
21389SOL     OW76144   7.093   5.796   0.658  0.5172  0.3276  0.3144
21389SOL    HW176145   7.034   5.870   0.640  1.3706  0.7821 -0.7258
21389SOL    HW276146   7.177   5.823   0.621  1.0439 -0.8539  0.6057
21390SOL     OW76147   7.538   3.532   1.219  0.5192 -0.0657 -0.4546
21390SOL    HW176148   7.524   3.517   1.312 -2.6098  1.0725 -0.6447
21390SOL    HW276149   7.559   3.626   1.213 -1.0697  0.2765 -0.9996
21391SOL     OW76150   9.876   0.505   2.243  0.1049  0.3660  0.0807
21391SOL    HW176151   9.926   0.575   2.286 -0.5899  0.0330  1.4470
21391SOL    HW276152   9.785   0.526   2.260 -0.3611  1.3294 -2.9574
21392SOL     OW76153   6.655  10.079   6.967  0.0947 -0.4565 -0.1781
21392SOL    HW176154   6.610  10.046   6.889 -1.2867  1.6375 -0.3437
21392SOL    HW276155   6.590  10.133   7.011  1.3525 -0.3186  1.6069
21393SOL     OW76156  10.197   9.429   8.156  0.1366  0.2452 -0.3679
21393SOL    HW176157  10.259   9.466   8.218 -0.6373 -1.7579  1.7339
21393SOL    HW276158  10.116   9.477   8.172  0.6796  1.8466 -2.0839
21394SOL     OW76159   3.142   3.882   0.293  0.6334 -0.2841 -0.3972
21394SOL    HW176160   3.083   3.881   0.369  1.7518  0.2479  0.5114
21394SOL    HW276161   3.105   3.947   0.234  0.2947  0.0158  0.1419
21395SOL     OW76162   5.046   5.478   0.886 -0.1061 -0.6699 -0.0587
21395SOL    HW176163   4.960   5.488   0.929  0.4699  0.8195  0.8269
21395SOL    HW276164   5.096   5.423   0.946 -0.5472 -1.9037 -0.7844
21396SOL     OW76165   2.711   7.271   7.624 -0.5797  0.5668 -0.4382
21396SOL    HW176166   2.701   7.354   7.669 -3.0601  0.5629 -0.8120
21396SOL    HW276167   2.623   7.251   7.591 -0.5902 -3.2102  1.3870
21397SOL     OW76168   2.339   1.176   9.845 -0.3648  0.6761 -0.3003
21397SOL    HW176169   2.403   1.167   9.775  0.5175  1.3634  0.3903
21397SOL    HW276170   2.375   1.245   9.902 -0.8738 -0.0877  1.0046
21398SOL     OW76171   6.644   2.043   7.403 -0.2895 -0.1057  0.3502
21398SOL    HW176172   6.621   2.074   7.316 -0.1707 -0.0670  0.3338
21398SOL    HW276173   6.604   2.107   7.463  1.6135  1.2296  0.2983
21399SOL     OW76174   6.748   1.157   6.369  0.5148 -0.5094 -0.3880
21399SOL    HW176175   6.812   1.098   6.409  0.8579 -0.6992 -1.1826
21399SOL    HW276176   6.685   1.098   6.328  0.4490 -0.3216 -0.5550
21400SOL     OW76177   3.906   1.624   3.810 -0.5722  0.5529 -0.1077
21400SOL    HW176178   3.820   1.604   3.846 -0.1590  0.2042  0.7080
21400SOL    HW276179   3.922   1.556   3.744 -0.6203  0.2004  0.2441
21401SOL     OW76180   1.824   9.004   9.364  0.3376  0.0505 -0.0304
21401SOL    HW176181   1.858   9.074   9.308  2.1635 -0.3015  0.5595
21401SOL    HW276182   1.793   8.938   9.302 -1.1848  1.2222 -0.5989
21402SOL     OW76183   5.817   0.970   7.055  0.3638  0.0637  0.0499
21402SOL    HW176184   5.784   0.994   6.968  0.5093 -0.2456 -0.0914
21402SOL    HW276185   5.738   0.956   7.107  0.2763  0.4246  0.0148
21403SOL     OW76186   8.666   2.102   2.367 -0.4294 -0.2336  0.0529
21403SOL    HW176187   8.698   2.031   2.422 -1.6291  0.1577  1.3549
21403SOL    HW276188   8.738   2.123   2.308  0.3863 -1.6609  0.5153
21404SOL     OW76189   0.114   0.147   3.889 -0.7265 -0.1124  0.3484
21404SOL    HW176190   0.039   0.134   3.832 -1.7207 -0.0581  1.6071
21404SOL    HW276191   0.185   0.173   3.830 -1.9713  0.9298 -0.7389
21405SOL     OW76192   2.219   9.289   1.858 -0.1771  0.3291  0.2778
21405SOL    HW176193   2.297   9.239   1.834 -1.5413 -2.0269  0.4327
21405SOL    HW276194   2.202   9.266   1.949 -1.4384  0.1638  0.0332
21406SOL     OW76195   1.373   8.474   1.716  0.3151  0.5119  0.2919
21406SOL    HW176196   1.424   8.544   1.674 -1.6508  2.3553  0.7843
21406SOL    HW276197   1.387   8.488   1.810 -0.7543  0.8091  0.4199
21407SOL     OW76198   0.087   3.150   4.277 -0.2174 -0.2658 -0.0174
21407SOL    HW176199   0.044   3.065   4.263 -1.3108 -0.0654  1.8408
21407SOL    HW276200   0.172   3.127   4.316  0.7158 -0.5805 -2.0964
21408SOL     OW76201   6.498   7.543   7.398 -0.0556 -0.6843 -0.0902
21408SOL    HW176202   6.483   7.502   7.313  0.3296 -3.1068  0.9384
21408SOL    HW276203   6.568   7.606   7.382  0.8295 -1.9235 -1.3695
21409SOL     OW76204   9.334   6.814   8.545 -0.4604 -0.3285  0.1570
21409SOL    HW176205   9.416   6.766   8.539 -0.9590 -1.1958  0.0892
21409SOL    HW276206   9.266   6.746   8.542 -1.2994  0.4915 -2.4448
21410SOL     OW76207   4.254   2.201   5.056  0.4073  0.4126 -0.2207
21410SOL    HW176208   4.217   2.151   5.128  0.6725 -0.1560 -0.4724
21410SOL    HW276209   4.326   2.251   5.095 -1.3789  2.5684  0.5651
21411SOL     OW76210  10.391   4.253   0.894  0.1848 -0.1388  0.3022
21411SOL    HW176211  10.314   4.240   0.949 -0.8212  0.4109 -0.9107
21411SOL    HW276212  10.399   4.171   0.845  0.6125 -0.3433  0.7141
21412SOL     OW76213   5.766   0.457   4.836  0.2582 -0.0141 -0.5453
21412SOL    HW176214   5.723   0.472   4.752  0.4736  0.4983 -0.5673
21412SOL    HW276215   5.714   0.508   4.898  1.1388  1.0601 -0.6578
21413SOL     OW76216   8.159   8.010   0.959 -0.0527 -0.1684  0.0269
21413SOL    HW176217   8.253   8.025   0.955  0.1022 -0.9667  0.4445
21413SOL    HW276218   8.141   7.948   0.889 -0.6337  1.6189 -1.4698
21414SOL     OW76219   7.678   2.740   7.303  0.3309 -0.5349 -0.2527
21414SOL    HW176220   7.641   2.652   7.314 -1.6812  0.3847  1.0974
21414SOL    HW276221   7.771   2.726   7.288 -0.0685 -2.9139 -0.8834
21415SOL     OW76222  10.169   5.343   2.726  0.1331 -0.1428 -0.0123
21415SOL    HW176223  10.096   5.320   2.782 -0.4534  0.7441 -0.4011
21415SOL    HW276224  10.240   5.367   2.786 -0.2393  0.0494  0.3464
21416SOL     OW76225   7.693   7.045   3.499  0.2413  0.0360 -0.2693
21416SOL    HW176226   7.731   6.973   3.549  0.2041  0.8043  0.9088
21416SOL    HW276227   7.753   7.118   3.512  0.1490  0.3029 -1.2505
21417SOL     OW76228   4.150  10.211   2.997 -0.2209 -0.6937  0.2490
21417SOL    HW176229   4.166  10.123   2.963  2.5819 -0.1463 -0.0813
21417SOL    HW276230   4.211  10.220   3.070 -0.4134  1.0022  0.2451
21418SOL     OW76231   4.434   8.563   5.701  0.1699  0.6333  0.0412
21418SOL    HW176232   4.385   8.599   5.627  0.1146  1.4282  0.4468
21418SOL    HW276233   4.520   8.543   5.665  0.1438  1.0114 -0.2435
21419SOL     OW76234   2.930   7.180   3.432 -0.1599  0.1475  0.0851
21419SOL    HW176235   2.985   7.244   3.387  0.7989 -0.2492  0.6389
21419SOL    HW276236   2.974   7.166   3.516 -0.5096 -1.0039  0.0992
21420SOL     OW76237   9.902   7.018   6.123  0.2445 -0.2535  0.0460
21420SOL    HW176238   9.957   6.999   6.048  0.7452 -0.4873  0.4690
21420SOL    HW276239   9.915   6.944   6.182  0.6549  0.4132  0.8142
21421SOL     OW76240   6.013   4.976   7.997 -0.8612 -0.1379  0.1134
21421SOL    HW176241   6.018   4.943   7.907 -1.3370 -0.1048  0.0723
21421SOL    HW276242   6.086   4.933   8.042 -0.2578  0.3007 -0.4283
21422SOL     OW76243   9.161   6.534   1.354 -0.0298 -0.1814 -0.7527
21422SOL    HW176244   9.081   6.499   1.391  1.1266 -0.2415  1.9322
21422SOL    HW276245   9.149   6.629   1.356 -0.4781 -0.2143 -1.5130
21423SOL     OW76246   2.866   4.679   1.509 -0.6808  0.1565  0.0990
21423SOL    HW176247   2.933   4.614   1.530 -1.7241 -0.9442  0.1286
21423SOL    HW276248   2.912   4.762   1.509  0.5303 -0.4902  0.8989
21424SOL     OW76249   7.382   8.311   1.081 -0.3231 -0.0582  0.2388
21424SOL    HW176250   7.402   8.293   0.989  0.0705 -0.9872  0.4950
21424SOL    HW276251   7.468   8.318   1.123 -0.4982  0.5858  0.4991
21425SOL     OW76252   0.898   1.431   2.436  0.1857  0.0519  0.1561
21425SOL    HW176253   0.941   1.356   2.395 -1.8668 -0.0947 -1.9533
21425SOL    HW276254   0.886   1.493   2.364 -2.6320  0.2463  0.6915
21426SOL     OW76255   0.085   5.137   3.098 -0.5467  0.1935  0.8932
21426SOL    HW176256   0.140   5.212   3.077 -0.0419 -0.8655 -1.9311
21426SOL    HW276257  -0.003   5.174   3.105 -0.2830  1.1114 -0.2743
21427SOL     OW76258   7.295   5.417   7.545  0.1111 -0.7667  0.6985
21427SOL    HW176259   7.301   5.328   7.510  1.0245 -0.1403 -0.8378
21427SOL    HW276260   7.360   5.467   7.495 -1.3329  1.0751  0.5580
21428SOL     OW76261   3.009   9.372   7.682  0.7516  0.4020  0.1409
21428SOL    HW176262   3.053   9.326   7.610  0.2422 -0.4256  0.3509
21428SOL    HW276263   3.081   9.407   7.735  1.1895 -1.2486  0.6804
21429SOL     OW76264   0.860   9.975  10.045  0.0588 -0.6594  0.4982
21429SOL    HW176265   0.906  10.043   9.996  1.9138 -0.7691  1.9586
21429SOL    HW276266   0.835   9.911   9.979  1.2412 -0.1513 -0.4875
21430SOL     OW76267   5.684  10.208   7.262 -0.2184  0.1739 -0.3120
21430SOL    HW176268   5.725  10.281   7.216  2.3195 -1.2089 -0.4541
21430SOL    HW276269   5.618  10.248   7.318  0.0796  2.3958 -1.4566
21431SOL     OW76270   5.223   5.868   4.294 -0.2290  0.2188  0.4736
21431SOL    HW176271   5.202   5.919   4.373  0.9757  0.1057  0.8789
21431SOL    HW276272   5.276   5.795   4.325  0.5740  0.3688 -0.4815
21432SOL     OW76273   2.482   4.591   6.621 -0.6080 -0.2753  0.2511
21432SOL    HW176274   2.413   4.641   6.664 -0.8898 -0.9722  0.6367
21432SOL    HW276275   2.549   4.581   6.688 -0.0980  0.4564 -0.1435
21433SOL     OW76276   8.628   2.369   8.366  0.4612 -0.8760 -0.2088
21433SOL    HW176277   8.703   2.428   8.366 -1.6569  2.0425 -1.5539
21433SOL    HW276278   8.579   2.392   8.445 -1.3484  0.6191 -1.6904
21434SOL     OW76279   7.656   1.907   2.158  0.0010  0.4130  0.4620
21434SOL    HW176280   7.719   1.899   2.086  2.3188  0.2146  2.4202
21434SOL    HW276281   7.605   1.826   2.154 -1.0719  1.0961 -1.8919
21435SOL     OW76282   6.095   0.475   7.084  0.3668 -0.0770  0.6165
21435SOL    HW176283   6.125   0.439   7.001 -1.7097 -0.9384  0.1641
21435SOL    HW276284   6.001   0.454   7.087 -0.1081  1.8991  2.1507
21436SOL     OW76285   5.973   9.873   8.386  0.0955 -0.0156 -0.1204
21436SOL    HW176286   5.970   9.793   8.333  0.0113  0.9871 -1.6965
21436SOL    HW276287   6.053   9.917   8.357  0.1264  0.4809  0.7157
21437SOL     OW76288   5.871  10.071   0.315  0.4672 -0.3084  0.9736
21437SOL    HW176289   5.890  10.007   0.384  0.6193 -2.0934 -0.6517
21437SOL    HW276290   5.787  10.044   0.279  0.0536  1.0206  0.8893
21438SOL     OW76291   3.972   8.835   5.887 -0.4089 -0.7202 -0.0208
21438SOL    HW176292   3.997   8.745   5.867  0.0814 -0.6158  0.0992
21438SOL    HW276293   3.916   8.828   5.964 -1.2332 -1.0062 -0.6257
21439SOL     OW76294   0.799   2.690   0.145  0.5089  0.1341 -0.5842
21439SOL    HW176295   0.892   2.708   0.154  0.7473 -0.4646 -1.7477
21439SOL    HW276296   0.794   2.607   0.098 -0.6119 -0.6963  0.9061
21440SOL     OW76297   8.124   8.906   2.605  0.2927  0.3268  0.6823
21440SOL    HW176298   8.161   8.919   2.518 -1.1796 -0.5058 -0.1082
21440SOL    HW276299   8.200   8.891   2.661  1.2061 -0.4796 -0.7080
21441SOL     OW76300   3.363   6.592   2.083  0.2684  0.3487 -0.4791
21441SOL    HW176301   3.397   6.508   2.114 -0.0370  0.2027 -0.5316
21441SOL    HW276302   3.274   6.595   2.118  0.2638  0.6290 -0.5184
21442SOL     OW76303   9.509   1.250   2.415 -0.2668 -0.4998 -0.1907
21442SOL    HW176304   9.427   1.300   2.414  0.6101  1.0416  0.5092
21442SOL    HW276305   9.493   1.180   2.478 -0.6016  0.6391  1.0390
21443SOL     OW76306   6.151   3.108  10.276  0.1641  0.4664  0.1895
21443SOL    HW176307   6.060   3.097  10.304 -0.1685  2.4118  0.0431
21443SOL    HW276308   6.148   3.183  10.216  1.3960 -1.3512 -2.3303
21444SOL     OW76309   1.191   4.057   9.186 -0.4417 -0.2763  0.4053
21444SOL    HW176310   1.182   4.102   9.270  0.6056 -2.5922  1.8544
21444SOL    HW276311   1.285   4.044   9.175 -0.5588  0.1148 -1.2162
21445SOL     OW76312   3.243   1.188   4.442 -0.0224  0.0493 -0.6388
21445SOL    HW176313   3.206   1.252   4.382  0.0617 -0.5960 -1.4029
21445SOL    HW276314   3.169   1.135   4.470  0.0400 -0.0644 -0.6897
21446SOL     OW76315   6.064   2.969   6.732 -0.4891  0.1871  0.4594
21446SOL    HW176316   6.001   3.018   6.786 -0.2859  0.4462  0.4641
21446SOL    HW276317   6.125   2.931   6.794 -1.9162 -1.9387  0.6365
21447SOL     OW76318   3.448   6.574   8.681 -0.2351 -0.3492 -0.7968
21447SOL    HW176319   3.414   6.512   8.746 -1.1913  1.0975  0.1530
21447SOL    HW276320   3.370   6.600   8.631 -0.4073  2.0085  0.5364
21448SOL     OW76321   0.985   6.788   6.714 -0.9462 -0.4519  0.0542
21448SOL    HW176322   1.042   6.788   6.637 -1.4611 -0.1916 -0.3361
21448SOL    HW276323   1.038   6.828   6.783 -1.4956  2.3044 -0.9718
21449SOL     OW76324   9.729   8.810   4.763  0.4019  0.1110  0.1020
21449SOL    HW176325   9.768   8.806   4.850 -0.4444  1.4945  0.5895
21449SOL    HW276326   9.718   8.904   4.746 -4.2524 -0.0724  0.7917
21450SOL     OW76327   3.271   9.271   3.610  0.3480  0.4191 -0.4673
21450SOL    HW176328   3.337   9.214   3.649 -2.3786 -0.9340  2.6610
21450SOL    HW276329   3.239   9.224   3.534  0.2444 -0.8726  0.3487
21451SOL     OW76330   9.177   9.359   2.712  0.5558  0.4715  0.2766
21451SOL    HW176331   9.214   9.302   2.644  2.3145  1.7333  0.1134
21451SOL    HW276332   9.151   9.438   2.665  3.7423  2.2532  1.2157
21452SOL     OW76333   0.213   4.136   5.443 -0.0290 -0.5402  0.5140
21452SOL    HW176334   0.269   4.212   5.429 -1.6072  0.9913  2.0287
21452SOL    HW276335   0.200   4.099   5.356 -0.3368  1.7649 -0.4856
21453SOL     OW76336   8.449   5.910   3.991 -0.1358 -0.0202 -0.3338
21453SOL    HW176337   8.497   5.916   3.908 -0.3699 -1.8782 -0.6534
21453SOL    HW276338   8.515   5.889   4.056  0.4439  3.6513  0.4927
21454SOL     OW76339   6.997   6.635   6.180 -0.3757 -0.2798  0.2845
21454SOL    HW176340   7.065   6.581   6.221 -0.1782 -0.7941 -0.6724
21454SOL    HW276341   6.929   6.644   6.247 -0.1852 -1.3076  0.6363
21455SOL     OW76342   8.630   7.066   1.192  0.1064 -0.4178  0.3968
21455SOL    HW176343   8.629   7.141   1.133  0.2279 -0.2671  0.5860
21455SOL    HW276344   8.722   7.037   1.191  0.6088  0.9307  2.2085
21456SOL     OW76345   6.606   7.006   1.509  1.1884 -0.4136  0.0896
21456SOL    HW176346   6.538   6.979   1.572 -1.5739  1.0704 -2.0252
21456SOL    HW276347   6.647   7.082   1.550  0.0772 -0.0213  0.5275
21457SOL     OW76348   6.941   7.767   6.450  0.2370  0.2804  0.7538
21457SOL    HW176349   6.930   7.684   6.403 -0.2693 -0.4172  2.0719
21457SOL    HW276350   6.918   7.748   6.540 -3.0182  2.5485  0.5753
21458SOL     OW76351   9.852   8.524   8.371 -0.5344 -0.2270 -0.1307
21458SOL    HW176352   9.784   8.563   8.426 -0.4404 -1.2769  0.7743
21458SOL    HW276353   9.895   8.461   8.429  0.1469 -0.7288 -1.1686
21459SOL     OW76354   7.353   6.504   2.137 -0.5140  0.3756 -0.0788
21459SOL    HW176355   7.295   6.562   2.186  0.0067  1.4948 -0.7486
21459SOL    HW276356   7.422   6.561   2.102  0.2114 -0.6929 -0.4849
21460SOL     OW76357   2.224   8.883   8.266 -0.6777 -0.2443  0.2940
21460SOL    HW176358   2.183   8.805   8.229 -1.7098  0.1116  0.6577
21460SOL    HW276359   2.179   8.956   8.224  0.8393  0.1799 -0.6472
21461SOL     OW76360   0.937   0.963   0.075 -0.4850  0.3558 -0.1382
21461SOL    HW176361   1.023   0.955   0.117 -0.5228 -1.5061 -0.3238
21461SOL    HW276362   0.902   0.874   0.075 -2.1804  0.9811 -0.5911
21462SOL     OW76363   6.384   3.791   1.117 -0.0765  0.4871 -0.3526
21462SOL    HW176364   6.302   3.744   1.101 -1.0474  1.5457  1.2689
21462SOL    HW276365   6.422   3.803   1.030 -1.9001  0.4032 -1.2075
21463SOL     OW76366   6.488   0.923   5.978  0.0881 -0.0951 -0.3093
21463SOL    HW176367   6.455   1.008   6.007  0.6208 -0.2883  0.9109
21463SOL    HW276368   6.414   0.863   5.992  0.9032 -0.5623  2.5971
21464SOL     OW76369   0.136   8.975   2.275  0.0739  0.4823 -0.4122
21464SOL    HW176370   0.093   9.053   2.309 -0.8797  0.1966 -0.9387
21464SOL    HW276371   0.222   9.006   2.246 -0.3921  1.3909 -0.8669
21465SOL     OW76372   9.263   8.167   5.199  0.1020 -0.7173 -0.6814
21465SOL    HW176373   9.284   8.153   5.291  0.8373 -0.5867 -0.8202
21465SOL    HW276374   9.259   8.079   5.161  0.2890 -0.7471 -0.6303
21466SOL     OW76375   4.253   9.019   1.202 -0.1674  0.4927 -0.4009
21466SOL    HW176376   4.203   8.974   1.134 -1.9058  3.1630 -1.0647
21466SOL    HW276377   4.329   9.054   1.155 -0.7045  1.2441 -0.7485
21467SOL     OW76378   6.124   3.702   4.162  0.8470  0.1551  0.0623
21467SOL    HW176379   6.115   3.607   4.164  0.4178  0.2027  0.5406
21467SOL    HW276380   6.068   3.730   4.089 -2.4606  0.3658  2.4518
21468SOL     OW76381   8.121   4.283   7.511 -0.1185  0.2471 -0.1437
21468SOL    HW176382   8.213   4.270   7.531 -0.6371 -2.1302  1.1461
21468SOL    HW276383   8.119   4.353   7.446  2.5556  0.4777 -0.0531
21469SOL     OW76384   2.456   0.854   6.167  0.1170  0.1681  0.2617
21469SOL    HW176385   2.411   0.938   6.173 -2.2621 -1.1164  2.0022
21469SOL    HW276386   2.478   0.832   6.258  0.8539 -1.0439 -0.1785
21470SOL     OW76387  10.258   1.698   1.775  0.0985 -0.1815  0.3807
21470SOL    HW176388  10.224   1.638   1.842  1.5480 -2.2037 -0.5710
21470SOL    HW276389  10.344   1.663   1.753  1.3273  2.6770  0.1972
21471SOL     OW76390   4.871   8.161   3.891  0.1380  0.4917  0.4866
21471SOL    HW176391   4.806   8.189   3.956 -0.4867 -0.4496  0.2926
21471SOL    HW276392   4.841   8.074   3.862  0.3992  0.8778 -1.0570
21472SOL     OW76393   3.685   8.819   7.593 -0.3096  0.7269  0.1201
21472SOL    HW176394   3.704   8.783   7.507 -2.0749 -1.2736  0.4681
21472SOL    HW276395   3.756   8.786   7.649  1.5601  3.0775 -0.7068
21473SOL     OW76396   3.673   9.587   6.007 -0.6291 -0.5445 -0.9931
21473SOL    HW176397   3.729   9.580   5.930  1.2653  0.3759  0.2268
21473SOL    HW276398   3.645   9.679   6.008 -0.3197 -0.4561 -0.3735
21474SOL     OW76399   3.804   4.324   0.646  0.0446 -0.0528  0.3345
21474SOL    HW176400   3.859   4.381   0.593  1.3523 -0.3033  1.3832
21474SOL    HW276401   3.818   4.354   0.736  0.3169 -1.6376  0.8506
21475SOL     OW76402   4.803   8.659   3.906 -0.4116  0.0684  0.5702
21475SOL    HW176403   4.778   8.591   3.968  0.3672  0.3348  1.1988
21475SOL    HW276404   4.825   8.735   3.960  1.4672 -0.0646  0.0772
21476SOL     OW76405   7.400   8.323   6.096 -0.4038  0.4030 -0.4743
21476SOL    HW176406   7.451   8.284   6.167 -0.3397  1.3884  0.0255
21476SOL    HW276407   7.381   8.249   6.038 -0.0995 -0.3400  0.3443
21477SOL     OW76408   5.473   5.817   1.743  0.1189  0.7423  0.6140
21477SOL    HW176409   5.458   5.799   1.650  0.6042  1.7118  0.3248
21477SOL    HW276410   5.410   5.762   1.789  0.1694 -0.0801 -0.2708
21478SOL     OW76411   9.025   1.159   2.760  1.1001  0.4279  0.0534
21478SOL    HW176412   8.980   1.101   2.700  0.1041 -1.0105  2.0539
21478SOL    HW276413   9.081   1.101   2.813  1.5392  1.5339  0.8598
21479SOL     OW76414   2.767   0.371   4.850 -0.1216 -0.7399  0.1356
21479SOL    HW176415   2.790   0.464   4.845 -2.4404 -0.0019  1.5183
21479SOL    HW276416   2.758   0.354   4.944 -0.3803 -2.2183 -0.1357
21480SOL     OW76417   7.533   8.701   6.140 -0.1015 -0.2614 -0.6378
21480SOL    HW176418   7.522   8.635   6.209 -1.1838  3.1572  2.7950
21480SOL    HW276419   7.627   8.713   6.133  0.0180 -0.0186  1.0030
21481SOL     OW76420   1.903   3.879   8.611 -0.2069  0.2309 -0.0604
21481SOL    HW176421   1.841   3.807   8.602 -0.0473 -0.1145  1.3974
21481SOL    HW276422   1.856   3.945   8.663 -0.1063  0.8894 -0.7844
21482SOL     OW76423   4.672   8.138   2.247 -0.6295 -0.1599 -0.7030
21482SOL    HW176424   4.766   8.147   2.227 -0.8562  0.0986 -1.7164
21482SOL    HW276425   4.670   8.103   2.336  0.4284  0.2906 -0.4794
21483SOL     OW76426   4.850   0.991   6.269  0.6894 -0.6558  0.2952
21483SOL    HW176427   4.824   1.064   6.214  0.7438 -0.8612 -0.0056
21483SOL    HW276428   4.929   0.956   6.227  0.6540 -0.8957  0.4268
21484SOL     OW76429   5.275   2.481   5.851 -0.5840  0.4182  0.4006
21484SOL    HW176430   5.218   2.459   5.777 -0.7752  1.3713  0.2518
21484SOL    HW276431   5.350   2.526   5.810 -0.7645  1.0855  0.7950
21485SOL     OW76432   4.368   9.798   0.226 -0.2377 -0.5254  0.4764
21485SOL    HW176433   4.316   9.724   0.193 -1.5196  1.4376 -2.2560
21485SOL    HW276434   4.452   9.789   0.182  0.3607 -1.4051  1.7254
21486SOL     OW76435   3.342   5.212   5.922 -0.0773 -0.1621  0.0488
21486SOL    HW176436   3.337   5.305   5.942  1.9379  0.0401 -0.2102
21486SOL    HW276437   3.263   5.175   5.962 -1.7156  1.8269 -1.1356
21487SOL     OW76438   9.198   5.365   0.160  0.1985  0.2031  0.0310
21487SOL    HW176439   9.200   5.380   0.254  0.7198  1.2812 -0.1366
21487SOL    HW276440   9.232   5.276   0.149  0.6344  0.2619  0.8214
21488SOL     OW76441   1.631   1.607   3.481  0.5088  0.4256  0.0820
21488SOL    HW176442   1.624   1.534   3.419  1.4349 -1.3917  1.9980
21488SOL    HW276443   1.605   1.570   3.565  0.9305  2.3426  1.1094
21489SOL     OW76444   8.547   5.296   7.268 -0.1684  0.2740 -0.2982
21489SOL    HW176445   8.559   5.327   7.358 -1.2282 -1.4920  0.4887
21489SOL    HW276446   8.552   5.201   7.274  0.6178  0.1280 -2.2720
21490SOL     OW76447   6.611   0.055   7.664  0.2444 -0.1189  0.0530
21490SOL    HW176448   6.645   0.015   7.744 -0.9518 -0.5294  0.3810
21490SOL    HW276449   6.545   0.118   7.695 -0.7401 -0.7883 -0.6133
21491SOL     OW76450   1.198   3.063   6.978  0.1580 -0.2060  0.1519
21491SOL    HW176451   1.184   3.157   6.966  0.9377 -0.1409 -0.3720
21491SOL    HW276452   1.202   3.051   7.072  1.9332  0.6062  0.2188
21492SOL     OW76453   6.240   9.424   9.394 -0.1224  0.4737 -0.4716
21492SOL    HW176454   6.312   9.471   9.436  0.4270  0.0155 -0.8914
21492SOL    HW276455   6.236   9.461   9.305  0.5054 -0.4582 -0.9044
21493SOL     OW76456   4.971   4.586   6.699 -0.2507 -0.1125  0.5059
21493SOL    HW176457   5.005   4.497   6.705  0.3811  0.0878 -0.0397
21493SOL    HW276458   4.910   4.593   6.773  0.5487 -0.6261  1.2402
21494SOL     OW76459   9.636   3.481   9.884  0.4916  0.1939 -0.0891
21494SOL    HW176460   9.652   3.403   9.936  2.8629  0.4317 -0.3739
21494SOL    HW276461   9.698   3.475   9.812 -1.1562  1.0102 -1.6656
21495SOL     OW76462   4.068   9.957   1.564 -0.2673  0.5586  0.0396
21495SOL    HW176463   4.014   9.986   1.491 -0.1700 -1.6491 -0.9893
21495SOL    HW276464   4.157   9.981   1.539 -0.4497  1.6868  0.4359
21496SOL     OW76465   7.363   7.726   0.456  0.3434  0.4341 -0.2236
21496SOL    HW176466   7.443   7.693   0.496  0.2682  2.5688  1.9585
21496SOL    HW276467   7.293   7.700   0.516  0.0373  2.4248  0.3870
21497SOL     OW76468   0.360   8.987   6.985  0.2059  0.7705 -0.5182
21497SOL    HW176469   0.431   8.978   6.921  1.1736  0.1585  0.6080
21497SOL    HW276470   0.308   8.908   6.974  1.3585 -0.1761  0.5952
21498SOL     OW76471   8.454   8.399   2.619  0.2306 -0.2391  0.0035
21498SOL    HW176472   8.468   8.374   2.710 -1.6037  1.4700  0.8554
21498SOL    HW276473   8.383   8.342   2.589  0.9814 -0.9524 -0.4611
21499SOL     OW76474   2.282   9.474   4.188  0.0360 -0.2743 -0.5059
21499SOL    HW176475   2.303   9.429   4.107 -2.4719 -0.5798 -1.0794
21499SOL    HW276476   2.293   9.407   4.256  2.1952 -0.0023 -0.5038
21500SOL     OW76477   5.872   8.172  10.098  0.0239  0.0389  0.2979
21500SOL    HW176478   5.779   8.150  10.105  0.3333 -0.8061  2.2996
21500SOL    HW276479   5.916   8.115  10.161  1.9982 -0.0000 -1.0241
21501SOL     OW76480   6.293   3.540   1.451 -0.0175  0.0446  0.0732
21501SOL    HW176481   6.202   3.559   1.473  0.0394 -0.0500  0.4046
21501SOL    HW276482   6.293   3.527   1.357 -0.1140  1.3975 -0.1427
21502SOL     OW76483   9.093   6.782   4.371  0.2608  0.5171  0.5216
21502SOL    HW176484   9.086   6.845   4.442 -0.5419 -0.9866  1.8429
21502SOL    HW276485   9.021   6.805   4.312  0.6521  1.4965  0.4031
21503SOL     OW76486   3.971   8.802   1.912 -0.4078  0.5180 -0.2580
21503SOL    HW176487   3.928   8.787   1.996  1.5664  0.2166  0.7460
21503SOL    HW276488   4.034   8.871   1.929  0.6478 -0.1651 -1.2576
21504SOL     OW76489   3.205   1.011   5.642  0.1509 -0.5195 -0.2102
21504SOL    HW176490   3.234   0.999   5.732 -0.3296  0.8791  0.1619
21504SOL    HW276491   3.111   0.990   5.644  0.2219 -0.8767 -0.4784
21505SOL     OW76492   5.513   4.246  10.037 -0.4341 -0.2008  0.0855
21505SOL    HW176493   5.452   4.290   9.977 -1.6886 -1.4240  0.3930
21505SOL    HW276494   5.530   4.310  10.106 -0.6920  0.4724 -0.4701
21506SOL     OW76495   8.353   0.006   1.348  0.0627 -0.1928  0.3492
21506SOL    HW176496   8.423  -0.058   1.338 -0.7040 -1.2566  1.4370
21506SOL    HW276497   8.279  -0.032   1.300 -0.3521 -0.0630  0.8754
21507SOL     OW76498   3.275   2.285   5.829 -0.6417  0.7006 -0.9825
21507SOL    HW176499   3.199   2.259   5.881 -0.6850  0.0342 -1.3676
21507SOL    HW276500   3.274   2.381   5.831 -2.9029  0.8046 -2.9876
21508SOL     OW76501   4.529   7.641   8.124 -0.7675 -0.9242 -0.6253
21508SOL    HW176502   4.544   7.710   8.189  1.3643 -2.7711  1.0278
21508SOL    HW276503   4.518   7.688   8.041  3.3471  1.4962 -0.0988
21509SOL     OW76504   5.818   6.056   6.052  0.0654 -0.1661  0.4448
21509SOL    HW176505   5.899   6.093   6.017 -0.3067 -0.1038 -0.3608
21509SOL    HW276506   5.748   6.105   6.008 -0.4219 -0.9014  0.3829
21510SOL     OW76507   7.839   0.605   7.504  0.5094 -0.2938 -0.3499
21510SOL    HW176508   7.911   0.663   7.479  1.4629 -0.5510  1.5590
21510SOL    HW276509   7.761   0.659   7.494  0.9909  0.1700 -1.9474
21511SOL     OW76510   0.133   1.745   5.653  0.1289  0.3312 -0.8032
21511SOL    HW176511   0.101   1.788   5.732 -0.6314 -0.8592 -0.4434
21511SOL    HW276512   0.224   1.723   5.673 -0.0675  0.0128 -0.2469
21512SOL     OW76513   1.725   1.849   5.073 -0.7572  0.3637  0.0497
21512SOL    HW176514   1.784   1.781   5.040  0.3044  0.6941  1.2010
21512SOL    HW276515   1.783   1.912   5.116 -1.7901  1.6106 -0.3109
21513SOL     OW76516   6.128   8.480   0.529  0.2295  0.0874 -0.6034
21513SOL    HW176517   6.081   8.474   0.446  0.5613 -0.1767 -0.7729
21513SOL    HW276518   6.195   8.547   0.514 -0.7193  1.2158 -0.0484
21514SOL     OW76519   8.626   0.285   9.127  0.5232 -0.0693 -0.4208
21514SOL    HW176520   8.715   0.320   9.122  1.3360 -2.0539 -0.8722
21514SOL    HW276521   8.634   0.195   9.095 -1.2964 -0.9249  1.3199
21515SOL     OW76522   4.777   5.750   8.209  0.4090  0.2947  0.7700
21515SOL    HW176523   4.712   5.786   8.148  1.1294 -0.0075 -0.1918
21515SOL    HW276524   4.757   5.657   8.213  2.0598 -0.2224 -1.2206
21516SOL     OW76525   5.110   4.380   0.887 -0.0507  0.2011  0.7520
21516SOL    HW176526   5.148   4.294   0.905  1.0247  0.5761  0.3818
21516SOL    HW276527   5.171   4.442   0.927  0.7097  0.9062 -1.3925
21517SOL     OW76528   9.638   9.457   2.713  0.3767  0.4714  0.7188
21517SOL    HW176529   9.572   9.518   2.682  0.6748  0.0134 -0.8867
21517SOL    HW276530   9.721   9.504   2.703  0.4140  0.6770  1.7971
21518SOL     OW76531   7.116   7.480   5.488 -0.1780  0.1394  0.8695
21518SOL    HW176532   7.036   7.477   5.436 -0.5206  0.1018  1.3880
21518SOL    HW276533   7.096   7.428   5.566  0.4493 -0.1127  0.8725
21519SOL     OW76534   6.448   2.217   0.240  0.1154 -0.1432  0.5569
21519SOL    HW176535   6.523   2.172   0.200  0.9319  1.0068  0.7214
21519SOL    HW276536   6.421   2.281   0.174 -0.3947 -0.2145  0.6974
21520SOL     OW76537   2.402   9.416   2.344  0.0160  0.1177 -0.9260
21520SOL    HW176538   2.308   9.433   2.352  0.2752  0.8778  1.1033
21520SOL    HW276539   2.427   9.380   2.430  1.1950 -2.1340 -2.1373
21521SOL     OW76540   3.642   7.994   1.533  0.2449 -0.2248  0.0189
21521SOL    HW176541   3.609   8.030   1.615 -0.6042  0.0021 -0.4152
21521SOL    HW276542   3.726   7.955   1.556  0.0534 -0.0834  0.9753
21522SOL     OW76543   9.011   0.827   7.371 -0.2059 -0.1696  0.9662
21522SOL    HW176544   8.963   0.875   7.438 -0.5368  0.6897  0.1251
21522SOL    HW276545   8.987   0.869   7.289  2.1483  0.4715  0.5155
21523SOL     OW76546   0.963   1.582   8.541  0.0768  0.1214 -0.0240
21523SOL    HW176547   0.962   1.527   8.620  0.9805 -0.1996 -0.2271
21523SOL    HW276548   1.007   1.662   8.569  1.0370 -0.2741 -0.3746
21524SOL     OW76549   3.109   0.317   3.633 -0.3797 -0.0874  0.4080
21524SOL    HW176550   3.041   0.384   3.618  0.5578  1.2052  1.6393
21524SOL    HW276551   3.150   0.343   3.715  0.9514 -1.4228  0.2036
21525SOL     OW76552   0.290   4.237   5.119 -0.8580 -0.2480  0.1605
21525SOL    HW176553   0.207   4.198   5.092 -1.4344  0.6158  0.6077
21525SOL    HW276554   0.264   4.317   5.165  0.2353  0.1303  0.1434
21526SOL     OW76555   7.269   7.272  10.334 -0.0552 -0.4046 -0.0955
21526SOL    HW176556   7.231   7.360  10.339  0.7083  0.1938 -3.2032
21526SOL    HW276557   7.361   7.284  10.357 -0.2260 -0.6733  0.7847
21527SOL     OW76558   1.615   5.139   1.753  0.3802 -0.5902  0.0680
21527SOL    HW176559   1.624   5.059   1.701 -1.0365 -0.4475 -0.4365
21527SOL    HW276560   1.561   5.113   1.828  0.0430 -0.1601 -0.0186
21528SOL     OW76561   1.913   1.226   8.058 -0.0785  0.2865  0.4142
21528SOL    HW176562   2.002   1.260   8.044  0.3301  0.6365  3.2853
21528SOL    HW276563   1.910   1.146   8.006  1.1460  1.3557 -1.4374
21529SOL     OW76564   7.392   2.029   5.358 -0.3631 -0.3146  0.8202
21529SOL    HW176565   7.462   2.085   5.324 -0.1276 -0.1698  1.5323
21529SOL    HW276566   7.356   1.986   5.281  2.0766 -2.2394  0.6544
21530SOL     OW76567   9.612   0.117   9.833  0.6249 -0.0906 -0.2171
21530SOL    HW176568   9.579   0.192   9.784 -1.0991 -1.2286 -0.9061
21530SOL    HW276569   9.684   0.083   9.780 -0.0394 -0.2258 -1.0516
21531SOL     OW76570   9.061   4.895   9.315  0.3517 -0.0428 -0.4460
21531SOL    HW176571   8.986   4.836   9.307 -0.0399  0.4615 -0.5019
21531SOL    HW276572   9.097   4.900   9.226 -0.1050  0.4378 -0.6110
21532SOL     OW76573   6.608   6.121   5.056 -0.0478  0.0853 -0.3103
21532SOL    HW176574   6.587   6.178   5.131  0.0371  0.8770 -0.8717
21532SOL    HW276575   6.697   6.092   5.072 -0.2757 -0.3410  0.2529
21533SOL     OW76576   8.042   4.922   6.725  0.0536  0.3683 -0.4908
21533SOL    HW176577   8.046   4.834   6.688  0.4480 -0.2372  0.9202
21533SOL    HW276578   8.091   4.976   6.663 -0.2671 -0.3724 -1.4178
21534SOL     OW76579   4.219   9.177   0.777 -0.1720 -0.1727  0.0966
21534SOL    HW176580   4.131   9.216   0.783  0.0457  0.1517  1.5636
21534SOL    HW276581   4.245   9.191   0.685 -1.0019  1.1719  0.0323
21535SOL     OW76582   9.351   9.165   0.591  0.2417  0.9433 -0.2150
21535SOL    HW176583   9.264   9.140   0.622  1.4256 -1.6194  1.4470
21535SOL    HW276584   9.393   9.206   0.667  0.8399  1.0827 -0.6114
21536SOL     OW76585   7.498   1.273   6.254 -0.1222  0.2168 -0.0791
21536SOL    HW176586   7.535   1.187   6.273  1.7460  1.1961  1.0432
21536SOL    HW276587   7.569   1.320   6.209  0.2297  2.2717  2.3841
21537SOL     OW76588   5.088   2.252   7.831 -0.0287 -0.2444 -0.0063
21537SOL    HW176589   5.133   2.318   7.778 -0.2492  1.1967  1.5457
21537SOL    HW276590   5.148   2.177   7.833  0.9455  0.5147 -0.4342
21538SOL     OW76591   2.358   4.684   9.246  0.0873  0.2432  0.3822
21538SOL    HW176592   2.293   4.735   9.295  0.6973  0.3073  1.1561
21538SOL    HW276593   2.442   4.718   9.277  0.4936 -0.0672 -0.3579
21539SOL     OW76594   2.206   0.847   8.983 -0.3824  0.1200  0.2190
21539SOL    HW176595   2.211   0.836   8.888  0.6564  1.0781  0.1439
21539SOL    HW276596   2.132   0.792   9.009 -0.6683 -0.1833 -1.1347
21540SOL     OW76597   1.295   3.561   4.554  0.4292  0.6114 -0.3525
21540SOL    HW176598   1.348   3.610   4.491  0.0349  0.3070 -0.9368
21540SOL    HW276599   1.291   3.473   4.517 -0.7055  0.7017 -0.4553
21541SOL     OW76600   7.232   3.558   2.697  0.1855 -0.1104  0.0736
21541SOL    HW176601   7.150   3.589   2.660  0.4378 -2.2090 -2.5849
21541SOL    HW276602   7.207   3.516   2.780 -1.3268 -0.1877 -0.3923
21542SOL     OW76603   5.372   9.955   7.883  0.2244  0.2074 -0.5910
21542SOL    HW176604   5.368   9.863   7.910 -0.3782  0.0822 -1.1063
21542SOL    HW276605   5.316   9.960   7.806 -0.1328  1.1088 -0.2796
21543SOL     OW76606   0.778   1.046   8.258 -0.5079 -0.1261  0.0272
21543SOL    HW176607   0.835   1.103   8.309 -0.5789  0.4990 -0.5795
21543SOL    HW276608   0.790   0.959   8.297  0.5889  0.0614  0.1467
21544SOL     OW76609   8.966   1.354   1.395 -0.4388  0.1315  0.1543
21544SOL    HW176610   9.021   1.292   1.442 -0.3987 -0.0905 -0.1790
21544SOL    HW276611   9.026   1.424   1.369 -0.5877  0.5767  0.9916
21545SOL     OW76612   3.734   7.339   0.720  0.4294  0.1002 -0.8337
21545SOL    HW176613   3.693   7.417   0.684 -1.3302 -0.1135  0.5784
21545SOL    HW276614   3.672   7.268   0.700 -0.3588 -0.1145  2.0294
21546SOL     OW76615   1.106   4.479   0.238  0.1301 -0.2061  0.3174
21546SOL    HW176616   1.071   4.465   0.150  1.6768 -0.2219 -0.3223
21546SOL    HW276617   1.043   4.538   0.279 -0.4094  0.1293 -0.9401
21547SOL     OW76618   8.318   7.417   8.979 -0.4849  0.3727 -0.6696
21547SOL    HW176619   8.365   7.488   8.936  1.2851 -0.5024 -0.3104
21547SOL    HW276620   8.384   7.347   8.988 -1.8042 -0.8307  0.1129
21548SOL     OW76621   4.523   4.789   2.547 -0.1760 -0.0970 -0.4464
21548SOL    HW176622   4.467   4.846   2.599  0.8077  0.5598 -0.0719
21548SOL    HW276623   4.548   4.719   2.607  1.0375  0.7124  0.0521
21549SOL     OW76624   6.451   9.614   0.214 -0.7763 -0.0206  0.0231
21549SOL    HW176625   6.356   9.602   0.208 -1.0141  0.0910  2.3572
21549SOL    HW276626   6.470   9.601   0.307  1.4351  0.4384 -0.3184
21550SOL     OW76627   1.091   0.124   7.373  0.0407 -0.1837  0.1656
21550SOL    HW176628   1.068   0.217   7.364  0.5606  0.0379  0.9910
21550SOL    HW276629   1.072   0.086   7.287  1.8369  1.1393 -0.8865
21551SOL     OW76630   1.335   9.501   2.617 -0.2495 -0.1175  0.3021
21551SOL    HW176631   1.299   9.540   2.537 -0.5861 -0.9786  0.0287
21551SOL    HW276632   1.271   9.434   2.642 -0.5050  0.5975  1.6844
21552SOL     OW76633   8.436   8.303   8.793  0.1309  0.0167 -0.1583
21552SOL    HW176634   8.419   8.228   8.850  0.5780  0.0262 -0.0158
21552SOL    HW276635   8.388   8.283   8.712  0.9945 -0.8492 -0.4711
21553SOL     OW76636   1.852   2.873   7.918  0.6883  0.0004  0.1980
21553SOL    HW176637   1.779   2.838   7.867 -0.4755  1.4432  0.8177
21553SOL    HW276638   1.926   2.870   7.858  0.2828 -1.9669 -0.2828
21554SOL     OW76639   1.472   2.572   9.720  0.3710 -0.2393 -0.3067
21554SOL    HW176640   1.519   2.627   9.657 -0.5059  2.1582  0.9952
21554SOL    HW276641   1.379   2.591   9.704  0.1074  1.6861  2.5348
21555SOL     OW76642   0.363   7.560   0.453  0.5387  0.2469  0.3246
21555SOL    HW176643   0.372   7.598   0.541 -0.0460  0.8352  0.1411
21555SOL    HW276644   0.377   7.634   0.394  0.3368 -0.0209 -0.0610
21556SOL     OW76645   3.538   7.789   6.642 -0.2913  0.4165 -0.5186
21556SOL    HW176646   3.542   7.724   6.572  1.5406 -0.1918  0.0929
21556SOL    HW276647   3.473   7.755   6.703  2.2642 -2.1738  0.9751
21557SOL     OW76648   9.617   4.663   1.185  0.0518  0.0123 -0.6784
21557SOL    HW176649   9.705   4.694   1.205  0.0358 -0.1083 -0.4230
21557SOL    HW276650   9.589   4.717   1.111 -0.2217  1.0578  0.1661
21558SOL     OW76651   8.092   1.282   2.247  0.3663 -0.1519 -0.4299
21558SOL    HW176652   8.058   1.278   2.336 -2.3339 -0.7610 -1.3887
21558SOL    HW276653   8.187   1.289   2.257  0.2190 -1.1838  2.4571
21559SOL     OW76654   9.976   0.227   7.827  0.4890 -0.0555 -0.3233
21559SOL    HW176655   9.896   0.189   7.790 -0.6568  1.5998  0.3567
21559SOL    HW276656  10.038   0.154   7.829 -1.1327 -1.4998 -0.4381
21560SOL     OW76657   4.964   8.943   6.448 -0.5879  0.2919  0.0242
21560SOL    HW176658   5.055   8.915   6.454 -0.5459 -0.2527 -2.1755
21560SOL    HW276659   4.965   9.036   6.470  0.2897  0.0330  1.1537
21561SOL     OW76660   2.535   5.391   8.264 -0.5845 -0.0052 -0.0723
21561SOL    HW176661   2.533   5.421   8.173 -1.6996 -1.7177 -0.6646
21561SOL    HW276662   2.453   5.424   8.302 -0.7521 -0.4148 -0.0780
21562SOL     OW76663   9.576   1.490   0.608 -0.1405  0.3870  0.0533
21562SOL    HW176664   9.597   1.398   0.619  0.3159  0.2704 -1.5797
21562SOL    HW276665   9.485   1.498   0.637 -0.3245 -0.6695 -0.2077
21563SOL     OW76666   2.765   8.291   7.924  0.7964 -0.1355 -0.3927
21563SOL    HW176667   2.827   8.265   7.993  0.5041 -0.5466 -0.2815
21563SOL    HW276668   2.716   8.363   7.963  1.2015  0.1951 -0.4820
21564SOL     OW76669   5.764   8.368   0.697 -0.5513 -0.2851  0.3759
21564SOL    HW176670   5.760   8.314   0.619 -0.5945 -1.3432  1.0839
21564SOL    HW276671   5.675   8.404   0.705  0.3660  3.0217 -2.1616
21565SOL     OW76672   9.234   3.879   7.323  0.2641 -0.1600 -0.6035
21565SOL    HW176673   9.229   3.792   7.364  0.3277  0.2181  0.2316
21565SOL    HW276674   9.189   3.868   7.239  1.1774 -1.2628 -0.9841
21566SOL     OW76675   3.533   9.269   2.231  0.0426 -0.6610  0.1615
21566SOL    HW176676   3.492   9.192   2.193 -3.2723  1.1916 -0.3395
21566SOL    HW276677   3.571   9.316   2.157 -1.3279  0.0419 -0.1300
21567SOL     OW76678   4.275   0.013   2.266 -0.1389  0.5041  0.2958
21567SOL    HW176679   4.207  -0.017   2.206  0.0366  0.5442  0.0743
21567SOL    HW276680   4.313  -0.068   2.302 -0.2352  0.4804  0.3449
21568SOL     OW76681   1.456   9.161   3.075  0.4188 -0.0794  0.0586
21568SOL    HW176682   1.460   9.228   3.144  2.6898  0.3624 -0.4246
21568SOL    HW276683   1.491   9.082   3.117 -0.9544 -0.6223  0.2252
21569SOL     OW76684   3.357   9.568   3.044 -0.2711 -0.4440 -0.3686
21569SOL    HW176685   3.450   9.564   3.066 -0.5366  0.7281  1.1563
21569SOL    HW276686   3.326   9.478   3.054  0.4237 -0.6024  0.4884
21570SOL     OW76687   1.618   3.191   0.251 -0.0067  0.0462 -0.2030
21570SOL    HW176688   1.605   3.283   0.273 -0.5764 -0.0035 -0.3171
21570SOL    HW276689   1.554   3.173   0.182 -1.1020 -0.8683  0.9954
21571SOL     OW76690   4.044   9.666   7.678  0.4399 -0.3305 -0.0456
21571SOL    HW176691   3.961   9.674   7.631  0.8931  1.1509 -0.6735
21571SOL    HW276692   4.023   9.685   7.769 -0.3374 -2.5735  0.2887
21572SOL     OW76693   7.945   4.336   6.133  0.4809  0.0284 -0.7267
21572SOL    HW176694   7.967   4.388   6.056 -0.1915  1.0578 -0.2488
21572SOL    HW276695   7.868   4.285   6.106  1.8882 -1.7187 -1.6036
21573SOL     OW76696   6.474   0.223   2.887 -0.4384 -0.0856  0.3466
21573SOL    HW176697   6.536   0.243   2.816 -0.2229  0.4664  0.6819
21573SOL    HW276698   6.509   0.144   2.928 -1.1003 -0.9765 -0.7695
21574SOL     OW76699   6.544   3.529   6.758  0.2039 -0.2583 -0.4838
21574SOL    HW176700   6.579   3.613   6.789  1.1435 -0.3185 -1.3219
21574SOL    HW276701   6.478   3.506   6.823 -0.5328  1.4312 -0.5652
21575SOL     OW76702   6.299   7.084   9.445 -0.5072 -0.5317 -0.3321
21575SOL    HW176703   6.303   7.127   9.359  2.5461 -1.6153 -0.8464
21575SOL    HW276704   6.294   7.157   9.507 -0.2710  0.3684 -1.3303
21576SOL     OW76705   7.030   9.937   3.615 -0.2221 -0.0864  0.5068
21576SOL    HW176706   7.038   9.986   3.696 -1.6284 -0.2146  0.7412
21576SOL    HW276707   7.120   9.931   3.582  0.4789 -0.5634  2.3557
21577SOL     OW76708   4.666   3.971   0.675 -0.4037  0.2044  0.3631
21577SOL    HW176709   4.700   4.061   0.672  0.0680  0.0115 -1.2927
21577SOL    HW276710   4.647   3.956   0.767  1.4107  1.3097  0.9841
21578SOL     OW76711   4.496   8.221   2.579 -0.1002 -0.4399 -0.3051
21578SOL    HW176712   4.411   8.180   2.565 -0.0759 -0.9288  0.8520
21578SOL    HW276713   4.554   8.177   2.518 -0.4112 -1.0350 -0.1843
21579SOL     OW76714   2.077   2.717   4.589  0.2941 -0.2833  0.4441
21579SOL    HW176715   2.134   2.787   4.620  1.5282 -2.1474  2.7831
21579SOL    HW276716   2.101   2.704   4.498  0.7641  1.5845  0.2621
21580SOL     OW76717   5.693   0.340   4.302  0.5713  0.1642  0.4378
21580SOL    HW176718   5.786   0.347   4.281  0.5362  1.0258  0.5308
21580SOL    HW276719   5.659   0.275   4.240  0.7143  1.7390 -1.3898
21581SOL     OW76720   2.972   0.686   2.584 -0.2903 -0.1078 -0.1323
21581SOL    HW176721   2.941   0.630   2.513 -0.4583 -0.0202 -0.1292
21581SOL    HW276722   2.908   0.675   2.653 -1.1488  1.2111 -0.6709
21582SOL     OW76723   9.242  10.131   4.347  0.2652 -0.0325 -0.8140
21582SOL    HW176724   9.260  10.094   4.434 -1.0153 -1.1073 -0.9753
21582SOL    HW276725   9.216  10.222   4.365  0.1156 -0.2121 -0.0914
21583SOL     OW76726   1.371   0.600   3.751 -0.1158  0.1442  0.4833
21583SOL    HW176727   1.388   0.639   3.666 -1.6296  0.7557  0.4196
21583SOL    HW276728   1.423   0.651   3.812  0.2440  0.3161  0.0349
21584SOL     OW76729   5.166   9.013   5.189  0.1987 -0.2185  0.3427
21584SOL    HW176730   5.151   8.984   5.099 -0.9392 -1.6006  0.9334
21584SOL    HW276731   5.200   9.101   5.180 -1.7170  0.4399 -1.4045
21585SOL     OW76732   8.783   4.515   7.796 -0.2468  0.4187  0.3498
21585SOL    HW176733   8.700   4.561   7.783 -0.1394  0.5120 -0.0378
21585SOL    HW276734   8.758   4.430   7.832 -0.5563  0.2405 -0.2643
21586SOL     OW76735   3.189   5.071   5.264  0.2576  0.5192 -0.1228
21586SOL    HW176736   3.148   5.012   5.327  3.8394  0.5022  2.4751
21586SOL    HW276737   3.201   5.017   5.186  2.6196 -2.1777  1.8728
21587SOL     OW76738   5.040   3.283   6.761 -0.1599 -0.7744 -0.5361
21587SOL    HW176739   5.049   3.375   6.785  1.1030 -0.6144 -1.4683
21587SOL    HW276740   4.948   3.263   6.775 -0.3763  0.5284  0.0350
21588SOL     OW76741   7.190   4.332   6.032 -0.4701 -0.0909  0.4811
21588SOL    HW176742   7.266   4.389   6.023 -1.3625  0.9639 -0.7856
21588SOL    HW276743   7.203   4.288   6.116  0.8807  1.0392  0.9085
21589SOL     OW76744   6.469   6.317   0.756  0.1459 -0.1456  0.0138
21589SOL    HW176745   6.564   6.327   0.744  0.4305 -3.5103 -1.7741
21589SOL    HW276746   6.439   6.274   0.675 -2.8050  0.1897  0.8196
21590SOL     OW76747   2.527   8.546  10.298  0.3323  0.0400  0.0946
21590SOL    HW176748   2.554   8.633  10.327 -1.0325  1.7241 -3.0465
21590SOL    HW276749   2.596   8.519  10.237 -0.3041 -0.0044 -0.6270
21591SOL     OW76750   3.132   5.740   0.857  0.6523  0.4157  0.3275
21591SOL    HW176751   3.190   5.670   0.827 -0.4332 -1.1469  1.7081
21591SOL    HW276752   3.179   5.778   0.932  1.1183  1.0068 -0.2547
21592SOL     OW76753   2.044   1.096   5.278  0.4157 -0.4115 -0.5418
21592SOL    HW176754   1.993   1.175   5.296  2.0521  0.4586  0.6287
21592SOL    HW276755   1.989   1.024   5.307 -0.0535  0.5174  0.9687
21593SOL     OW76756   9.267   2.891   1.974 -0.2348 -0.3984  0.9094
21593SOL    HW176757   9.333   2.821   1.979 -0.1485 -0.4671 -0.6559
21593SOL    HW276758   9.308   2.966   2.015 -0.2066 -1.1589  2.3490
21594SOL     OW76759   4.029   4.758   1.229  0.1964 -0.2486  0.5207
21594SOL    HW176760   3.949   4.759   1.177  1.0563 -1.4465 -0.9238
21594SOL    HW276761   4.039   4.666   1.257  0.3153  0.1688  1.9397
21595SOL     OW76762   6.976   6.333  10.294 -0.3375  0.5035  0.0095
21595SOL    HW176763   7.017   6.418  10.313 -0.9189  1.2653 -1.8565
21595SOL    HW276764   7.029   6.269  10.343 -0.0769  1.9417  1.7195
21596SOL     OW76765   3.162   6.485   1.054 -0.2241 -0.3688 -0.2955
21596SOL    HW176766   3.255   6.508   1.060 -0.4635  0.3229  2.6921
21596SOL    HW276767   3.132   6.527   0.973  1.5760  1.4575 -0.1140
21597SOL     OW76768   0.002   1.628   3.833  0.4409 -0.1127 -0.1667
21597SOL    HW176769  -0.041   1.697   3.784  1.0732  0.1345 -0.3896
21597SOL    HW276770   0.086   1.615   3.788  0.2283 -1.2004 -0.2800
21598SOL     OW76771   6.284   3.914   0.038  0.2265  0.2104 -0.1929
21598SOL    HW176772   6.318   3.979  -0.024 -0.1176  1.4862  0.9136
21598SOL    HW276773   6.352   3.846   0.041  0.7881  0.7216 -1.0632
21599SOL     OW76774   6.835   8.940   8.280 -0.1218 -0.1287  0.1514
21599SOL    HW176775   6.789   8.984   8.208  1.9553 -0.7925 -1.7197
21599SOL    HW276776   6.890   8.875   8.236  0.0333 -1.7029  2.5163
21600SOL     OW76777   1.020   0.032   1.301  0.4494  0.3606  0.1597
21600SOL    HW176778   1.056  -0.036   1.357  0.1945 -0.3021 -0.4621
21600SOL    HW276779   0.943  -0.008   1.261  0.8285  0.6917 -0.9426
21601SOL     OW76780   1.639   3.361   1.998 -0.5405  0.0525  0.0743
21601SOL    HW176781   1.621   3.403   2.082 -0.1198  0.6575 -0.1275
21601SOL    HW276782   1.673   3.275   2.020  0.1556  0.4351  0.5466
21602SOL     OW76783   6.785   2.514   6.051  0.1470  0.1870  0.0755
21602SOL    HW176784   6.853   2.574   6.084  0.0493 -0.6055  1.8312
21602SOL    HW276785   6.716   2.518   6.117 -1.0656  0.1637 -1.1590
21603SOL     OW76786   9.335   3.428   6.675 -0.1037 -0.2277 -0.1455
21603SOL    HW176787   9.338   3.509   6.624 -0.8135  0.0800  0.2854
21603SOL    HW276788   9.382   3.364   6.621  2.9447  1.0972  0.7244
21604SOL     OW76789   7.922   7.077   8.818 -0.3564 -0.4556 -0.0915
21604SOL    HW176790   7.948   7.165   8.845 -1.7906  0.1211 -0.5007
21604SOL    HW276791   7.981   7.018   8.866 -0.3098  0.6693  1.2870
21605SOL     OW76792   0.909   4.939   3.279  0.4379 -0.1089  0.4472
21605SOL    HW176793   0.847   4.924   3.350  1.5303 -0.9758  1.2430
21605SOL    HW276794   0.965   5.011   3.311 -0.3784  0.9596 -0.4390
21606SOL     OW76795   6.087   9.036   7.412 -0.2249 -0.4143  0.0970
21606SOL    HW176796   6.050   9.124   7.410 -0.8770 -0.6985 -0.8853
21606SOL    HW276797   6.030   8.987   7.471 -0.4904 -0.4607 -0.2022
21607SOL     OW76798   6.779   5.391   8.913  0.6150 -0.2809  0.2013
21607SOL    HW176799   6.697   5.344   8.927  0.1800  0.6573  0.9133
21607SOL    HW276800   6.847   5.324   8.923 -0.0802 -1.3290 -1.6243
21608SOL     OW76801   4.278   0.160   5.702  0.3223 -0.5021  0.4874
21608SOL    HW176802   4.194   0.196   5.730  0.1994 -0.3192 -0.1000
21608SOL    HW276803   4.313   0.225   5.641  1.0374 -0.4307  0.9688
21609SOL     OW76804   1.921   1.561   9.003 -0.3269 -0.3335 -0.2356
21609SOL    HW176805   1.863   1.633   9.029 -1.0648 -0.6190 -1.0498
21609SOL    HW276806   1.864   1.484   9.002  0.3784 -0.8724  0.2681
21610SOL     OW76807   4.229   7.176   0.715  0.0525 -0.4008 -0.1172
21610SOL    HW176808   4.318   7.204   0.695 -0.6069  0.6551 -1.8725
21610SOL    HW276809   4.227   7.083   0.691  0.2173  0.0230 -1.9196
21611SOL     OW76810   9.199   1.648   3.489 -0.9926 -0.5627  0.5275
21611SOL    HW176811   9.274   1.707   3.502 -2.0518  0.8946  0.2041
21611SOL    HW276812   9.218   1.573   3.546  1.1700 -0.6967 -0.2755
21612SOL     OW76813   8.371   1.067   1.220  0.0426 -0.0086  0.4635
21612SOL    HW176814   8.359   1.138   1.282  0.0336  0.3399  0.0669
21612SOL    HW276815   8.455   1.028   1.243 -0.7924 -1.0722  1.8698
21613SOL     OW76816   7.343   7.501   9.290 -0.2687 -0.3204  0.4035
21613SOL    HW176817   7.304   7.570   9.236  0.9589  0.7301  0.7970
21613SOL    HW276818   7.269   7.461   9.335 -1.1243 -0.0456 -0.7238
21614SOL     OW76819   6.564   1.357   3.184  0.3053 -0.3573  0.4075
21614SOL    HW176820   6.576   1.263   3.182  1.2427 -0.2505 -1.0981
21614SOL    HW276821   6.572   1.384   3.092  0.3631  1.2174  0.8412
21615SOL     OW76822   8.115   6.716   9.459 -0.1835  0.7985  0.5975
21615SOL    HW176823   8.148   6.635   9.421  1.4545  1.2769  0.8973
21615SOL    HW276824   8.020   6.709   9.454 -0.0691 -1.0785  0.5133
21616SOL     OW76825   6.393   7.887   3.032 -0.5534  0.5378  0.3619
21616SOL    HW176826   6.403   7.913   2.941 -1.9212  1.2490  0.3900
21616SOL    HW276827   6.426   7.962   3.082  1.7421 -0.4959  0.4966
21617SOL     OW76828   4.672   8.372   0.252 -0.0614  0.7379  0.5291
21617SOL    HW176829   4.725   8.430   0.307  0.7717  0.9815 -0.4966
21617SOL    HW276830   4.706   8.285   0.269  2.5061  1.1217 -1.9992
21618SOL     OW76831   6.180   6.015   1.523  0.0085 -0.6771 -0.0027
21618SOL    HW176832   6.174   5.963   1.444  0.2403 -0.1905 -0.3431
21618SOL    HW276833   6.211   6.101   1.494  2.5194 -1.1838  0.9006
21619SOL     OW76834   2.224   6.551   3.026 -0.1793  0.0335 -0.4419
21619SOL    HW176835   2.188   6.626   2.980  0.3159  0.6241  0.1130
21619SOL    HW276836   2.274   6.589   3.098 -0.7152 -0.8553  0.4245
21620SOL     OW76837   1.261   7.466   7.356  0.5278 -0.0995  0.8141
21620SOL    HW176838   1.327   7.526   7.323 -0.3542  0.7722  0.6031
21620SOL    HW276839   1.280   7.459   7.450  1.5227 -0.6535  0.5867
21621SOL     OW76840   5.046   0.352   8.617 -0.5387 -0.0595  0.2078
21621SOL    HW176841   5.105   0.284   8.583  2.3884  2.2625  0.1895
21621SOL    HW276842   5.007   0.314   8.695  1.1998 -1.6927  0.3485
21622SOL     OW76843   8.120   8.491   1.696 -0.1957 -0.3906 -0.2059
21622SOL    HW176844   8.211   8.498   1.725 -0.0256 -1.6684 -0.3924
21622SOL    HW276845   8.078   8.436   1.761 -0.7539 -0.1126 -0.3250
21623SOL     OW76846   5.886   5.316   3.300 -0.0144 -0.0319 -0.1609
21623SOL    HW176847   5.974   5.280   3.286  0.5678  1.2480  0.1496
21623SOL    HW276848   5.867   5.298   3.392  0.1519  0.1848 -0.0842
21624SOL     OW76849   4.871   9.006   0.348 -0.3070 -0.2971 -0.3154
21624SOL    HW176850   4.804   8.940   0.330 -1.2138  1.1776 -2.7453
21624SOL    HW276851   4.828   9.068   0.408 -0.1730 -0.7826  0.2863
21625SOL     OW76852   6.461   2.358   6.552  0.1146 -0.3955 -0.3402
21625SOL    HW176853   6.458   2.263   6.540 -0.9140 -0.4006 -0.1005
21625SOL    HW276854   6.399   2.393   6.489  1.6158  0.2582 -1.5314
21626SOL     OW76855   2.931   5.902   8.913  0.2217 -0.1686 -0.8343
21626SOL    HW176856   2.903   5.920   9.002 -0.7410 -0.3862 -1.0897
21626SOL    HW276857   2.984   5.823   8.920  0.7450  0.2142 -0.3634
21627SOL     OW76858   8.974   9.709   8.035 -0.1622  0.5132  0.4283
21627SOL    HW176859   8.894   9.657   8.039  0.3162 -0.3150 -0.4440
21627SOL    HW276860   8.956   9.777   7.971 -0.6276  1.1772  1.2371
21628SOL     OW76861  10.093   0.007   8.133 -0.5156  0.7180 -0.5229
21628SOL    HW176862  10.066   0.099   8.139 -0.4842  0.8469 -1.9685
21628SOL    HW276863  10.103  -0.009   8.039 -1.3224 -1.0028 -0.3540
21629SOL     OW76864   6.664   8.126   6.289 -0.1520 -0.4326 -0.3775
21629SOL    HW176865   6.720   8.049   6.285 -0.7608 -0.8653 -0.8215
21629SOL    HW276866   6.610   8.121   6.210  0.4742  0.9863 -0.9224
21630SOL     OW76867   7.896   8.346   9.381  0.6642 -0.3177 -0.3194
21630SOL    HW176868   7.831   8.276   9.391  1.4121 -0.7647  2.0889
21630SOL    HW276869   7.850   8.415   9.333 -0.6958 -1.7007 -1.1066
21631SOL     OW76870   9.554   6.612   8.366 -0.0792 -0.0700 -0.0424
21631SOL    HW176871   9.632   6.657   8.398  0.5136 -1.6548  0.8687
21631SOL    HW276872   9.514   6.575   8.444 -0.3560 -1.3797 -0.7803
21632SOL     OW76873   9.841   1.845   8.671 -0.2321 -0.1986  0.1469
21632SOL    HW176874   9.880   1.767   8.632 -1.4249 -1.7419  1.8494
21632SOL    HW276875   9.750   1.844   8.642 -0.1155  0.9252 -0.3066
21633SOL     OW76876   9.759   7.654   8.049 -0.1537  0.0975  0.5875
21633SOL    HW176877   9.714   7.733   8.078 -0.6243 -0.3821  1.1690
21633SOL    HW276878   9.780   7.607   8.129  1.0010  0.0918  0.3015
21634SOL     OW76879   6.212   4.434   6.192 -0.0803  0.6315  0.2333
21634SOL    HW176880   6.158   4.355   6.192  1.1629 -0.2468 -0.1835
21634SOL    HW276881   6.302   4.402   6.194  0.5159  1.9848 -1.8596
21635SOL     OW76882   1.923   0.712   5.078 -0.2859 -0.4628 -0.1365
21635SOL    HW176883   1.908   0.790   5.131  1.1924  0.7186 -1.3531
21635SOL    HW276884   1.900   0.739   4.989  0.1143 -1.4503 -0.5505
21636SOL     OW76885   3.866   8.498   6.312 -0.0627  0.3508  0.0840
21636SOL    HW176886   3.806   8.507   6.238 -1.3842 -0.3101  1.0373
21636SOL    HW276887   3.877   8.586   6.346 -0.1635  0.5290 -0.3425
21637SOL     OW76888   4.453   1.838  10.186  0.1913 -0.2699 -0.3948
21637SOL    HW176889   4.367   1.841  10.228  0.5842 -0.2020  0.4212
21637SOL    HW276890   4.515   1.831  10.259  0.9335  0.5384 -0.9368
21638SOL     OW76891   5.833   3.585   3.627  0.7800 -0.6731 -0.2883
21638SOL    HW176892   5.896   3.564   3.696 -0.0598  1.0006  1.0815
21638SOL    HW276893   5.884   3.588   3.546  2.0713 -1.2868  0.4866
21639SOL     OW76894  10.271   5.857   9.992 -0.3442 -0.3201  0.4795
21639SOL    HW176895  10.318   5.931   9.954  2.3654 -2.2972 -0.3833
21639SOL    HW276896  10.311   5.846  10.079  0.0202 -1.3710  0.1871
21640SOL     OW76897   1.659   9.449   8.324  0.0377  0.8521  0.4304
21640SOL    HW176898   1.597   9.375   8.325  0.5982  0.3644 -0.0662
21640SOL    HW276899   1.735   9.415   8.277 -0.1345  2.1018 -0.7885
21641SOL     OW76900   9.683   3.162   5.549 -0.0074 -0.1028  0.8390
21641SOL    HW176901   9.684   3.123   5.637 -0.8906  1.3437  1.5179
21641SOL    HW276902   9.666   3.088   5.491  0.0186 -0.9986  1.9338
21642SOL     OW76903   5.266   9.146   0.049  0.4350  0.3935  0.1225
21642SOL    HW176904   5.312   9.178  -0.028  1.6606  1.0226  1.0805
21642SOL    HW276905   5.279   9.214   0.115  1.4794 -1.1788  1.6220
21643SOL     OW76906   1.404   9.251   0.009 -0.4875 -0.0673 -0.0815
21643SOL    HW176907   1.415   9.313   0.081 -0.7400  0.6246 -0.6226
21643SOL    HW276908   1.311   9.227   0.012 -0.3633 -0.5344  0.2079
21644SOL     OW76909  10.070   8.290   1.396 -0.3177 -0.1245 -0.1487
21644SOL    HW176910  10.026   8.228   1.339  0.0586 -0.0140 -0.5640
21644SOL    HW276911  10.017   8.370   1.389 -0.9188 -0.4490  0.5457
21645SOL     OW76912   8.407   3.536   6.173 -0.0617 -0.4069  0.1294
21645SOL    HW176913   8.414   3.624   6.211  1.6472 -0.6235  0.3766
21645SOL    HW276914   8.437   3.546   6.083 -0.4276 -0.6351 -0.0213
21646SOL     OW76915   2.985   9.299   4.430 -0.3767  0.0709  0.1425
21646SOL    HW176916   2.951   9.383   4.462  1.1158  1.5246 -1.8263
21646SOL    HW276917   3.070   9.290   4.474 -0.9233 -0.9385  1.0552
21647SOL     OW76918   9.675   2.452   2.288  0.6767  0.0033  0.9839
21647SOL    HW176919   9.718   2.518   2.233 -1.8371  2.5771  1.8490
21647SOL    HW276920   9.592   2.435   2.244 -0.4373  0.4971  2.7984
21648SOL     OW76921   6.926   8.014   3.477  0.1782 -0.2885  0.1994
21648SOL    HW176922   6.945   8.005   3.571  0.0048  0.3869  0.3042
21648SOL    HW276923   6.847   7.961   3.464 -1.5516  1.9373  1.0587
21649SOL     OW76924   5.813   2.663   6.306 -0.3764  0.6673  0.0514
21649SOL    HW176925   5.818   2.728   6.235  1.9616  0.2219 -0.2633
21649SOL    HW276926   5.790   2.581   6.262 -0.3319  0.6822 -0.0010
21650SOL     OW76927   5.079   2.107  10.358 -0.3627 -0.3918 -0.1277
21650SOL    HW176928   5.060   2.197  10.333 -0.2588 -0.0218  1.0855
21650SOL    HW276929   5.153   2.082  10.303 -0.4680  0.2120 -0.5577
21651SOL     OW76930   1.194   0.447   1.071 -0.1747 -0.4128  0.1647
21651SOL    HW176931   1.279   0.411   1.097 -0.2573  0.0753  1.1740
21651SOL    HW276932   1.136   0.425   1.143 -0.8744 -0.6097 -0.4564
21652SOL     OW76933   6.404   1.284   7.806 -0.1717 -0.2903 -0.0564
21652SOL    HW176934   6.473   1.250   7.750  1.0573 -0.7605  1.6893
21652SOL    HW276935   6.411   1.380   7.798  1.0220 -0.3228  0.5007
21653SOL     OW76936   7.541   7.718   3.296 -0.5579 -0.0854  0.3848
21653SOL    HW176937   7.631   7.720   3.328  0.2026  2.6026 -1.6219
21653SOL    HW276938   7.489   7.745   3.372  0.4793 -0.2800  1.1876
21654SOL     OW76939   6.471   2.069   8.835  0.0351 -0.3674 -0.2881
21654SOL    HW176940   6.375   2.073   8.834  0.0398 -0.4625 -0.9912
21654SOL    HW276941   6.492   2.035   8.922 -0.6267 -2.0440 -0.7413
21655SOL     OW76942   2.917   0.745   7.207  0.4719  0.7368 -0.1469
21655SOL    HW176943   2.924   0.808   7.136 -2.5785  2.0136  0.5084
21655SOL    HW276944   2.856   0.679   7.175 -0.6606  1.1382  1.0888
21656SOL     OW76945   9.838   2.577   5.704 -0.1911 -0.2409 -0.1921
21656SOL    HW176946   9.917   2.620   5.671  0.4986 -1.0428  0.3914
21656SOL    HW276947   9.819   2.622   5.787 -1.0276  0.7181 -0.8700
21657SOL     OW76948   4.396   7.719   8.842 -0.2529 -0.1526 -0.1210
21657SOL    HW176949   4.490   7.731   8.831 -0.5804  1.2221 -1.8340
21657SOL    HW276950   4.363   7.703   8.754 -1.5834 -1.0125  0.5074
21658SOL     OW76951   8.837   3.856   6.300 -0.5077 -0.0431 -0.6896
21658SOL    HW176952   8.785   3.816   6.230 -2.5115 -0.0250  0.6950
21658SOL    HW276953   8.925   3.820   6.288 -1.3825 -2.0154 -1.6943
21659SOL     OW76954   3.535   5.459   2.154  0.7165  0.2439 -0.1284
21659SOL    HW176955   3.471   5.387   2.157  1.1724 -0.1853 -0.4415
21659SOL    HW276956   3.503   5.517   2.085  0.4521  0.2410 -0.0105
21660SOL     OW76957   4.126   2.917   8.973 -0.2335 -0.2853 -0.0042
21660SOL    HW176958   4.169   2.906   8.888 -0.2501  2.0141 -0.3884
21660SOL    HW276959   4.034   2.897   8.957 -0.1853 -0.1491 -0.4603
21661SOL     OW76960   3.592   8.508   6.140  0.1146 -0.0459  0.2615
21661SOL    HW176961   3.564   8.522   6.050  1.8135  1.5629 -0.0835
21661SOL    HW276962   3.636   8.423   6.138  0.3084  0.0661 -0.4826
21662SOL     OW76963   9.810   3.969   1.489  0.1055 -0.5646 -0.2528
21662SOL    HW176964   9.851   3.981   1.403 -0.2058 -0.7452 -0.4294
21662SOL    HW276965   9.846   4.040   1.543  1.2842 -1.2172 -0.1575
21663SOL     OW76966   3.007   9.033   1.124  0.3910 -0.2268 -0.3191
21663SOL    HW176967   3.042   9.031   1.035  2.7085 -1.4441  0.5382
21663SOL    HW276968   2.932   8.973   1.121  1.2918 -1.3669 -1.1677
21664SOL     OW76969   9.254   6.119  10.367  0.0115 -0.4148  0.2189
21664SOL    HW176970   9.330   6.100  10.313 -0.3335 -0.5518 -0.2254
21664SOL    HW276971   9.233   6.037  10.411 -0.0456 -0.4502  0.1262
21665SOL     OW76972   8.491   4.649   0.745 -0.2037 -0.1979 -0.1855
21665SOL    HW176973   8.566   4.701   0.715 -0.1448  0.3927  0.9078
21665SOL    HW276974   8.428   4.654   0.674  0.3339  0.2906 -0.6428
21666SOL     OW76975   7.857   6.602   0.543 -0.2067  0.2964 -0.3384
21666SOL    HW176976   7.908   6.575   0.619  1.0696  0.1588 -1.2216
21666SOL    HW276977   7.774   6.633   0.580  0.0282 -0.6072  1.0328
21667SOL     OW76978   6.925   9.766   4.807  0.3231  0.3044  0.3564
21667SOL    HW176979   6.999   9.785   4.749 -0.3185 -1.9237 -1.3393
21667SOL    HW276980   6.947   9.682   4.846 -0.1918  0.8306  1.8343
21668SOL     OW76981   5.616   3.865   0.856 -0.1254 -0.0067  0.0479
21668SOL    HW176982   5.664   3.825   0.784 -0.0755 -1.0769  0.6482
21668SOL    HW276983   5.680   3.868   0.928  0.1092  1.8865 -0.1894
21669SOL     OW76984   9.628   5.245   1.359  0.3911 -0.4954  0.2411
21669SOL    HW176985   9.645   5.328   1.314 -0.1741 -1.1168 -1.1839
21669SOL    HW276986   9.672   5.179   1.305 -0.3933 -1.2785  0.5415
21670SOL     OW76987   7.248  10.209   3.483  0.4577 -0.0755 -0.3514
21670SOL    HW176988   7.158  10.221   3.455 -0.0756 -0.8414  0.9186
21670SOL    HW276989   7.277  10.296   3.511 -0.4064 -0.0876  0.6316
21671SOL     OW76990   1.058   8.938   7.376 -0.5129 -0.1075  0.5034
21671SOL    HW176991   1.044   8.843   7.367  0.7610 -0.3052  0.4892
21671SOL    HW276992   1.080   8.967   7.287 -0.6688  0.1689  0.5530
21672SOL     OW76993   0.873   3.448   7.782  0.0803  0.1842 -0.3543
21672SOL    HW176994   0.846   3.359   7.806 -2.2328  0.8936 -0.1379
21672SOL    HW276995   0.795   3.501   7.794  0.9214  1.9590 -2.1663
21673SOL     OW76996   3.856   5.042   9.119 -0.0694 -0.5461  0.4057
21673SOL    HW176997   3.849   5.123   9.069  0.8340  0.2439  1.5187
21673SOL    HW276998   3.884   4.976   9.055  0.2329  0.2568 -0.3026
21674SOL     OW76999   6.406   7.488   1.921 -0.4097 -0.5738  0.8688
21674SOL    HW177000   6.451   7.506   2.004  0.5133  1.0326  0.0678
21674SOL    HW277001   6.377   7.397   1.929  1.1861 -1.0123  2.2493
21675SOL     OW77002   3.574   0.549   2.442 -0.2388 -0.0281 -0.6024
21675SOL    HW177003   3.568   0.481   2.374 -1.7617 -1.3769  0.7753
21675SOL    HW277004   3.483   0.573   2.458  0.2864  3.2886 -1.8496
21676SOL     OW77005   5.131   9.120   7.973 -0.2245  0.2225  0.3879
21676SOL    HW177006   5.168   9.208   7.968  0.8435 -0.2542 -0.7387
21676SOL    HW277007   5.182   9.069   7.909 -1.0772 -1.1155  0.7319
21677SOL     OW77008   6.281   9.648   8.533  0.2750 -0.2172 -0.5877
21677SOL    HW177009   6.298   9.742   8.525 -0.5214 -0.0254 -0.1844
21677SOL    HW277010   6.232   9.640   8.615 -2.1544 -0.6133 -1.9912
21678SOL     OW77011   5.569   4.580   8.614 -0.3192 -0.3659 -0.0791
21678SOL    HW177012   5.657   4.579   8.576 -0.6169  0.0603 -0.7920
21678SOL    HW277013   5.550   4.488   8.631  0.6799 -0.3779  1.0780
21679SOL     OW77014   7.435   8.946   1.618  0.2081 -0.0872 -0.0778
21679SOL    HW177015   7.506   8.882   1.628  0.0351 -0.4339 -0.9767
21679SOL    HW277016   7.359   8.894   1.593  0.4901  0.5873 -2.6655
21680SOL     OW77017   0.694   8.081   0.636 -0.3913 -0.2650  0.6115
21680SOL    HW177018   0.629   8.117   0.696  1.0259  1.7158  1.0340
21680SOL    HW277019   0.737   8.011   0.686 -2.2888 -1.8181  0.2228
21681SOL     OW77020   5.924   7.465   6.373  0.3550  0.5711  0.0839
21681SOL    HW177021   5.838   7.437   6.344  1.4330 -1.2965 -1.5448
21681SOL    HW277022   5.934   7.425   6.460  1.3206 -3.3677 -1.6242
21682SOL     OW77023   9.079   7.613   7.493 -0.5473  0.3259  0.2744
21682SOL    HW177024   9.050   7.602   7.403 -0.1137 -0.3860  0.2081
21682SOL    HW277025   9.121   7.699   7.495 -0.0768  0.1149 -0.3408
21683SOL     OW77026   3.186   7.704   0.956 -0.4934  0.1344 -0.2306
21683SOL    HW177027   3.135   7.764   0.902 -0.0666  1.0405  0.3405
21683SOL    HW277028   3.262   7.756   0.984 -1.1649  0.0123  1.9969
21684SOL     OW77029   6.582   3.371   5.687 -0.0426 -0.2671 -0.2773
21684SOL    HW177030   6.508   3.408   5.736  0.2491 -0.4270  0.2903
21684SOL    HW277031   6.556   3.280   5.669  0.0366 -0.3372 -0.0364
21685SOL     OW77032   2.372   0.933   1.579 -0.2703 -0.2545 -0.3423
21685SOL    HW177033   2.364   1.027   1.596 -2.1797  0.2420 -3.2683
21685SOL    HW277034   2.350   0.924   1.486  0.5079 -3.5470 -0.3058
21686SOL     OW77035   0.087   1.910   0.980  0.3783 -0.4988 -0.1904
21686SOL    HW177036   0.035   1.987   1.004 -0.8542 -1.3535 -0.0102
21686SOL    HW277037   0.089   1.910   0.885 -1.1262 -1.1667 -0.2545
21687SOL     OW77038   9.463   5.075   8.761  0.3791 -0.1161 -0.1263
21687SOL    HW177039   9.534   5.133   8.734  0.0416  0.4993  0.2872
21687SOL    HW277040   9.402   5.076   8.687  0.0030  0.6755  0.1819
21688SOL     OW77041   0.569   5.419   5.848  0.1029 -0.0438  0.5241
21688SOL    HW177042   0.541   5.368   5.772 -0.7777 -0.3963  1.0756
21688SOL    HW277043   0.592   5.354   5.914 -0.7577  0.2516  1.1366
21689SOL     OW77044  10.356   4.291   0.456 -0.1564 -0.1788 -0.0614
21689SOL    HW177045  10.350   4.344   0.536 -0.4954 -0.3628  0.0403
21689SOL    HW277046  10.265   4.286   0.425 -0.2414 -1.3242  0.3401
21690SOL     OW77047   4.454   6.384   4.444  0.1924  0.5914 -0.2962
21690SOL    HW177048   4.482   6.298   4.477  1.1418  0.8850 -0.2826
21690SOL    HW277049   4.407   6.424   4.517 -0.3166  0.0583 -0.3279
21691SOL     OW77050   6.454   7.061   6.675 -0.5265  0.1372 -0.1104
21691SOL    HW177051   6.472   7.041   6.767 -1.5130  1.2086  0.3388
21691SOL    HW277052   6.509   7.000   6.626  1.8241  1.0831  1.1902
21692SOL     OW77053   1.698   9.862   6.575 -0.1363 -0.4404 -0.4617
21692SOL    HW177054   1.785   9.894   6.550  0.0603 -0.3930  0.2613
21692SOL    HW277055   1.714   9.804   6.650 -0.6399 -1.1142 -0.8553
21693SOL     OW77056   8.330   0.769   4.861  0.1223 -0.6728  0.4411
21693SOL    HW177057   8.292   0.756   4.774  1.5293 -0.1206 -0.2806
21693SOL    HW277058   8.394   0.839   4.849  2.3990 -2.5154  1.2957
21694SOL     OW77059   2.099   8.150   4.278 -0.0460 -0.7201  0.7880
21694SOL    HW177060   2.142   8.146   4.193  1.8265 -2.3455  1.7231
21694SOL    HW277061   2.166   8.120   4.340 -1.1041  1.0434  2.9454
21695SOL     OW77062   6.486   7.629   3.118  0.3036 -0.3955 -0.0808
21695SOL    HW177063   6.475   7.713   3.073  0.5565  0.4369  1.3639
21695SOL    HW277064   6.410   7.622   3.176 -1.2929 -2.5668 -2.2092
21696SOL     OW77065   1.160   2.821   1.053  0.0611 -0.2446 -0.5128
21696SOL    HW177066   1.115   2.754   1.106 -0.1359 -0.2915 -0.7359
21696SOL    HW277067   1.115   2.902   1.074  1.8251  0.2617  1.5734
21697SOL     OW77068   9.669   5.612   0.635  0.1365  0.2878  0.3009
21697SOL    HW177069   9.652   5.683   0.697 -1.9957  0.7913 -0.7855
21697SOL    HW277070   9.583   5.586   0.603  1.1087 -0.2615 -2.1095
21698SOL     OW77071   3.525   0.011   2.323 -0.3317  0.4494  0.0771
21698SOL    HW177072   3.502  -0.078   2.298 -1.3902  0.4722  0.8506
21698SOL    HW277073   3.566   0.002   2.409 -0.1967  0.6762  0.0374
21699SOL     OW77074   1.872   4.529   0.422  0.0189 -0.4619 -0.5222
21699SOL    HW177075   1.911   4.592   0.361 -1.3806  0.5563 -0.4353
21699SOL    HW277076   1.812   4.478   0.368 -1.3897  0.5876 -0.0291
21700SOL     OW77077   2.276   0.136   4.146 -0.3233 -0.2184  0.3741
21700SOL    HW177078   2.359   0.180   4.166  0.2487 -0.7709 -0.6540
21700SOL    HW277079   2.222   0.150   4.224  0.2069  1.3766  0.5021
21701SOL     OW77080   4.792   5.840   6.753  0.0601  0.1439 -0.0529
21701SOL    HW177081   4.724   5.872   6.812  0.4186 -2.2472  1.7942
21701SOL    HW277082   4.859   5.804   6.810  1.5292 -0.2281 -1.9019
21702SOL     OW77083   8.276   4.455   2.800  0.0485 -0.5274 -0.8598
21702SOL    HW177084   8.336   4.387   2.831  2.4208  1.4506 -0.8793
21702SOL    HW277085   8.322   4.497   2.727 -1.2287  1.2643 -0.7053
21703SOL     OW77086   7.882   8.635   9.809 -0.2489  0.5354 -0.2587
21703SOL    HW177087   7.832   8.603   9.734  0.8688  1.1224 -1.3113
21703SOL    HW277088   7.857   8.727   9.817  0.9434  0.9775 -1.1176
21704SOL     OW77089   5.587   3.136  10.175  0.1933  0.7063  0.0055
21704SOL    HW177090   5.644   3.095  10.241 -1.1445 -0.8437  0.2579
21704SOL    HW277091   5.628   3.113  10.092  1.5208  2.1063  0.2192
21705SOL     OW77092   7.374   7.940   8.102 -0.1229 -0.4310 -0.0375
21705SOL    HW177093   7.394   7.891   8.182  0.6394 -1.8622 -1.0622
21705SOL    HW277094   7.369   7.874   8.033 -0.1630  0.8183 -1.2986
21706SOL     OW77095   0.038   9.591   9.349  0.4208 -0.1882 -0.2369
21706SOL    HW177096  -0.001   9.512   9.386 -0.6368 -0.5641 -2.0871
21706SOL    HW277097   0.062   9.567   9.260  3.2293  0.5963  0.1872
21707SOL     OW77098   2.346   4.397   5.447  0.1728  0.1393  0.8503
21707SOL    HW177099   2.315   4.308   5.431 -0.6628  0.3484  1.2340
21707SOL    HW277100   2.402   4.389   5.524 -0.4331  0.0353  1.2939
21708SOL     OW77101   7.345   0.140   1.394  0.6186 -0.0780  0.2772
21708SOL    HW177102   7.337   0.169   1.303  1.8539  0.7207  0.3976
21708SOL    HW277103   7.297   0.058   1.397  0.6709 -0.1900 -1.1388
21709SOL     OW77104  10.238   4.026   6.441 -0.1090 -0.0296 -0.2075
21709SOL    HW177105  10.208   4.063   6.359  0.5039 -1.2370 -1.0070
21709SOL    HW277106  10.329   4.055   6.449  0.7203 -2.0820 -1.3628
21710SOL     OW77107   3.865   7.129   4.123 -0.1803 -0.8852 -0.0799
21710SOL    HW177108   3.903   7.195   4.065 -2.9985  0.4176 -0.6183
21710SOL    HW277109   3.905   7.147   4.209  0.9279 -0.1091 -0.7273
21711SOL     OW77110   3.298   4.722   6.443  0.5165 -0.6427 -0.4781
21711SOL    HW177111   3.297   4.810   6.481  3.0573 -0.1948 -1.2305
21711SOL    HW277112   3.289   4.664   6.519 -0.7615  0.2212  0.0729
21712SOL     OW77113   0.204   8.421   5.324 -0.0538 -0.1610  0.3336
21712SOL    HW177114   0.254   8.367   5.385  0.9221  1.4637  1.0185
21712SOL    HW277115   0.261   8.431   5.248 -0.1365  0.1045  0.3055
21713SOL     OW77116   8.574   4.464   9.932  0.6127  0.1865  0.5051
21713SOL    HW177117   8.585   4.455  10.026  0.2643  1.5169  0.6981
21713SOL    HW277118   8.589   4.557   9.915  2.3763 -0.3157 -0.9900
21714SOL     OW77119   5.288   4.879   7.608 -0.3641  0.2210  0.5353
21714SOL    HW177120   5.260   4.895   7.698 -0.5658  1.2728  0.3010
21714SOL    HW277121   5.345   4.954   7.587  0.4905 -0.5265  0.1184
21715SOL     OW77122   0.006   6.161   1.594  0.0392 -0.2914 -0.4331
21715SOL    HW177123   0.052   6.097   1.539 -1.2580 -0.3437 -1.5068
21715SOL    HW277124   0.033   6.246   1.560 -1.4823 -0.3314 -1.8056
21716SOL     OW77125   1.329   4.213   5.987  0.7021  0.6046 -0.2271
21716SOL    HW177126   1.336   4.181   6.077  0.3335  0.6266 -0.1884
21716SOL    HW277127   1.352   4.137   5.933 -0.9687  0.0129 -0.1548
21717SOL     OW77128   5.402   7.392   1.570  0.0399 -0.5036 -0.0670
21717SOL    HW177129   5.436   7.303   1.566  0.2250 -0.4529  0.3419
21717SOL    HW277130   5.416   7.420   1.660 -0.1373 -0.1060 -0.1568
21718SOL     OW77131   7.065   0.354   2.864 -0.3966  0.2962 -0.9305
21718SOL    HW177132   7.074   0.326   2.773 -0.3586  2.1412 -1.5359
21718SOL    HW277133   7.116   0.434   2.870 -0.9512  0.5765  0.5524
21719SOL     OW77134   6.610   0.400   4.990 -0.0969 -0.0133 -0.6408
21719SOL    HW177135   6.636   0.489   5.011  1.1966 -0.7298  1.0767
21719SOL    HW277136   6.564   0.407   4.907  0.7351  2.1297 -0.9813
21720SOL     OW77137   5.092   7.283   1.692  0.0168  0.2563 -0.1014
21720SOL    HW177138   4.997   7.270   1.686 -0.2734  1.6968  0.8918
21720SOL    HW277139   5.107   7.368   1.652  0.7709  0.4028  0.4807
21721SOL     OW77140   5.580   3.438  10.138 -0.0876  0.3714 -0.0428
21721SOL    HW177141   5.612   3.431  10.048  1.3439  0.6743  0.4128
21721SOL    HW277142   5.581   3.348  10.171 -2.0497  0.0313 -0.7499
21722SOL     OW77143   5.062   8.638   7.336  0.5281 -0.1248 -0.0342
21722SOL    HW177144   5.125   8.694   7.290 -0.1527  2.3932  1.8977
21722SOL    HW277145   4.989   8.629   7.275  1.3513 -0.3387 -1.0220
21723SOL     OW77146  10.250   2.783   8.001 -0.5491 -0.0034 -0.1000
21723SOL    HW177147  10.219   2.857   8.053 -0.5860 -0.9440  1.2671
21723SOL    HW277148  10.189   2.778   7.928 -0.6419  1.2015 -0.1278
21724SOL     OW77149   6.080   6.183   8.469 -0.4813  0.3525 -0.2066
21724SOL    HW177150   5.999   6.164   8.514 -0.5315 -0.1958 -0.5164
21724SOL    HW277151   6.055   6.239   8.395 -0.6901 -0.3956 -0.7187
21725SOL     OW77152   7.638   5.917   6.594  0.2777 -0.2503 -0.0316
21725SOL    HW177153   7.564   5.913   6.534  0.5013 -1.3486 -0.2629
21725SOL    HW277154   7.636   5.833   6.641  1.4198 -0.3579 -0.1232
21726SOL     OW77155   3.841   8.387   8.306 -0.4683  0.1262 -0.3257
21726SOL    HW177156   3.764   8.331   8.315  0.3480 -0.9719 -0.0414
21726SOL    HW277157   3.817   8.468   8.352 -1.7030  0.0745 -0.8453
21727SOL     OW77158   7.484   9.479   6.164 -0.4619 -0.2605  0.2969
21727SOL    HW177159   7.407   9.482   6.107 -0.1262  0.9351 -0.1230
21727SOL    HW277160   7.464   9.410   6.228 -0.7379 -1.7957 -1.3885
21728SOL     OW77161   0.106   8.446   3.154 -0.0296  0.3370 -0.1022
21728SOL    HW177162   0.160   8.402   3.088 -1.1488 -1.4829  0.1270
21728SOL    HW277163   0.023   8.399   3.152 -0.0847  0.1305  2.6514
21729SOL     OW77164   3.359   1.511   5.250  0.5979 -0.3761  0.3217
21729SOL    HW177165   3.422   1.573   5.288  0.6543  0.7999 -1.5230
21729SOL    HW277166   3.412   1.459   5.189 -0.2067  1.0416 -1.7221
21730SOL     OW77167   5.741   4.155   9.853 -0.5086  0.4032  0.4225
21730SOL    HW177168   5.722   4.176   9.945 -2.0447  0.4242  0.1391
21730SOL    HW277169   5.664   4.107   9.824  0.1052  0.1077 -0.7722
21731SOL     OW77170   5.018   1.133   8.850 -0.8548  0.7206 -0.8398
21731SOL    HW177171   5.019   1.182   8.932  1.7045  1.1938 -1.0616
21731SOL    HW277172   4.995   1.198   8.783  0.6445  1.2393 -0.8933
21732SOL     OW77173   8.991   5.851   9.061 -0.4614 -0.6472  0.5548
21732SOL    HW177174   9.004   5.798   8.982 -2.0425 -0.6967  0.3122
21732SOL    HW277175   9.063   5.824   9.119  0.0960 -1.3871 -0.4380
21733SOL     OW77176   1.568   1.219   3.547 -0.1057 -0.1597  0.1514
21733SOL    HW177177   1.492   1.246   3.497 -0.6684 -0.9183  0.5793
21733SOL    HW277178   1.610   1.301   3.575 -0.0891  0.2658 -1.0797
21734SOL     OW77179   6.514   2.185   3.011 -0.0571 -0.3978  0.1718
21734SOL    HW177180   6.596   2.201   2.963  0.4631  0.6456  1.3352
21734SOL    HW277181   6.464   2.266   2.999  0.3184  0.1013  1.8013
21735SOL     OW77182   4.949   8.998   9.422  0.2276 -0.1422 -0.1792
21735SOL    HW177183   4.855   9.011   9.435  0.0524  0.2646 -1.7355
21735SOL    HW277184   4.961   8.903   9.426 -0.2664 -0.2028 -0.1268
21736SOL     OW77185  10.154   0.269   5.503 -0.0826 -0.6736  0.3672
21736SOL    HW177186  10.165   0.359   5.532  0.1700 -0.6746  0.2772
21736SOL    HW277187  10.189   0.268   5.414 -0.1229 -0.8498  0.3529
21737SOL     OW77188   3.777   3.584   0.197 -0.0136  0.6131 -0.0412
21737SOL    HW177189   3.688   3.601   0.168  0.2701  0.8243 -0.7911
21737SOL    HW277190   3.830   3.651   0.155  0.5853  0.1307 -0.0696
21738SOL     OW77191   5.128  10.332   2.639 -0.3699  0.0003  1.1961
21738SOL    HW177192   5.200  10.295   2.588 -1.9326  0.4322 -1.5117
21738SOL    HW277193   5.103  10.262   2.699  1.0901 -0.8112  0.9191
21739SOL     OW77194   6.002   6.773   9.083  0.5559  0.0849 -0.9418
21739SOL    HW177195   5.922   6.745   9.038  0.9837  0.6234 -2.0701
21739SOL    HW277196   6.061   6.800   9.013  1.3046  0.8100 -0.0642
21740SOL     OW77197   6.899   8.775   4.133  0.0336 -0.3531  0.3644
21740SOL    HW177198   6.961   8.725   4.186 -0.5175 -0.3607  1.0161
21740SOL    HW277199   6.947   8.795   4.052  1.6431  1.4353  1.6796
21741SOL     OW77200   3.548   3.137   1.408  0.3500 -0.7835  0.8677
21741SOL    HW177201   3.579   3.223   1.437 -0.7037  1.1024 -2.8990
21741SOL    HW277202   3.458   3.132   1.439 -0.4597  0.7603 -1.0837
21742SOL     OW77203   9.864   5.729   5.114  0.0042 -0.3506  0.3237
21742SOL    HW177204   9.936   5.765   5.061  1.0242 -1.7657  0.6844
21742SOL    HW277205   9.857   5.638   5.085 -0.6928 -0.6202  1.3156
21743SOL     OW77206   5.396   0.976   4.581 -0.2321  0.4466 -0.0133
21743SOL    HW177207   5.326   0.920   4.547  0.5686 -0.1522 -0.7127
21743SOL    HW277208   5.351   1.039   4.637 -1.2364 -0.4896  0.2740
21744SOL     OW77209   8.844   0.720   6.256  0.5763 -0.1941  0.1196
21744SOL    HW177210   8.915   0.784   6.248 -1.4722  2.0786 -1.3294
21744SOL    HW277211   8.774   0.767   6.300 -1.3250 -1.1481 -1.7225
21745SOL     OW77212   3.292   3.202   6.886 -0.2282  0.1646 -0.6426
21745SOL    HW177213   3.299   3.155   6.802 -0.7842 -0.4227 -0.3657
21745SOL    HW277214   3.343   3.282   6.872  3.2929 -1.8137 -0.1769
21746SOL     OW77215   4.618   8.845   9.946 -0.5504  0.0270 -0.0746
21746SOL    HW177216   4.527   8.851   9.918 -0.4821  2.1128 -0.0156
21746SOL    HW277217   4.669   8.864   9.868 -0.2714  1.8727  0.5054
21747SOL     OW77218   6.084   2.277   1.274 -0.6062  0.4796  0.0944
21747SOL    HW177219   6.107   2.201   1.219 -1.2038 -0.3416  0.9411
21747SOL    HW277220   6.158   2.336   1.265 -1.1310  0.8704 -2.4409
21748SOL     OW77221   9.142   9.444   6.311  0.0584 -0.6451  0.1870
21748SOL    HW177222   9.223   9.393   6.304 -0.0183 -1.2296  2.7488
21748SOL    HW277223   9.163   9.526   6.265  2.6972 -0.1505  2.0315
21749SOL     OW77224   4.736   5.138   8.791  0.0396  0.1299 -0.1667
21749SOL    HW177225   4.816   5.111   8.746  1.8904  3.7236  0.6696
21749SOL    HW277226   4.675   5.160   8.720  0.8800  0.3084 -0.8494
21750SOL     OW77227   9.275   3.707   0.055  0.0517  0.2849 -0.1548
21750SOL    HW177228   9.361   3.705   0.097 -0.0292 -0.5253 -0.0203
21750SOL    HW277229   9.293   3.690  -0.038  0.2070  1.8611 -0.4539
21751SOL     OW77230  10.165   5.988   7.812 -0.1442 -0.0398 -0.0407
21751SOL    HW177231  10.243   6.010   7.864  0.3195 -1.1272 -0.2558
21751SOL    HW277232  10.193   6.002   7.722 -0.5333  0.5505 -0.0761
21752SOL     OW77233   0.423   5.602   4.003  0.3175 -0.3243 -1.2445
21752SOL    HW177234   0.472   5.634   4.079  0.2161 -1.1141 -0.8411
21752SOL    HW277235   0.473   5.527   3.971 -1.5544 -2.3586  0.3236
21753SOL     OW77236   7.353   1.976   9.722 -0.1846 -0.0443 -0.4728
21753SOL    HW177237   7.266   1.978   9.681 -0.4822 -0.5453  0.1140
21753SOL    HW277238   7.371   1.883   9.733  0.7740  0.0312 -1.2894
21754SOL     OW77239   3.009   1.070   1.487 -0.1399  0.0816  1.2080
21754SOL    HW177240   2.950   1.140   1.460  1.4489  1.6073  1.4564
21754SOL    HW277241   2.980   0.993   1.438 -0.7835  1.3736 -0.5480
21755SOL     OW77242   4.123   6.705   6.934 -0.4173  0.3620  0.2285
21755SOL    HW177243   4.181   6.637   6.967 -0.3924  0.3547  0.1701
21755SOL    HW277244   4.040   6.660   6.919 -0.7540  0.5861  1.3044
21756SOL     OW77245   9.768   6.415   8.605  0.2408  0.1873  0.8643
21756SOL    HW177246   9.710   6.376   8.539  2.2518 -0.5392 -0.5780
21756SOL    HW277247   9.743   6.372   8.687 -0.6360 -0.7984  0.1072
21757SOL     OW77248   8.497   7.535   3.642  0.2750  0.2783 -0.3268
21757SOL    HW177249   8.412   7.557   3.603  1.1850  2.2117 -1.3289
21757SOL    HW277250   8.557   7.602   3.609  2.2204 -1.0553  0.3369
21758SOL     OW77251   0.598   8.843   6.820  0.0543 -0.3180 -0.5588
21758SOL    HW177252   0.664   8.776   6.842  0.3332  0.1518  0.0723
21758SOL    HW277253   0.646   8.910   6.772 -0.1561 -0.4032 -0.8915
21759SOL     OW77254   7.330   0.645   1.535  0.5322  0.0839  0.3418
21759SOL    HW177255   7.242   0.667   1.567  0.4798 -0.1440  0.3585
21759SOL    HW277256   7.387   0.658   1.611  0.8324  2.1850 -0.1780
21760SOL     OW77257  10.391   6.849   0.622 -0.1791  0.0020 -0.1991
21760SOL    HW177258  10.471   6.798   0.635 -0.8244 -1.3018 -1.1352
21760SOL    HW277259  10.368   6.880   0.709  1.9766  1.4154 -0.0751
21761SOL     OW77260   7.362   8.724   4.375  0.2749 -0.0776 -0.0390
21761SOL    HW177261   7.423   8.653   4.357  0.3264 -0.2411  0.7444
21761SOL    HW277262   7.415   8.790   4.421  0.1387  0.3016 -0.4191
21762SOL     OW77263   2.299   9.299   9.553 -0.2052 -0.1119  0.3313
21762SOL    HW177264   2.274   9.356   9.480  0.9278  1.8529  1.3741
21762SOL    HW277265   2.295   9.357   9.630  4.3005 -0.4043  1.0303
21763SOL     OW77266   8.505   1.568   8.689  0.1836  0.2593  0.1828
21763SOL    HW177267   8.599   1.559   8.700  0.1363 -0.0761  0.3196
21763SOL    HW277268   8.469   1.485   8.719 -0.0216 -0.2908 -1.4482
21764SOL     OW77269   3.358   2.493   7.636 -0.0503  0.2571 -0.2194
21764SOL    HW177270   3.303   2.514   7.712  0.1686 -0.1668  0.0669
21764SOL    HW277271   3.427   2.437   7.672  0.8323  1.1433 -0.4886
21765SOL     OW77272   8.741   8.397   1.740 -0.3566 -0.4309 -0.2410
21765SOL    HW177273   8.812   8.383   1.801 -0.2361 -1.2347 -0.5642
21765SOL    HW277274   8.676   8.447   1.790 -1.0600 -2.6180  1.1273
21766SOL     OW77275   4.577   0.841   5.282  0.2062 -0.0078  0.1917
21766SOL    HW177276   4.537   0.922   5.250 -0.0850  0.0333  0.6490
21766SOL    HW277277   4.518   0.811   5.351  0.3598 -0.5675  0.0817
21767SOL     OW77278   7.332   4.137   6.182 -0.0967 -0.4337  0.2169
21767SOL    HW177279   7.395   4.095   6.123  0.8641 -1.6035  2.0056
21767SOL    HW277280   7.271   4.067   6.206 -0.8124  0.1704  0.2099
21768SOL     OW77281   3.538  10.052   3.770  0.1196 -0.2714 -0.5987
21768SOL    HW177282   3.572   9.976   3.722 -0.7526  0.0814 -1.8308
21768SOL    HW277283   3.480  10.015   3.836  1.0224 -0.7432 -0.0388
21769SOL     OW77284   0.291   4.318   1.696  0.4086  0.2862 -0.1164
21769SOL    HW177285   0.225   4.258   1.659 -1.2362  2.3978 -0.8349
21769SOL    HW277286   0.277   4.400   1.648  1.0649  1.9121  2.3067
21770SOL     OW77287   6.632  10.143   7.377  0.2245  0.7910  0.0620
21770SOL    HW177288   6.702  10.083   7.403 -1.3385 -0.9143  0.5567
21770SOL    HW277289   6.657  10.227   7.415  1.5175 -0.0056  1.0586
21771SOL     OW77290   0.385   4.172   1.081  0.1178 -0.6175  0.2831
21771SOL    HW177291   0.460   4.124   1.116 -0.1729 -1.4334 -0.1738
21771SOL    HW277292   0.413   4.200   0.994  0.1057 -0.3885  0.3516
21772SOL     OW77293   4.485   0.572   7.684  0.3125 -0.0415 -0.0877
21772SOL    HW177294   4.428   0.548   7.611  0.0702  3.3467 -1.1918
21772SOL    HW277295   4.434   0.634   7.735  1.8602  0.5728  0.7779
21773SOL     OW77296   7.868   7.832   7.478 -0.4311 -0.1613 -0.0494
21773SOL    HW177297   7.879   7.805   7.386 -0.2377 -1.6314  0.3730
21773SOL    HW277298   7.912   7.763   7.528 -0.4494  0.6746  1.1512
21774SOL     OW77299   4.042   6.789   2.323 -0.3846  0.5521 -0.0050
21774SOL    HW177300   4.065   6.735   2.398 -1.4897  1.3016  0.9150
21774SOL    HW277301   4.090   6.870   2.336  0.4181  0.2233 -0.8045
21775SOL     OW77302   5.754  10.238   8.094 -0.0560 -0.3890 -0.2344
21775SOL    HW177303   5.704  10.287   8.029  2.0922  0.6080 -1.2322
21775SOL    HW277304   5.701  10.161   8.113 -1.8988  0.5628 -1.2692
21776SOL     OW77305   3.844   8.285   2.445  0.2829  0.3656 -0.0583
21776SOL    HW177306   3.872   8.233   2.520  0.8248 -0.3652 -0.7480
21776SOL    HW277307   3.924   8.329   2.415  0.4885 -0.8146 -1.3275
21777SOL     OW77308   1.186   8.232   5.386  0.2234  0.0219  0.1108
21777SOL    HW177309   1.277   8.256   5.403  0.0071  0.1500  1.1375
21777SOL    HW277310   1.175   8.146   5.425 -0.2447  0.2425  0.4775
21778SOL     OW77311   5.701   3.311   7.502  0.0385  0.7281 -0.2695
21778SOL    HW177312   5.707   3.222   7.466 -0.4103  0.6440 -0.1450
21778SOL    HW277313   5.670   3.365   7.429 -0.6700  0.5954 -0.0728
21779SOL     OW77314  10.095   9.752   4.980  0.5305 -0.0311  0.3548
21779SOL    HW177315  10.139   9.829   4.943  5.0561 -1.9930  1.0168
21779SOL    HW277316  10.099   9.686   4.911  0.6152 -0.9214  1.1816
21780SOL     OW77317   1.301   4.788   4.263  0.3675  0.1501 -0.3408
21780SOL    HW177318   1.231   4.854   4.266  0.4640  0.2244  0.6306
21780SOL    HW277319   1.349   4.800   4.345 -0.3100 -1.8931  0.4112
21781SOL     OW77320   4.462   9.332   9.036 -0.6386  0.3507 -0.7505
21781SOL    HW177321   4.454   9.423   9.009 -1.7555  1.5682  3.1149
21781SOL    HW277322   4.553   9.323   9.064 -0.4139  0.0962 -1.5245
21782SOL     OW77323   9.671   2.919   8.347  0.8941 -0.3579 -0.4636
21782SOL    HW177324   9.751   2.898   8.299 -1.2610 -4.3964 -2.7693
21782SOL    HW277325   9.638   2.835   8.377 -1.9015  1.2854  1.5089
21783SOL     OW77326   1.141   1.240   8.875 -0.1761  0.1382  0.0847
21783SOL    HW177327   1.225   1.284   8.887 -0.4182  1.1563 -1.6105
21783SOL    HW277328   1.104   1.232   8.963  0.5529  1.9698  0.5882
21784SOL     OW77329   5.454   0.525   1.618  0.2414  0.3324 -0.6939
21784SOL    HW177330   5.526   0.565   1.568  3.6198 -2.3288  1.5570
21784SOL    HW277331   5.465   0.558   1.707  0.4031 -2.0738  0.2582
21785SOL     OW77332   7.797   8.773   6.088 -0.3604 -0.0936  0.2045
21785SOL    HW177333   7.832   8.709   6.027 -1.1906  1.0755 -1.5676
21785SOL    HW277334   7.853   8.850   6.078  0.1488 -0.2243  1.7397
21786SOL     OW77335   8.773   7.427   0.821 -0.1485 -0.0331  0.0380
21786SOL    HW177336   8.754   7.517   0.844  0.0425  0.5752 -2.0083
21786SOL    HW277337   8.867   7.426   0.803 -0.3624 -0.3404 -1.1322
21787SOL     OW77338   2.649   0.597   7.050  0.1892  0.1966 -0.2979
21787SOL    HW177339   2.587   0.655   7.094  3.1812  1.2091  3.1418
21787SOL    HW277340   2.691   0.652   6.984  1.5991  1.5281  1.5842
21788SOL     OW77341   2.084   1.874   6.189 -0.2962  0.2994 -0.0186
21788SOL    HW177342   2.002   1.874   6.140 -0.8018  1.7862  0.7382
21788SOL    HW277343   2.064   1.924   6.268  0.3701 -2.3161  1.9453
21789SOL     OW77344   0.991   2.878   2.636  0.0316 -0.4408 -0.0693
21789SOL    HW177345   1.027   2.796   2.601 -0.5466 -0.4317 -0.6995
21789SOL    HW277346   0.992   2.938   2.562 -2.8855 -0.9472 -0.6491
21790SOL     OW77347   8.425   4.356   0.722  0.2976 -0.2669  0.0439
21790SOL    HW177348   8.428   4.277   0.776  0.0786  0.4864  1.2074
21790SOL    HW277349   8.340   4.395   0.742 -1.3516 -1.6733 -3.4232
21791SOL     OW77350   9.136   4.466   8.112  0.6207  0.1840  0.5379
21791SOL    HW177351   9.121   4.457   8.018  2.8766 -1.3072  0.2304
21791SOL    HW277352   9.068   4.413   8.152 -0.0945  0.4671 -0.2617
21792SOL     OW77353   0.075   7.199   9.125 -0.6617  0.0973  0.3928
21792SOL    HW177354   0.045   7.109   9.113 -1.0317  0.0593  1.4252
21792SOL    HW277355  -0.003   7.247   9.153 -0.4695  0.7474 -0.1449
21793SOL     OW77356   2.718  10.332   8.501 -0.0196 -0.1535 -0.0094
21793SOL    HW177357   2.761  10.298   8.423  1.5678 -0.1516  0.8255
21793SOL    HW277358   2.774  10.404   8.530 -0.8067  0.1116  0.8997
21794SOL     OW77359   6.183   3.407   3.472 -0.4125 -0.2398 -0.0569
21794SOL    HW177360   6.134   3.482   3.438 -0.4513 -0.4927 -0.5577
21794SOL    HW277361   6.273   3.424   3.446 -0.3378 -0.1080  0.2850
21795SOL     OW77362   3.906   1.841   5.869  0.0891 -0.1052 -0.3854
21795SOL    HW177363   3.824   1.804   5.903  2.5478 -4.3548  1.9321
21795SOL    HW277364   3.898   1.834   5.774 -2.2742 -0.2247 -0.2356
21796SOL     OW77365   7.913   2.297   3.610 -0.3183 -0.6887  0.3281
21796SOL    HW177366   7.939   2.267   3.697  0.4142 -1.0867 -0.0190
21796SOL    HW277367   7.819   2.278   3.605  0.0640 -2.7816  0.2056
21797SOL     OW77368   8.950   3.418   2.025  0.1661 -0.2339  0.1826
21797SOL    HW177369   8.966   3.333   1.983  0.9274  0.3484 -0.7596
21797SOL    HW277370   8.995   3.412   2.109 -1.0005 -1.2643  0.7669
21798SOL     OW77371   4.670   3.567   9.490  0.4674 -0.2219  0.3575
21798SOL    HW177372   4.733   3.588   9.422  0.2035  0.2462  0.2552
21798SOL    HW277373   4.612   3.502   9.451  1.2311 -1.0935  0.6449
21799SOL     OW77374   3.942   0.290   7.037  0.2808 -0.8810  0.2376
21799SOL    HW177375   3.955   0.372   7.085  0.1431 -1.2064  0.8367
21799SOL    HW277376   4.019   0.237   7.059  1.4408 -0.1456 -1.7872
21800SOL     OW77377   3.616   2.621   8.933  0.6955 -0.6907 -0.4427
21800SOL    HW177378   3.588   2.676   8.859  0.4047 -0.6182 -0.2815
21800SOL    HW277379   3.712   2.616   8.924  0.8737  0.8720  0.2338
21801SOL     OW77380   1.130  10.146   3.715  0.3771 -1.1511 -0.2677
21801SOL    HW177381   1.109  10.236   3.741  1.2470 -1.5076  1.8830
21801SOL    HW277382   1.225  10.142   3.716  0.4466 -1.5355 -2.6374
21802SOL     OW77383   4.408   5.978   8.035 -0.0332 -0.4000 -0.0181
21802SOL    HW177384   4.424   5.963   7.942  0.2024 -0.1450 -0.0196
21802SOL    HW277385   4.488   6.019   8.068 -0.8154  1.3067 -0.1335
21803SOL     OW77386   3.071   5.642   8.976 -0.7320  0.5767  0.2020
21803SOL    HW177387   3.016   5.579   8.928 -0.1749  0.1045  0.1764
21803SOL    HW277388   3.029   5.650   9.061  0.1338 -1.1626  0.8347
21804SOL     OW77389   0.444   3.756   6.588 -0.2978  0.2237 -0.7622
21804SOL    HW177390   0.481   3.787   6.505  1.1510  0.7896  0.0580
21804SOL    HW277391   0.355   3.792   6.589  0.1373  1.3902 -1.4671
21805SOL     OW77392   6.263   0.096   1.515  0.1853 -0.0062  0.0210
21805SOL    HW177393   6.314   0.050   1.582  0.7952 -0.6377 -0.8593
21805SOL    HW277394   6.183   0.121   1.560  1.0727  0.6314  1.3223
21806SOL     OW77395   3.997   0.321   5.651 -0.0595 -0.3480  0.2922
21806SOL    HW177396   3.934   0.308   5.722  0.2419 -1.3509  0.3973
21806SOL    HW277397   3.976   0.251   5.588 -1.2882  1.3745 -1.3433
21807SOL     OW77398   7.958   5.329   7.830 -0.3024 -0.1700  0.0290
21807SOL    HW177399   7.867   5.314   7.806 -0.7283  0.2031  1.3264
21807SOL    HW277400   8.007   5.318   7.748 -1.5675  0.1921 -0.8006
21808SOL     OW77401   4.266   0.224   0.624  0.7465 -0.3365  0.0989
21808SOL    HW177402   4.307   0.285   0.686  0.1257 -0.3134  0.4910
21808SOL    HW277403   4.172   0.238   0.635  0.6243  0.1933 -1.3823
21809SOL     OW77404  10.392   4.130   2.127  0.3031  0.5404 -0.4544
21809SOL    HW177405  10.391   4.166   2.216 -0.0462  1.2186 -0.7238
21809SOL    HW277406  10.459   4.182   2.081  1.1017 -0.3763 -0.3717
21810SOL     OW77407   6.210  10.066   5.622 -0.0144  0.0360  0.1185
21810SOL    HW177408   6.270  10.136   5.596  1.2248 -0.7928  0.6308
21810SOL    HW277409   6.228   9.995   5.560  1.5065 -1.2007  1.8539
21811SOL     OW77410   6.927   2.666   8.490 -0.0142 -0.1707  0.3556
21811SOL    HW177411   6.863   2.658   8.420 -0.4723 -1.9911  0.9290
21811SOL    HW277412   6.981   2.587   8.483  2.5223  1.4803 -0.3807
21812SOL     OW77413   1.091   3.757   4.610 -0.0557  0.4057 -0.0377
21812SOL    HW177414   1.093   3.821   4.539 -0.7311 -0.2568 -0.6593
21812SOL    HW277415   1.162   3.696   4.589  1.4600  1.6405  1.2430
21813SOL     OW77416   7.243   6.928   7.059 -0.2350 -0.1858  0.0832
21813SOL    HW177417   7.158   6.885   7.064  0.7693 -2.2818  0.3421
21813SOL    HW277418   7.264   6.929   6.965 -0.9131  1.1507 -0.0680
21814SOL     OW77419   7.200   6.380   1.436 -0.3078  0.5122  0.3548
21814SOL    HW177420   7.155   6.329   1.369 -0.4795  0.7750  0.2709
21814SOL    HW277421   7.224   6.462   1.392 -0.7270  0.8265  0.7103
21815SOL     OW77422   3.825   0.533   4.824 -0.3563 -0.1951 -0.1005
21815SOL    HW177423   3.761   0.553   4.892  0.1535  4.5739 -0.6749
21815SOL    HW277424   3.908   0.524   4.871 -0.1483  2.2415  0.1534
21816SOL     OW77425   7.415   8.986   2.629 -0.0388 -0.2839  0.2008
21816SOL    HW177426   7.476   9.009   2.698  0.8157 -0.1942 -0.5588
21816SOL    HW277427   7.430   8.893   2.612  0.1563 -0.1820 -0.2246
21817SOL     OW77428   9.102   3.415   3.660 -0.4299 -0.1506  0.1443
21817SOL    HW177429   9.107   3.447   3.570 -1.3223 -0.2246  0.0591
21817SOL    HW277430   9.151   3.479   3.712  1.9707 -1.2241 -0.6538
21818SOL     OW77431   8.528   4.674   7.819  0.8997 -0.0301 -0.8855
21818SOL    HW177432   8.514   4.675   7.914  2.9045 -0.8062 -0.5350
21818SOL    HW277433   8.459   4.731   7.784  0.1401  0.2974  1.0279
21819SOL     OW77434   7.818   0.544   8.150 -0.0948  0.7115 -0.4416
21819SOL    HW177435   7.812   0.455   8.184 -1.1739  0.3531 -1.5104
21819SOL    HW277436   7.791   0.537   8.059  0.7717  1.9785 -0.8308
21820SOL     OW77437   7.205   5.966   7.342  0.9427  0.5725  0.6131
21820SOL    HW177438   7.227   6.059   7.332 -0.0355  0.6218 -1.7904
21820SOL    HW277439   7.289   5.921   7.336  1.2662  1.2256  0.1286
21821SOL     OW77440   9.584   5.370   4.835 -0.7756 -0.0654  0.9456
21821SOL    HW177441   9.635   5.426   4.894  1.0072 -0.4908 -0.1349
21821SOL    HW277442   9.605   5.280   4.863 -0.3941 -0.2561  0.0672
21822SOL     OW77443   6.391   0.765   4.047 -0.3142  0.6848  0.1537
21822SOL    HW177444   6.428   0.796   3.964  0.8576 -0.0701  0.3776
21822SOL    HW277445   6.373   0.845   4.097  0.8161  1.0874 -0.0590
21823SOL     OW77446   3.089   7.004   8.035 -0.1481  0.7623  0.1403
21823SOL    HW177447   3.117   7.075   7.977 -0.1203  1.1986  0.6747
21823SOL    HW277448   2.996   6.993   8.017 -0.1517  0.9327  0.0516
21824SOL     OW77449   0.076   0.457   4.993  0.0315  0.7590  0.0401
21824SOL    HW177450   0.009   0.524   4.981  0.9289  1.5702 -0.5159
21824SOL    HW277451   0.114   0.444   4.906 -0.3601 -0.7501  0.0569
21825SOL     OW77452   0.098   6.096   7.243 -0.3951  0.3299  0.5460
21825SOL    HW177453   0.044   6.170   7.272 -0.0155  0.9070 -0.2085
21825SOL    HW277454   0.150   6.130   7.171 -0.0065 -0.6022  0.3686
21826SOL     OW77455   0.383   6.119   1.324  0.2798 -0.4871  0.1985
21826SOL    HW177456   0.430   6.191   1.367  0.4203 -0.2389 -0.3547
21826SOL    HW277457   0.452   6.057   1.301  0.2285 -0.5293  0.1607
21827SOL     OW77458   0.895   2.558   2.036 -0.7899 -0.2294 -0.1232
21827SOL    HW177459   0.839   2.481   2.047 -0.6203 -0.6437 -1.8440
21827SOL    HW277460   0.983   2.526   2.056 -0.6808 -0.5783 -1.1147
21828SOL     OW77461   3.435  10.028   2.353  0.0648 -0.0222 -0.8116
21828SOL    HW177462   3.342  10.041   2.334  0.1205  0.1534 -0.9636
21828SOL    HW277463   3.474  10.004   2.269 -0.4535 -3.7085 -0.1582
21829SOL     OW77464   6.110   9.992   4.711 -0.3105  0.1782 -0.5115
21829SOL    HW177465   6.193  10.016   4.752  0.4908  0.1731 -2.0578
21829SOL    HW277466   6.051  10.065   4.730 -0.1153 -0.0373  1.0069
21830SOL     OW77467  10.302   7.611   0.611 -0.3069  0.1989 -0.4746
21830SOL    HW177468  10.262   7.675   0.553 -1.4315  1.1876  1.2980
21830SOL    HW277469  10.382   7.654   0.642 -1.3590  1.1036  1.1797
21831SOL     OW77470   6.370   8.264   8.539 -0.4721 -0.0068 -0.1674
21831SOL    HW177471   6.460   8.231   8.535 -0.3722  0.2371  0.0741
21831SOL    HW277472   6.355   8.302   8.452  1.0467  3.5591  0.9587
21832SOL     OW77473   4.753   7.274   5.833 -0.1726 -0.0449 -0.0641
21832SOL    HW177474   4.725   7.270   5.925 -2.6302 -1.4286 -0.7739
21832SOL    HW277475   4.848   7.266   5.836 -0.0753  1.0677  2.3971
21833SOL     OW77476   9.761   3.609   2.888 -0.2002 -0.0847  0.0593
21833SOL    HW177477   9.738   3.611   2.795 -2.4031 -0.1148  0.5320
21833SOL    HW277478   9.777   3.701   2.911 -0.4469  0.0249 -0.1962
21834SOL     OW77479   0.406  10.193   8.535 -0.4211 -0.1996  0.0565
21834SOL    HW177480   0.455  10.269   8.565 -2.8462  1.3273  0.3241
21834SOL    HW277481   0.421  10.192   8.440 -1.8789  1.8178 -0.2538
21835SOL     OW77482   0.765   6.343   0.231 -0.8893  0.1119  0.2106
21835SOL    HW177483   0.845   6.368   0.279 -2.1725  1.3270  1.8350
21835SOL    HW277484   0.791   6.266   0.181  1.3212  0.4896  0.6418
21836SOL     OW77485   7.820   8.825   6.392  0.6264 -0.0878 -0.3106
21836SOL    HW177486   7.799   8.823   6.298 -1.2801  2.9322 -0.1166
21836SOL    HW277487   7.760   8.762   6.431 -1.5439  1.5248 -0.8171
21837SOL     OW77488   7.418   4.190   7.573  0.6686 -0.3504  0.2425
21837SOL    HW177489   7.462   4.195   7.488  0.2843 -1.6031 -0.0525
21837SOL    HW277490   7.467   4.124   7.622  1.8801  1.4643  1.6440
21838SOL     OW77491  10.190   2.843   9.496  0.5489 -0.3297 -0.4109
21838SOL    HW177492  10.095   2.855   9.493  0.6405  0.4476 -0.1749
21838SOL    HW277493  10.224   2.904   9.430  0.8995 -0.5094 -0.3971
21839SOL     OW77494   9.309   4.018   6.718 -0.3234 -0.0712 -0.0283
21839SOL    HW177495   9.296   4.113   6.710 -1.3109 -0.1245  0.7445
21839SOL    HW277496   9.403   4.007   6.712 -0.3197  0.4604 -5.0913
21840SOL     OW77497   1.130   3.363   7.616  0.4069  0.0064  0.1673
21840SOL    HW177498   1.148   3.364   7.522 -1.2432 -0.9212 -0.2005
21840SOL    HW277499   1.043   3.402   7.624  0.3634 -0.2773  1.2579
21841SOL     OW77500   2.279   5.921   5.637 -0.2410 -0.5864 -0.0309
21841SOL    HW177501   2.318   6.009   5.634 -1.6796  0.2021  2.1476
21841SOL    HW277502   2.354   5.862   5.648  0.7191  0.3644 -1.1090
21842SOL     OW77503   7.768   9.338   1.512  0.1820 -0.0398 -0.6923
21842SOL    HW177504   7.851   9.329   1.466  0.1496  0.1961 -0.7986
21842SOL    HW277505   7.736   9.249   1.523  0.7259 -0.1667 -0.1470
21843SOL     OW77506   9.556   6.238   9.692 -0.0173 -0.3059  0.4428
21843SOL    HW177507   9.514   6.305   9.747 -1.2784  0.3112 -1.2061
21843SOL    HW277508   9.484   6.194   9.648  0.9659 -0.0663 -1.5179
21844SOL     OW77509   0.583   1.369   2.460  0.2239 -0.4811 -0.7676
21844SOL    HW177510   0.661   1.425   2.462  0.2441 -0.3778 -2.4178
21844SOL    HW277511   0.550   1.370   2.549  1.0386  1.0089 -0.4449
21845SOL     OW77512   0.253   7.636   7.312  0.0199  0.5837 -0.0996
21845SOL    HW177513   0.205   7.574   7.257 -1.6576  1.3515  0.4384
21845SOL    HW277514   0.279   7.585   7.388 -2.1651  0.6806  0.7830
21846SOL     OW77515   8.847   8.840   1.447  0.2883  0.8324  0.1830
21846SOL    HW177516   8.839   8.778   1.520  2.4846  0.7316  0.4228
21846SOL    HW277517   8.877   8.786   1.374 -0.1651  1.2324 -0.3072
21847SOL     OW77518   8.869   5.862   7.258  0.1685  0.1354  0.1395
21847SOL    HW177519   8.953   5.821   7.274  0.9549  1.5140 -0.2672
21847SOL    HW277520   8.884   5.921   7.183 -1.5565 -0.7642 -1.0046
21848SOL     OW77521   1.392   0.555   0.713  0.5428  0.0820  0.3921
21848SOL    HW177522   1.319   0.495   0.732  1.0061 -0.4126  0.6367
21848SOL    HW277523   1.371   0.634   0.761 -0.7203  0.6092 -0.9341
21849SOL     OW77524   2.384   1.576   7.481  0.1618 -0.1484  0.5080
21849SOL    HW177525   2.469   1.617   7.499 -0.7401  1.7271  0.7051
21849SOL    HW277526   2.404   1.507   7.418  2.0659 -0.8723  1.8151
21850SOL     OW77527   3.143   3.926   8.869  0.5718  0.5169 -0.2745
21850SOL    HW177528   3.138   3.893   8.779 -0.3315  0.6007 -0.2607
21850SOL    HW277529   3.052   3.934   8.897  0.8254 -1.5114  1.4070
21851SOL     OW77530   5.656   1.498   6.550 -0.3058  0.2434 -0.5010
21851SOL    HW177531   5.673   1.494   6.456 -0.5358  1.8369 -0.6468
21851SOL    HW277532   5.638   1.591   6.567  1.7071  0.3617  1.4537
21852SOL     OW77533   0.576   9.729   8.156 -1.0365  0.1156 -0.2131
21852SOL    HW177534   0.570   9.757   8.248 -2.1503  3.4323 -1.1193
21852SOL    HW277535   0.664   9.756   8.129 -0.1803 -2.1330  0.1554
21853SOL     OW77536   9.192   4.448   2.498 -0.0382  0.9186 -0.5821
21853SOL    HW177537   9.157   4.487   2.578  0.0743  0.7847 -0.4695
21853SOL    HW277538   9.274   4.495   2.482  1.3223 -0.8492  0.8405
21854SOL     OW77539   3.394   1.000   6.840 -0.3307  0.1023  0.6119
21854SOL    HW177540   3.357   0.984   6.926 -3.2281 -3.0281 -0.9827
21854SOL    HW277541   3.415   0.912   6.806  1.6689  1.2778 -1.5230
21855SOL     OW77542   4.910   9.143   7.594 -0.0036 -0.0661  0.0987
21855SOL    HW177543   4.989   9.137   7.541  0.6457 -2.1028  1.1761
21855SOL    HW277544   4.940   9.174   7.679 -0.5023 -0.0069  0.2599
21856SOL     OW77545   5.308   8.589   2.939 -0.3912  0.3145 -0.2204
21856SOL    HW177546   5.330   8.640   2.861 -0.7422  1.6911  0.5373
21856SOL    HW277547   5.260   8.650   2.995  2.0676  0.2640  2.2085
21857SOL     OW77548   5.098   4.011   6.286 -0.9663  0.2165  0.2695
21857SOL    HW177549   5.190   3.982   6.288 -1.2796 -0.7621  1.0966
21857SOL    HW277550   5.048   3.930   6.276 -1.8107  0.5952  1.3051
21858SOL     OW77551   0.575   0.813   0.922  0.0505 -0.3048  0.1864
21858SOL    HW177552   0.572   0.734   0.868  0.5982  0.0210 -0.3363
21858SOL    HW277553   0.652   0.800   0.978  1.2436  0.6574 -1.1842
21859SOL     OW77554   7.428   2.501   4.228  0.1825  0.1725 -0.7150
21859SOL    HW177555   7.363   2.570   4.215 -0.2163  0.5564  2.4983
21859SOL    HW277556   7.380   2.430   4.270  1.4065 -0.3657 -0.1769
21860SOL     OW77557   7.014   8.975   5.199  0.4505 -0.4794  0.0570
21860SOL    HW177558   6.958   8.907   5.236 -0.0515  0.9315  2.0344
21860SOL    HW277559   7.047   8.937   5.117  0.2635 -3.0960  1.1103
21861SOL     OW77560   2.697   1.678   7.150  0.0546  0.2934 -0.1868
21861SOL    HW177561   2.781   1.690   7.105  0.3529 -0.1841  0.2302
21861SOL    HW277562   2.707   1.596   7.198 -1.1396 -0.4717 -1.1827
21862SOL     OW77563   7.423   5.494   3.627  0.0056 -0.0907 -0.8725
21862SOL    HW177564   7.457   5.532   3.708 -0.3556 -0.7632 -0.3885
21862SOL    HW277565   7.416   5.567   3.566  2.2494  0.1073 -0.9916
21863SOL     OW77566   7.484   7.710   0.175 -0.5617  0.7381 -0.1990
21863SOL    HW177567   7.558   7.746   0.225 -0.1902 -0.7210  0.3698
21863SOL    HW277568   7.423   7.678   0.242 -0.5250 -0.3292 -0.6510
21864SOL     OW77569   6.358   3.482   8.614  0.0005 -0.3830  0.1971
21864SOL    HW177570   6.323   3.571   8.604 -1.9548 -1.0720  0.6605
21864SOL    HW277571   6.283   3.428   8.637  1.1707 -2.1684  0.0402
21865SOL     OW77572   6.602   7.347   1.192  0.2750 -0.1040  0.3642
21865SOL    HW177573   6.525   7.291   1.200 -0.6465  1.0861  0.1003
21865SOL    HW277574   6.567   7.436   1.189  1.5656  0.4045 -1.0050
21866SOL     OW77575   2.284   5.001   7.593 -0.4499  0.6939  0.5158
21866SOL    HW177576   2.348   5.015   7.663 -0.4763 -0.1465  0.7073
21866SOL    HW277577   2.253   4.912   7.606  0.0975  0.2482 -1.0084
21867SOL     OW77578   5.008   9.066   8.512 -0.4932  0.3298 -0.5981
21867SOL    HW177579   5.070   9.059   8.440  0.4419  0.5341  0.1684
21867SOL    HW277580   4.977   9.157   8.508  0.2085  0.5913 -0.2268
21868SOL     OW77581   3.889   6.941   1.891 -0.5828  0.8376 -0.1189
21868SOL    HW177582   3.923   6.944   1.802  0.7346  0.1142  0.3284
21868SOL    HW277583   3.967   6.940   1.947 -1.2419 -2.2319  0.9205
21869SOL     OW77584   8.817   8.065   8.899  0.7735  0.2040  0.6368
21869SOL    HW177585   8.858   8.055   8.813 -0.4615  0.4138 -0.0010
21869SOL    HW277586   8.886   8.044   8.962  1.8126  0.4511 -0.3982
21870SOL     OW77587   8.934   3.165   1.963  0.1177  0.2056  0.0396
21870SOL    HW177588   8.839   3.160   1.977  0.2870 -1.5908  0.7840
21870SOL    HW277589   8.958   3.079   1.929  1.3905  0.8921 -0.8841
21871SOL     OW77590   4.948   7.044   6.760  0.6665  0.0100 -0.4149
21871SOL    HW177591   4.989   7.124   6.794 -0.5945  0.9892 -1.1026
21871SOL    HW277592   4.868   7.074   6.718 -0.3749 -1.7669  0.2104
21872SOL     OW77593   2.586  10.082   1.775  0.8152  0.2654 -0.1193
21872SOL    HW177594   2.515  10.027   1.809 -0.6900  2.2566  0.1052
21872SOL    HW277595   2.601  10.047   1.687 -0.8300  0.1132 -0.3816
21873SOL     OW77596   0.261   9.704   9.137 -0.2518  0.2083  0.4787
21873SOL    HW177597   0.189   9.656   9.096  0.1740  0.6516 -0.8434
21873SOL    HW277598   0.271   9.783   9.083  0.4585  0.7306  1.3392
21874SOL     OW77599   5.582   9.768   1.644 -0.2300 -0.2226 -0.0056
21874SOL    HW177600   5.664   9.724   1.620  0.0091 -1.3141  2.5487
21874SOL    HW277601   5.604   9.861   1.645  0.9247 -0.4834  0.4255
21875SOL     OW77602   4.017  10.177   1.335  0.4125  0.0721  0.6653
21875SOL    HW177603   4.077  10.171   1.261  1.1555 -1.2381  1.3372
21875SOL    HW277604   3.931  10.190   1.295  0.8553 -0.2400 -0.4176
21876SOL     OW77605   5.285   8.737   7.202  0.0037 -0.1530  0.2816
21876SOL    HW177606   5.333   8.656   7.215 -2.1822 -1.8349 -1.3368
21876SOL    HW277607   5.331   8.781   7.131  0.5763 -0.5094  0.4322
21877SOL     OW77608   5.999   7.557   5.614  0.0529 -0.1635 -0.6750
21877SOL    HW177609   6.001   7.625   5.547  0.3625  1.5174  0.9387
21877SOL    HW277610   5.995   7.605   5.697 -3.3842 -2.1134  0.5066
21878SOL     OW77611   2.473   2.891   4.200 -0.6029 -0.2729 -0.5843
21878SOL    HW177612   2.561   2.880   4.166 -0.9543  1.3176 -2.1610
21878SOL    HW277613   2.417   2.893   4.122 -1.7455  1.0556  0.2121
21879SOL     OW77614   8.218   7.901  10.009 -0.3118 -0.1568  0.0622
21879SOL    HW177615   8.188   7.832  10.069 -0.2455 -0.2941 -0.0606
21879SOL    HW277616   8.296   7.936  10.051 -0.4206 -0.0665  0.1908
21880SOL     OW77617   3.048   2.813   7.117 -0.0138 -0.4001 -0.6192
21880SOL    HW177618   3.099   2.800   7.037  2.5141  4.3626 -0.1688
21880SOL    HW277619   2.971   2.863   7.088 -0.1597 -0.4565 -0.3333
21881SOL     OW77620   2.012   7.965   4.622 -0.2992 -0.0627 -1.0210
21881SOL    HW177621   2.097   7.954   4.580 -0.9384 -0.4793 -2.2381
21881SOL    HW277622   1.994   7.879   4.661 -0.3080 -0.0608 -1.0208
21882SOL     OW77623   1.108   3.254   5.014 -0.2367  0.4104  0.6546
21882SOL    HW177624   1.189   3.304   5.010  0.3877 -0.3138  2.9052
21882SOL    HW277625   1.134   3.166   5.042 -1.7850  0.2112  1.6384
21883SOL     OW77626   9.551   8.528   2.169  0.2091  0.5592  1.0772
21883SOL    HW177627   9.461   8.497   2.160  0.2104  1.1031 -1.5036
21883SOL    HW277628   9.595   8.460   2.220 -1.2036 -0.6449  0.7520
21884SOL     OW77629   1.349   4.141   8.502  0.2092  0.0627 -0.0269
21884SOL    HW177630   1.307   4.085   8.568  0.9689  2.5958  2.8555
21884SOL    HW277631   1.406   4.082   8.453 -0.2924 -1.9734  1.6955
21885SOL     OW77632   0.415   2.986   4.782  0.3179  0.5084 -0.5563
21885SOL    HW177633   0.344   3.017   4.726 -1.2766  0.6092  1.4442
21885SOL    HW277634   0.380   2.988   4.871  2.5417 -0.2673  0.4283
21886SOL     OW77635   4.373   9.218   2.526 -0.5547  0.2742 -0.3069
21886SOL    HW177636   4.458   9.261   2.530 -0.3831  0.1571 -1.8591
21886SOL    HW277637   4.313   9.278   2.569  0.1842  0.7029  0.1393
21887SOL     OW77638   5.277   0.975   8.981  0.3501 -0.8705  0.2038
21887SOL    HW177639   5.327   1.035   9.036  1.8359 -0.9738 -0.9626
21887SOL    HW277640   5.223   1.032   8.926  1.6277 -0.5603 -0.7804
21888SOL     OW77641   9.505   8.493   1.040  0.0611  0.6833  0.7318
21888SOL    HW177642   9.488   8.555   0.969  1.2534  1.2543  0.9192
21888SOL    HW277643   9.470   8.535   1.118 -1.1811  0.0898  0.5178
21889SOL     OW77644   8.347   5.287   7.495 -0.8627 -0.2824 -0.1352
21889SOL    HW177645   8.427   5.235   7.491 -0.3723  0.4387  0.1038
21889SOL    HW277646   8.377   5.378   7.500 -1.6793 -0.0413  0.7799
21890SOL     OW77647   3.874   9.426  10.389  0.8512  0.1133  0.3771
21890SOL    HW177648   3.914   9.494  10.334  0.7153 -0.5010 -0.4886
21890SOL    HW277649   3.943   9.359  10.398  1.1458  0.5514  1.6025
21891SOL     OW77650   1.076   0.995   6.497  0.0450  0.1205 -0.5952
21891SOL    HW177651   1.099   0.923   6.556 -1.1738 -0.8755 -1.2868
21891SOL    HW277652   1.133   1.067   6.524  1.9748 -1.3657 -0.4823
21892SOL     OW77653   2.059   9.768   7.261  0.0919 -0.3351 -0.4712
21892SOL    HW177654   2.110   9.691   7.283  0.3739  0.7578  3.5392
21892SOL    HW277655   2.002   9.782   7.337 -0.9062  2.6450 -1.6010
21893SOL     OW77656   4.644   5.737   1.559 -0.5036  0.2662 -0.0944
21893SOL    HW177657   4.549   5.729   1.571 -0.6663 -0.5767 -1.6919
21893SOL    HW277658   4.680   5.725   1.647 -1.8792  0.8694  0.5837
21894SOL     OW77659  10.178  10.373   2.586 -0.3335 -0.0404 -0.3136
21894SOL    HW177660  10.265  10.334   2.600 -0.4528 -0.4454 -0.6714
21894SOL    HW277661  10.193  10.467   2.592  0.1563 -0.1008 -0.4875
21895SOL     OW77662   4.988   2.424   7.291 -0.0190 -0.2176  0.2435
21895SOL    HW177663   4.969   2.364   7.219 -0.0908 -0.6018  0.5778
21895SOL    HW277664   4.915   2.412   7.352  0.0701  0.0605  0.4076
21896SOL     OW77665   9.581   0.257   7.416 -0.0455  0.0732 -0.1070
21896SOL    HW177666   9.571   0.178   7.363  0.7538 -1.2439  1.5824
21896SOL    HW277667   9.595   0.224   7.505 -1.8729  2.1894  1.0456
21897SOL     OW77668   1.958   3.215   8.167 -0.0268 -0.2963  0.0165
21897SOL    HW177669   2.044   3.223   8.209 -1.4315 -0.9945  3.2882
21897SOL    HW277670   1.970   3.146   8.102  2.5213  1.5381 -1.6895
21898SOL     OW77671   9.790   9.456   4.301 -0.0352 -0.2263  0.8238
21898SOL    HW177672   9.861   9.478   4.362  3.2544 -3.3065 -1.4628
21898SOL    HW277673   9.806   9.510   4.224 -0.6299 -0.4005  0.5731
21899SOL     OW77674   3.207   3.217   7.147 -0.9948 -0.1028  0.3322
21899SOL    HW177675   3.216   3.206   7.052 -1.7670 -0.7788  0.3209
21899SOL    HW277676   3.275   3.161   7.184 -0.4314  0.4732  0.1758
21900SOL     OW77677   4.450  10.277   0.122 -0.1653 -0.7123  0.1118
21900SOL    HW177678   4.385  10.295   0.054 -0.0412  0.8263  0.3744
21900SOL    HW277679   4.488  10.193   0.097 -2.3373 -1.7357  0.0286
21901SOL     OW77680   1.643   3.554   4.213 -0.3329  0.2182  0.4068
21901SOL    HW177681   1.596   3.494   4.157  2.7269 -1.1957 -0.9054
21901SOL    HW277682   1.663   3.629   4.157 -1.6961  1.2334  1.2154
21902SOL     OW77683   5.003   8.579   3.091 -0.2429 -0.2296  0.4431
21902SOL    HW177684   4.985   8.670   3.067  1.3458 -0.2188 -0.8816
21902SOL    HW277685   4.941   8.528   3.039 -0.8277  0.0638  0.8455
21903SOL     OW77686   4.598   8.691   3.700  0.2144 -0.2778  0.1592
21903SOL    HW177687   4.580   8.598   3.685  1.8329 -0.6284  0.2016
21903SOL    HW277688   4.660   8.692   3.773 -0.2228  0.8818  0.5413
21904SOL     OW77689   9.469   4.200   0.669 -0.2441 -0.3857  0.0125
21904SOL    HW177690   9.475   4.128   0.606  2.6849 -0.5118  0.3320
21904SOL    HW277691   9.503   4.276   0.623 -0.1185  0.0199  0.7632
21905SOL     OW77692   9.931   2.186   8.049 -0.2811 -0.2486  0.4097
21905SOL    HW177693   9.986   2.131   7.992  0.1009  0.6759 -0.1470
21905SOL    HW277694   9.881   2.124   8.102  1.4086 -1.1285  1.0432
21906SOL     OW77695   1.190   0.241   6.350 -0.3757  0.2784 -0.0838
21906SOL    HW177696   1.115   0.301   6.344 -1.7030 -1.4070 -1.8780
21906SOL    HW277697   1.253   0.274   6.286 -0.2013  0.8917  0.3990
21907SOL     OW77698   7.372   3.147   7.856 -0.2691  0.0521 -0.0066
21907SOL    HW177699   7.357   3.079   7.921 -1.4579  1.3251  1.1323
21907SOL    HW277700   7.391   3.226   7.908 -1.5684  1.1902 -1.1612
21908SOL     OW77701   3.797   4.903   4.388 -0.3992  0.6062  0.1308
21908SOL    HW177702   3.758   4.926   4.304 -0.0038  0.7887 -0.0027
21908SOL    HW277703   3.752   4.958   4.452 -0.0372  1.1490 -0.0814
21909SOL     OW77704  10.390   3.235   5.406 -0.0541  0.0448  0.3635
21909SOL    HW177705  10.407   3.141   5.402 -0.2736  0.0121  0.1965
21909SOL    HW277706  10.352   3.257   5.321  0.6174  0.4081  0.1452
21910SOL     OW77707   1.167   2.879   2.925 -0.0635  0.9166 -0.4353
21910SOL    HW177708   1.130   2.888   3.013 -0.3827 -0.9549 -0.3417
21910SOL    HW277709   1.094   2.849   2.871  1.2201 -3.6194 -0.0995
21911SOL     OW77710   7.070   5.096   4.204 -0.0778 -0.4915 -0.7504
21911SOL    HW177711   7.028   5.106   4.119 -1.5802 -0.0819  0.0059
21911SOL    HW277712   7.037   5.013   4.238 -0.8465  0.1668  0.1463
21912SOL     OW77713   0.535   0.219   3.020  0.5476  0.0000 -0.3301
21912SOL    HW177714   0.547   0.153   2.952 -0.5640 -1.1717  0.5468
21912SOL    HW277715   0.452   0.261   2.998  0.6282  0.2337 -0.1905
21913SOL     OW77716   9.125   0.020   5.336  0.0189 -0.5516 -0.1009
21913SOL    HW177717   9.169  -0.057   5.371  2.2129 -0.0838 -1.6367
21913SOL    HW277718   9.113   0.001   5.243 -1.0492  0.2691 -0.1543
21914SOL     OW77719   8.124   4.863  10.376 -0.2380 -0.8383  0.0115
21914SOL    HW177720   8.147   4.955  10.391 -1.2119 -0.8525  1.9598
21914SOL    HW277721   8.044   4.867  10.324  0.0023 -0.6169 -0.3522
21915SOL     OW77722   4.091   7.339  10.356 -0.3487  0.2173 -0.2586
21915SOL    HW177723   4.127   7.258  10.320 -1.3754 -0.2475 -0.2596
21915SOL    HW277724   4.032   7.371  10.288 -0.8538  0.3330  0.2313
21916SOL     OW77725   8.019   5.281   8.693  0.2934  0.1630  0.2635
21916SOL    HW177726   7.991   5.225   8.765  0.2609 -0.3153 -0.1111
21916SOL    HW277727   7.941   5.332   8.670  0.2347  0.1348  0.4025
21917SOL     OW77728   7.235   2.899   8.096 -0.0412  0.9060 -0.0527
21917SOL    HW177729   7.198   2.920   8.010  0.9240  1.4096 -0.3596
21917SOL    HW277730   7.160   2.871   8.148 -0.5574  0.0450 -1.2198
21918SOL     OW77731   7.965   5.924  10.215 -0.0284  0.3440  0.0884
21918SOL    HW177732   7.900   5.994  10.225 -0.1722  0.3049 -0.5525
21918SOL    HW277733   8.014   5.947  10.137 -1.1002 -1.0666 -1.0633
21919SOL     OW77734   2.963   5.387   9.315  0.2396  0.1182 -0.0705
21919SOL    HW177735   2.930   5.475   9.296 -1.2698 -0.5668 -0.7908
21919SOL    HW277736   2.888   5.329   9.301  1.3859 -1.3770 -0.3646
21920SOL     OW77737   4.213   3.930   0.411 -0.0854  0.0903 -0.2779
21920SOL    HW177738   4.121   3.905   0.426  0.2360 -2.1806 -1.6665
21920SOL    HW277739   4.258   3.901   0.490 -0.6858  2.4618  1.0350
21921SOL     OW77740   0.868   4.821   7.341  0.8552 -0.0469  0.0082
21921SOL    HW177741   0.942   4.801   7.283  1.6379  1.0438  0.5805
21921SOL    HW277742   0.901   4.891   7.397 -0.1680 -0.4951  1.2058
21922SOL     OW77743   2.509   7.523   5.507 -0.2128  0.1844  0.0826
21922SOL    HW177744   2.470   7.566   5.430 -1.3424 -2.6567 -1.0894
21922SOL    HW277745   2.452   7.548   5.580 -0.5356  1.0456 -0.4518
21923SOL     OW77746   2.494   1.147   2.713 -0.0384 -0.5442  0.7778
21923SOL    HW177747   2.470   1.065   2.669  1.3975  0.4454 -2.0905
21923SOL    HW277748   2.449   1.215   2.663  2.3896  0.7150  0.1717
21924SOL     OW77749   9.885   7.273   2.562  0.1611  0.3899 -0.7050
21924SOL    HW177750   9.840   7.272   2.477  1.1462  1.2230 -1.2532
21924SOL    HW277751   9.881   7.364   2.591  0.9882  0.3651 -0.4887
21925SOL     OW77752   8.983   7.910   1.247  0.0875  0.3353  0.1299
21925SOL    HW177753   8.950   7.991   1.208 -0.7186  0.5208  1.1560
21925SOL    HW277754   8.934   7.840   1.205  0.7852  0.3557 -0.7599
21926SOL     OW77755   8.854   0.569   2.296 -0.2704 -0.8339 -0.2240
21926SOL    HW177756   8.767   0.563   2.255 -0.2332 -1.3933 -0.2198
21926SOL    HW277757   8.900   0.634   2.244 -0.4709 -1.0108 -0.6271
21927SOL     OW77758   7.279   7.982   0.612  0.2271  0.3311 -0.3373
21927SOL    HW177759   7.356   7.949   0.658 -0.5402  1.2652  1.7796
21927SOL    HW277760   7.220   7.907   0.608  0.7012 -0.0247 -0.7023
21928SOL     OW77761   4.334   6.922   2.892 -0.5056  0.7518  0.2602
21928SOL    HW177762   4.349   6.985   2.821 -1.8725 -2.6347 -3.3533
21928SOL    HW277763   4.240   6.930   2.911 -1.0824 -1.1536 -1.4396
21929SOL     OW77764   6.362   2.833   9.259 -0.2653  0.4213  0.2941
21929SOL    HW177765   6.366   2.751   9.211 -3.1436  0.4404 -0.1165
21929SOL    HW277766   6.374   2.901   9.192  2.3407  0.4274  0.6643
21930SOL     OW77767   4.161   8.211   9.856  0.5853 -0.4479  0.1431
21930SOL    HW177768   4.195   8.125   9.880 -0.0668 -0.9335 -0.6084
21930SOL    HW277769   4.143   8.254   9.940  0.2342 -1.3267  0.5301
21931SOL     OW77770   3.028   2.232   0.577 -0.1030 -0.4318  0.0327
21931SOL    HW177771   3.004   2.143   0.550 -1.3315  0.2246 -1.1558
21931SOL    HW277772   2.945   2.274   0.600  0.5886  0.0780  1.7004
21932SOL     OW77773   1.461   5.276   2.616 -0.1874 -0.3260 -0.3391
21932SOL    HW177774   1.483   5.183   2.605 -0.0264 -0.1802 -1.3659
21932SOL    HW277775   1.384   5.289   2.561 -1.2827 -0.2272  1.1591
21933SOL     OW77776   1.448   0.418   4.202 -0.2272 -0.1399 -0.7116
21933SOL    HW177777   1.510   0.484   4.172 -0.1668 -0.2580 -0.8453
21933SOL    HW277778   1.369   0.434   4.151 -0.0910 -0.4063 -1.0133
21934SOL     OW77779   5.033   8.833   3.255  0.2555 -0.5091 -0.2557
21934SOL    HW177780   5.028   8.897   3.325  1.7221  1.7910 -2.0795
21934SOL    HW277781   5.018   8.749   3.297 -0.5930  0.9011  2.4658
21935SOL     OW77782   6.633   7.583   1.493  0.1769  0.2463 -0.2061
21935SOL    HW177783   6.630   7.675   1.520  1.1179  0.5145 -0.9593
21935SOL    HW277784   6.726   7.563   1.484 -0.0054 -0.8940  0.2716
21936SOL     OW77785   1.015   6.851   8.342  0.1978  0.3920  0.4382
21936SOL    HW177786   0.925   6.865   8.372  0.1350  1.5676 -0.2255
21936SOL    HW277787   1.018   6.893   8.256  1.2687 -0.0015  0.2740
21937SOL     OW77788   7.276   9.487   9.637 -0.1454  0.2198 -0.0538
21937SOL    HW177789   7.259   9.398   9.670 -0.8453  0.2592 -0.2817
21937SOL    HW277790   7.314   9.533   9.711  2.3434 -0.8676 -0.5666
21938SOL     OW77791   2.154   1.635   5.300 -0.1886 -0.6192  0.3304
21938SOL    HW177792   2.226   1.575   5.321  0.8579  0.9890  1.5236
21938SOL    HW277793   2.142   1.626   5.206  1.6291 -0.8749  0.0912
21939SOL     OW77794   3.326   1.156   0.134  0.3187 -0.0490  0.5464
21939SOL    HW177795   3.304   1.096   0.205 -1.2896  0.8710  0.8804
21939SOL    HW277796   3.279   1.237   0.156  1.2857  0.8708 -0.6132
21940SOL     OW77797   9.868   6.739   7.006  0.2307  0.7058 -0.2740
21940SOL    HW177798   9.809   6.694   6.946 -0.1232  0.7940  0.0071
21940SOL    HW277799   9.839   6.713   7.093  1.3217 -0.1662 -0.1441
21941SOL     OW77800   9.856   4.362   7.212  0.4073  0.4339  0.8483
21941SOL    HW177801   9.909   4.425   7.262  1.8640 -0.6831  0.7927
21941SOL    HW277802   9.849   4.402   7.125 -1.0194  1.7665  1.5319
21942SOL     OW77803   2.022   0.703   1.537 -0.8007 -0.1859  0.3073
21942SOL    HW177804   1.977   0.638   1.591  0.5643 -0.3173  1.3375
21942SOL    HW277805   2.024   0.663   1.449 -0.9697 -1.0354  0.6748
21943SOL     OW77806   4.924   0.397   8.356 -0.1960 -0.4196  0.4582
21943SOL    HW177807   4.844   0.344   8.348 -1.4291  1.2860  0.9411
21943SOL    HW277808   4.960   0.374   8.441 -1.0693 -0.0491  0.9388
21944SOL     OW77809   4.419   3.943   7.502 -0.3003 -0.6904 -0.2145
21944SOL    HW177810   4.450   3.972   7.417 -2.1843  0.5786 -0.5244
21944SOL    HW277811   4.396   4.024   7.549 -1.2316 -1.4494  0.7046
21945SOL     OW77812   0.179   0.968   8.593 -0.1595  0.2792 -0.1374
21945SOL    HW177813   0.198   1.054   8.631  1.7968 -0.1789  0.0057
21945SOL    HW277814   0.169   0.911   8.669  0.0022  0.1017 -0.2493
21946SOL     OW77815   9.006   9.971   1.063 -0.1653 -0.1506  0.1502
21946SOL    HW177816   8.912   9.953   1.069 -0.3200  0.9310  1.2362
21946SOL    HW277817   9.044   9.888   1.033 -1.3541 -0.8900  0.6091
21947SOL     OW77818   5.588   9.679   8.977 -0.0853 -0.1819  0.2164
21947SOL    HW177819   5.625   9.643   8.897 -0.7055 -1.2860  0.4182
21947SOL    HW277820   5.495   9.690   8.959 -0.1151  0.1995  0.5673
21948SOL     OW77821   6.774   2.682   7.457  0.4552 -0.2665  0.1052
21948SOL    HW177822   6.861   2.720   7.443  1.0864 -2.1128 -1.2724
21948SOL    HW277823   6.786   2.588   7.445 -1.0252 -1.0389  3.4909
21949SOL     OW77824   2.132   4.482  10.263 -0.3538  0.2151 -0.4727
21949SOL    HW177825   2.174   4.528  10.335  0.0252  2.6525 -2.1127
21949SOL    HW277826   2.055   4.535  10.242 -0.6159 -0.5919 -1.6534
21950SOL     OW77827   9.701   6.754   2.750 -0.2093 -0.3929  0.2456
21950SOL    HW177828   9.664   6.802   2.823 -0.3814 -0.4652  0.2058
21950SOL    HW277829   9.730   6.671   2.788  0.5209 -0.0727  0.4090
21951SOL     OW77830   4.100   8.564   8.004  0.1537  0.2043 -0.5949
21951SOL    HW177831   4.192   8.554   8.028 -0.1495 -0.6294  0.2746
21951SOL    HW277832   4.069   8.475   7.988 -1.2354  0.1213  2.0007
21952SOL     OW77833   7.625   1.242   5.878 -0.3851  0.1923  0.0899
21952SOL    HW177834   7.680   1.308   5.920 -1.4548  0.5415  0.9987
21952SOL    HW277835   7.634   1.164   5.932  1.8344 -0.8792 -1.6535
21953SOL     OW77836  10.243   3.996   4.708  0.0171  0.2259 -0.8514
21953SOL    HW177837  10.210   3.973   4.620 -1.1763 -3.2866  0.3155
21953SOL    HW277838  10.291   3.918   4.736  0.5348  1.3218  1.5340
21954SOL     OW77839   8.624   5.597   9.156 -0.1335 -0.0087 -0.2874
21954SOL    HW177840   8.611   5.506   9.182  2.1438 -0.4181 -0.3862
21954SOL    HW277841   8.706   5.622   9.197 -0.8034  2.1072 -0.0967
21955SOL     OW77842   9.665   8.320   1.358  0.2414  0.4482  0.2552
21955SOL    HW177843   9.706   8.285   1.437  1.8829 -0.2651 -0.8585
21955SOL    HW277844   9.572   8.302   1.370  0.7118 -1.9790  0.9257
21956SOL     OW77845   0.953   3.144   8.769 -0.3652 -0.2001 -0.6049
21956SOL    HW177846   0.862   3.125   8.791 -0.4779  1.5343  0.6823
21956SOL    HW277847   1.002   3.123   8.849  0.1225  0.4397 -0.7255
21957SOL     OW77848   3.646   7.676   4.160 -0.6479 -0.0000  0.2388
21957SOL    HW177849   3.575   7.614   4.141 -1.7729  0.8481  1.4039
21957SOL    HW277850   3.684   7.644   4.242 -2.3125  1.6007  1.7795
21958SOL     OW77851   8.538   8.055   9.864 -0.3404 -0.2603  0.5861
21958SOL    HW177852   8.532   8.142   9.905  3.9568  1.4193 -1.6680
21958SOL    HW277853   8.484   8.062   9.786 -0.4394  0.1847  0.6875
21959SOL     OW77854   2.202   7.338   6.076 -0.0317  0.1349  0.0109
21959SOL    HW177855   2.192   7.302   5.988 -1.6094 -0.2489  0.3222
21959SOL    HW277856   2.285   7.301   6.107 -0.0226 -0.6392 -0.8826
21960SOL     OW77857   4.977   3.708   8.127  0.2655 -0.0421  0.6646
21960SOL    HW177858   5.029   3.632   8.101  0.6333  0.0533  1.1169
21960SOL    HW277859   4.945   3.687   8.214  0.4761  0.3732  0.8447
21961SOL     OW77860  10.035   2.949   8.508 -0.3460 -0.5274  0.4417
21961SOL    HW177861  10.032   2.920   8.417  0.3394 -1.7781  0.8033
21961SOL    HW277862  10.079   3.034   8.504  2.3168 -1.8279 -0.1494
21962SOL     OW77863   2.859   2.760   5.524 -0.7322 -0.0636  0.1549
21962SOL    HW177864   2.942   2.768   5.476 -0.6473 -1.0001  0.1262
21962SOL    HW277865   2.796   2.733   5.457 -0.7680 -0.6567  0.4198
21963SOL     OW77866   1.109   8.459   0.303  0.1521 -0.2038  0.4744
21963SOL    HW177867   1.082   8.377   0.345  1.5738 -0.0324  1.8122
21963SOL    HW277868   1.182   8.490   0.356  2.5523 -0.2971 -2.4940
21964SOL     OW77869   1.886   0.133   8.403  0.1612  0.4222 -0.0142
21964SOL    HW177870   1.795   0.106   8.395  0.2292  0.3242 -0.5462
21964SOL    HW277871   1.884   0.228   8.393  0.1588  0.3764 -0.5132
21965SOL     OW77872   0.505   1.415   0.784  0.6703  0.0014 -0.4765
21965SOL    HW177873   0.587   1.455   0.755  1.2838 -0.4495  0.5770
21965SOL    HW277874   0.443   1.435   0.714  1.3197  1.5436 -0.6692
21966SOL     OW77875   5.848   0.109   0.836 -0.3325  0.0723  0.1160
21966SOL    HW177876   5.780   0.079   0.776  0.1586  0.1456 -0.4859
21966SOL    HW277877   5.877   0.194   0.800  1.7379 -1.0335 -1.0253
21967SOL     OW77878   0.153   8.894   5.094 -0.8004 -0.1915  0.1332
21967SOL    HW177879   0.128   8.831   5.162 -0.0874 -0.6239  0.0048
21967SOL    HW277880   0.203   8.960   5.140  1.2610 -1.4246 -0.2112
21968SOL     OW77881   5.565   8.957   9.754 -0.6449 -0.0984  0.2957
21968SOL    HW177882   5.499   9.025   9.737 -0.5818 -0.2346 -0.5167
21968SOL    HW277883   5.599   8.978   9.841 -1.3460  0.3157  0.4752
21969SOL     OW77884   2.767   7.177   5.507 -0.0288 -0.7000 -0.4389
21969SOL    HW177885   2.689   7.124   5.526 -1.8528  1.4194 -1.6687
21969SOL    HW277886   2.744   7.227   5.429  1.9623  1.2036  0.1142
21970SOL     OW77887   8.922   3.563   9.242 -0.2571  0.5574 -0.3995
21970SOL    HW177888   8.837   3.528   9.215 -0.5126  0.3800  0.5841
21970SOL    HW277889   8.974   3.485   9.262 -0.0705  0.6833 -0.3933
21971SOL     OW77890  10.028   3.102   3.597 -0.0006  0.3147  0.3743
21971SOL    HW177891   9.945   3.087   3.550  0.3086  0.0134 -0.0799
21971SOL    HW277892  10.003   3.099   3.689 -0.6212  0.9544  0.2387
21972SOL     OW77893   7.145   1.819   8.889  0.5205 -0.0815  0.6213
21972SOL    HW177894   7.239   1.800   8.885  0.7553  1.0352  0.3406
21972SOL    HW277895   7.106   1.740   8.925  1.7105 -0.1477  1.8627
21973SOL     OW77896   9.937   8.209   7.704  0.2455  0.1779 -0.5345
21973SOL    HW177897   9.979   8.128   7.675  1.5462  0.2109  1.1162
21973SOL    HW277898   9.975   8.227   7.790 -2.4519  0.7794  0.6261
21974SOL     OW77899   0.779  10.183   4.766  0.3372  0.2961  0.1128
21974SOL    HW177900   0.741  10.165   4.852 -1.1503 -0.3246 -0.6320
21974SOL    HW277901   0.873  10.192   4.782  0.0075  0.9516  1.9035
21975SOL     OW77902   0.926   4.216   8.102 -0.6558  0.1205 -0.4597
21975SOL    HW177903   0.977   4.156   8.157  0.4670  0.4059 -1.1475
21975SOL    HW277904   0.848   4.167   8.077 -0.3922 -0.5777  0.0692
21976SOL     OW77905   2.895   6.570   7.322  0.4202  0.2330 -0.2641
21976SOL    HW177906   2.989   6.585   7.315  0.3828  1.4464  1.2493
21976SOL    HW277907   2.863   6.644   7.374 -1.3195 -0.3336 -0.4711
21977SOL     OW77908   6.092   0.822   3.213  0.8993 -0.0415 -0.7871
21977SOL    HW177909   6.111   0.878   3.289 -0.4330 -0.0100 -0.4431
21977SOL    HW277910   6.098   0.732   3.248  0.9836 -0.0469 -0.8164
21978SOL     OW77911   0.912   7.770   5.431 -0.8707  0.2888 -0.0749
21978SOL    HW177912   0.889   7.844   5.486 -2.0338 -1.2898  1.7072
21978SOL    HW277913   0.827   7.734   5.403 -0.3328 -0.3112 -0.9993
21979SOL     OW77914   1.365   7.762   7.476 -0.1885  0.3124 -0.1922
21979SOL    HW177915   1.309   7.840   7.476 -1.2459 -0.4213 -1.5571
21979SOL    HW277916   1.347   7.721   7.561 -2.0666 -0.1230 -0.7574
21980SOL     OW77917   2.784   2.402   0.189  0.0980 -0.3905 -0.7735
21980SOL    HW177918   2.826   2.330   0.141  1.5838  0.5732 -0.9603
21980SOL    HW277919   2.840   2.416   0.266 -1.0569 -0.4587  0.1061
21981SOL     OW77920   5.998   0.460   4.967 -0.2979  0.8931 -0.2988
21981SOL    HW177921   6.088   0.486   4.947 -0.3341 -0.0396 -1.9207
21981SOL    HW277922   5.949   0.479   4.887 -0.9973 -0.9369 -0.3665
21982SOL     OW77923   4.969   2.314   4.886  0.9498  0.1930  0.1091
21982SOL    HW177924   4.991   2.377   4.954  1.8393 -1.3820  1.3589
21982SOL    HW277925   4.874   2.309   4.887  0.8889  1.2604  0.2135
21983SOL     OW77926   6.164   8.235   4.933  0.4772 -0.3348  0.0980
21983SOL    HW177927   6.167   8.331   4.929 -0.4305 -0.2854  0.4163
21983SOL    HW277928   6.085   8.215   4.983  1.1459 -1.2412  0.8323
21984SOL     OW77929   0.063   7.512   8.112 -0.3578 -0.0538  0.0996
21984SOL    HW177930   0.102   7.452   8.175 -2.6564  0.6295  2.3445
21984SOL    HW277931   0.129   7.522   8.043  0.9953 -3.3221  0.7655
21985SOL     OW77932   1.057   4.732   7.127 -0.7894 -0.0366  0.1537
21985SOL    HW177933   1.146   4.696   7.126 -0.9872 -0.6364  1.4724
21985SOL    HW277934   1.051   4.783   7.046  0.3422 -0.9660 -0.5564
21986SOL     OW77935   4.794   7.768  10.065  0.0492  0.2394  0.2244
21986SOL    HW177936   4.814   7.850  10.020  0.6901  0.7605  1.4287
21986SOL    HW277937   4.775   7.793  10.155  0.3988 -0.9456  0.6521
21987SOL     OW77938   3.129   9.408   8.084  0.6659  0.0258 -0.6378
21987SOL    HW177939   3.141   9.493   8.042  0.4790  0.7237  0.6677
21987SOL    HW277940   3.042   9.414   8.126 -0.1462 -1.4577 -1.9910
21988SOL     OW77941   8.327   0.457   7.159 -0.1594 -0.0055 -0.2301
21988SOL    HW177942   8.298   0.547   7.147 -2.3956 -0.2964  2.0458
21988SOL    HW277943   8.274   0.406   7.098 -0.0814  0.0708 -0.3601
21989SOL     OW77944   6.207   5.461   1.397  0.6170  0.4642  0.2332
21989SOL    HW177945   6.177   5.444   1.308 -0.0345 -1.3370  0.7516
21989SOL    HW277946   6.295   5.497   1.386  1.4489 -1.7686 -1.1184
21990SOL     OW77947   9.286   4.395   5.338 -0.2060  0.3339  0.5320
21990SOL    HW177948   9.352   4.336   5.301 -1.3035 -0.1892 -0.6852
21990SOL    HW277949   9.292   4.382   5.433  0.9381 -0.2294  0.3995
21991SOL     OW77950   9.584   2.157   9.655  0.0538  0.0363 -0.4353
21991SOL    HW177951   9.584   2.251   9.671  0.2361 -0.0421  0.0416
21991SOL    HW277952   9.597   2.149   9.560 -0.9496  0.5096 -0.6246
21992SOL     OW77953   4.392   7.284   6.373  0.0517  0.0946 -0.2303
21992SOL    HW177954   4.322   7.231   6.334  0.0266  0.0672 -0.1498
21992SOL    HW277955   4.362   7.374   6.362  0.4200  0.1286 -0.9935
21993SOL     OW77956   8.074   3.944   6.609 -0.1084 -0.2511 -0.0184
21993SOL    HW177957   8.124   3.893   6.545 -0.4918 -0.1418 -0.4084
21993SOL    HW277958   8.087   4.035   6.584 -0.3097 -0.2093  0.0221
21994SOL     OW77959   0.897   8.981   2.113 -0.1235  0.0311  0.6205
21994SOL    HW177960   0.930   8.951   2.028 -0.5386 -0.3760  0.5978
21994SOL    HW277961   0.808   9.012   2.095 -0.2407 -0.1230  0.9129
21995SOL     OW77962   2.806   9.385   6.488 -0.0615  0.4577 -0.1153
21995SOL    HW177963   2.820   9.478   6.471  1.5520  0.6791  2.0489
21995SOL    HW277964   2.894   9.347   6.486 -0.6897 -1.0547 -0.9559
21996SOL     OW77965   7.032   0.770   2.335 -0.0050  0.3059  0.2607
21996SOL    HW177966   7.005   0.694   2.386 -0.5977 -0.7024 -1.4609
21996SOL    HW277967   6.953   0.824   2.330  0.1515  0.5815  0.6792
21997SOL     OW77968   6.053   6.182   8.011 -0.0871 -0.2263 -0.6841
21997SOL    HW177969   6.082   6.092   8.029 -0.3583 -0.6676 -2.3532
21997SOL    HW277970   6.111   6.212   7.941 -1.1155  0.2706 -1.3382
21998SOL     OW77971   2.777   1.055   4.686  0.0421 -0.2083 -0.0679
21998SOL    HW177972   2.771   0.960   4.676  0.5539 -0.3355  0.7315
21998SOL    HW277973   2.728   1.074   4.765 -0.6142  0.2828 -0.5861
21999SOL     OW77974   3.300   6.965   4.112  0.0839 -0.1445 -0.0508
21999SOL    HW177975   3.268   6.914   4.187  0.2680  0.4791  0.4670
21999SOL    HW277976   3.272   7.055   4.131 -0.9771 -0.1800 -1.3607
22000SOL     OW77977   6.447   2.842   0.399 -0.2187  0.0693  0.0689
22000SOL    HW177978   6.410   2.792   0.471 -2.2214  1.5411  0.1343
22000SOL    HW277979   6.379   2.842   0.332  0.5885  0.8680 -0.7860
22001SOL     OW77980   7.600   1.619   8.340  0.0928 -0.4717 -0.1317
22001SOL    HW177981   7.648   1.536   8.332  2.5818  0.9206 -1.0320
22001SOL    HW277982   7.561   1.633   8.254 -1.1756 -1.1610  0.3210
22002SOL     OW77983   5.483   3.636   4.647 -0.3459 -0.0026  0.1860
22002SOL    HW177984   5.527   3.594   4.573 -0.9108  0.9143 -0.6881
22002SOL    HW277985   5.410   3.578   4.668 -1.0980  0.4853 -0.9883
22003SOL     OW77986   0.721   6.970   4.377 -0.4660 -0.9245  0.1121
22003SOL    HW177987   0.751   6.957   4.467  0.4155 -1.4883 -0.2518
22003SOL    HW277988   0.655   6.902   4.364 -1.0646 -0.4458  0.5169
22004SOL     OW77989   2.866   6.390   8.609  0.0989 -0.0905 -0.1944
22004SOL    HW177990   2.852   6.483   8.627  1.0780  0.2384 -1.0505
22004SOL    HW277991   2.837   6.345   8.689 -1.2990  0.8569 -0.1345
22005SOL     OW77992   4.996   6.552   6.647 -0.4891  0.2602  1.2475
22005SOL    HW177993   4.938   6.627   6.663 -1.0666 -0.1504  1.0969
22005SOL    HW277994   5.079   6.592   6.619 -1.2848  0.8029 -0.4303
22006SOL     OW77995   4.176   9.471   9.861  0.4598 -0.0336 -0.1350
22006SOL    HW177996   4.157   9.447   9.770  0.7067 -0.2449 -0.1307
22006SOL    HW277997   4.128   9.407   9.913 -0.0827  0.3897 -0.1118
22007SOL     OW77998   9.668   6.626   9.712 -0.2864 -0.1004 -0.2664
22007SOL    HW177999   9.674   6.539   9.753 -0.2200 -0.4246 -0.9554
22007SOL    HW278000   9.684   6.687   9.784 -0.1262 -0.6643  0.1871
22008SOL     OW78001   1.694   1.992   2.095  0.3214 -0.4872 -0.0741
22008SOL    HW178002   1.610   1.952   2.116  0.6955 -0.4721  1.6152
22008SOL    HW278003   1.690   2.010   2.001 -0.9131 -1.9678 -0.3400
22009SOL     OW78004   7.749   7.129   7.893  0.3746  0.1409 -0.6058
22009SOL    HW178005   7.807   7.053   7.885  1.2319  0.8045 -0.8423
22009SOL    HW278006   7.661   7.093   7.885  0.7691 -0.8237 -0.7420
22010SOL     OW78007   0.809   5.120   5.986  0.0034 -0.1354 -0.0148
22010SOL    HW178008   0.811   5.025   6.001  1.1477  0.0062  0.8725
22010SOL    HW278009   0.878   5.136   5.922  0.4831  0.1956  0.5677
22011SOL     OW78010   3.285   9.978   3.900  0.3501  0.3228  0.3760
22011SOL    HW178011   3.202  10.007   3.938  0.9630  0.7415  1.4118
22011SOL    HW278012   3.260   9.941   3.815 -0.8690  0.6443  0.5742
22012SOL     OW78013   3.713   3.647   3.689  0.4467  0.3425 -0.8075
22012SOL    HW178014   3.682   3.559   3.708 -0.1217  0.5247 -0.8626
22012SOL    HW278015   3.790   3.658   3.745 -0.1147  0.2021  0.0211
22013SOL     OW78016   0.828   0.569   1.078  0.1822  0.8114 -0.0488
22013SOL    HW178017   0.818   0.663   1.062 -2.1530  0.4238 -1.3503
22013SOL    HW278018   0.747   0.544   1.121  0.0662 -0.8754 -1.1700
22014SOL     OW78019   6.271   9.915   9.972 -0.1042 -0.4088  0.1904
22014SOL    HW178020   6.365   9.932   9.963 -0.2716 -0.2968 -2.2042
22014SOL    HW278021   6.231  10.001   9.956 -0.6196 -0.1899  2.4357
22015SOL     OW78022   7.909   8.940   5.135 -0.2348  0.0530  0.1090
22015SOL    HW178023   7.982   9.002   5.136  0.0762 -0.2564  2.5361
22015SOL    HW278024   7.950   8.857   5.110 -0.2275  0.3237 -0.8346
22016SOL     OW78025   9.794   8.690   6.779 -0.3156  0.0628 -0.5098
22016SOL    HW178026   9.740   8.759   6.818  2.1372  2.1261 -0.4741
22016SOL    HW278027   9.846   8.656   6.851 -0.6857 -1.0437 -0.7509
22017SOL     OW78028   6.374   2.711   9.904  0.1694 -0.1306  0.1215
22017SOL    HW178029   6.306   2.697   9.839  1.0381 -0.6883 -0.6839
22017SOL    HW278030   6.326   2.735   9.983 -0.9463 -0.2687 -0.4865
22018SOL     OW78031   2.069   0.824   7.276  0.8110 -0.1490 -0.0740
22018SOL    HW178032   1.986   0.812   7.321  1.9307 -0.2798  2.0855
22018SOL    HW278033   2.084   0.742   7.229 -0.1141 -0.2272 -0.2467
22019SOL     OW78034   2.902   1.583   6.132 -0.2003 -0.2958 -0.2484
22019SOL    HW178035   2.987   1.567   6.093  0.0578 -0.1014  0.2262
22019SOL    HW278036   2.855   1.636   6.068  0.5469  0.8061  0.0791
22020SOL     OW78037   0.338   5.816   4.828 -0.2175 -0.2768  0.3269
22020SOL    HW178038   0.311   5.729   4.856  0.9548 -1.1241 -1.0593
22020SOL    HW278039   0.344   5.811   4.733  2.1074  0.5951  0.3493
22021SOL     OW78040   1.197   7.766   0.734 -0.3036  0.1420 -0.0190
22021SOL    HW178041   1.278   7.719   0.755  0.5386  0.8256 -1.6259
22021SOL    HW278042   1.191   7.834   0.801  1.6416  1.4614 -1.0813
22022SOL     OW78043  10.205  10.046   4.464 -0.0364 -0.6375 -0.0956
22022SOL    HW178044  10.111  10.055   4.479 -0.1258 -1.7098  0.0327
22022SOL    HW278045  10.218  10.083   4.376 -0.2438  1.3072  0.6301
22023SOL     OW78046   1.293   5.217   7.255  0.4318 -0.2644 -0.4197
22023SOL    HW178047   1.289   5.122   7.260  0.4596 -0.2726 -0.5455
22023SOL    HW278048   1.353   5.242   7.325 -0.4001 -0.2575  0.3044
22024SOL     OW78049   3.659   1.052   5.050  0.1373  0.2218 -0.0322
22024SOL    HW178050   3.581   1.035   4.997  0.1620  0.5132 -0.1675
22024SOL    HW278051   3.652   1.145   5.072  1.3242  0.6955 -1.4814
22025SOL     OW78052   6.945   5.081   4.525  0.0587 -0.5081 -0.0511
22025SOL    HW178053   6.903   5.033   4.453 -0.6895  2.4257 -1.7334
22025SOL    HW278054   7.038   5.065   4.513 -0.1018 -0.6764 -1.2808
22026SOL     OW78055   6.156   7.238   8.405 -0.9733 -0.0642 -0.0042
22026SOL    HW178056   6.219   7.245   8.333 -0.2292 -0.5666  0.5799
22026SOL    HW278057   6.084   7.187   8.368 -1.0258  0.4709 -0.6640
22027SOL     OW78058   5.978   8.643   8.257 -0.1058  0.2533 -0.2061
22027SOL    HW178059   5.892   8.642   8.216 -0.3044  0.6670  0.1844
22027SOL    HW278060   5.972   8.711   8.324  0.9893  1.3889 -1.1911
22028SOL     OW78061   7.214   5.629   5.074  0.2272  0.2876  0.5048
22028SOL    HW178062   7.120   5.623   5.093 -0.3073 -1.2431 -2.1997
22028SOL    HW278063   7.249   5.543   5.099  0.7369  0.5373  0.6563
22029SOL     OW78064   6.673   3.455   7.282  0.5247 -0.1936 -0.3603
22029SOL    HW178065   6.689   3.522   7.215 -0.7135  0.8489  0.3517
22029SOL    HW278066   6.715   3.490   7.361 -2.3257  1.0889  0.7119
22030SOL     OW78067   0.668   4.234   3.028  0.0059 -0.3640 -0.2830
22030SOL    HW178068   0.751   4.277   3.007 -0.2545 -0.5332 -1.7499
22030SOL    HW278069   0.650   4.178   2.952 -0.9926 -1.0411  0.4243
22031SOL     OW78070   4.789   8.629   8.801 -0.1622  0.2387 -0.1391
22031SOL    HW178071   4.723   8.680   8.755 -0.0295 -0.1849 -0.8036
22031SOL    HW278072   4.739   8.569   8.856 -0.3243  0.3315 -0.1849
22032SOL     OW78073   9.788   5.164   7.937  0.0909 -0.5269  0.1303
22032SOL    HW178074   9.744   5.106   7.999  0.0873  1.8287  2.5226
22032SOL    HW278075   9.719   5.191   7.876 -0.5968 -0.6906  0.8234
22033SOL     OW78076   5.459   0.258   8.047 -0.3703 -0.5477 -0.5429
22033SOL    HW178077   5.414   0.339   8.023 -1.9697 -1.5820 -1.2180
22033SOL    HW278078   5.496   0.276   8.134 -1.4525  0.6069 -0.2879
22034SOL     OW78079   3.579   5.444  10.170  0.1557  0.2346  0.3821
22034SOL    HW178080   3.519   5.467  10.099 -0.0356  1.1955  0.8417
22034SOL    HW278081   3.571   5.516  10.232  0.4220 -0.5300  1.3202
22035SOL     OW78082   3.406  10.108  10.346  0.0846 -0.1487 -0.1269
22035SOL    HW178083   3.457  10.082  10.423  0.3983 -1.7418 -0.8322
22035SOL    HW278084   3.420  10.037  10.283 -0.7796  0.7472 -1.3741
22036SOL     OW78085   9.436   3.002   7.827 -0.0119 -0.0534  0.1378
22036SOL    HW178086   9.405   2.917   7.861 -0.2113 -0.4362 -0.9813
22036SOL    HW278087   9.440   3.058   7.905 -0.2687 -0.9697  0.8333
22037SOL     OW78088   0.867   1.456   2.696 -0.5096  0.1343 -0.2527
22037SOL    HW178089   0.906   1.537   2.729  0.7921 -0.8772  0.8235
22037SOL    HW278090   0.880   1.459   2.601 -0.3947  1.1420 -0.2090
22038SOL     OW78091   2.603   8.300   8.299  0.3239 -0.1509 -0.2233
22038SOL    HW178092   2.646   8.277   8.382 -0.6560 -0.0790  0.3261
22038SOL    HW278093   2.669   8.347   8.250  1.6958 -2.2055 -0.4705
22039SOL     OW78094   5.227   3.999   6.797 -0.4483 -0.3915  0.0604
22039SOL    HW178095   5.159   3.959   6.743  0.0404 -2.9039  1.1406
22039SOL    HW278096   5.308   3.981   6.749 -0.2111 -0.8142  0.6088
22040SOL     OW78097   4.262   9.431   7.684  0.2442 -0.3730 -0.2813
22040SOL    HW178098   4.169   9.450   7.701 -0.4776 -1.3666 -2.6661
22040SOL    HW278099   4.285   9.366   7.751 -0.6399  0.1740  0.5937
22041SOL     OW78100   0.069   5.846   4.309  0.1151  0.2855  0.1285
22041SOL    HW178101   0.096   5.886   4.391 -0.6941 -0.1853  0.6354
22041SOL    HW278102   0.115   5.762   4.307  0.3015  0.3893 -0.0078
22042SOL     OW78103   5.679   2.271   1.097 -0.3693  0.3973 -0.1183
22042SOL    HW178104   5.746   2.330   1.132  0.9526 -0.2334 -1.4850
22042SOL    HW278105   5.614   2.264   1.167  1.2836  0.5791  1.4965
22043SOL     OW78106   4.261   9.837   7.655 -0.4650 -0.6026  0.1915
22043SOL    HW178107   4.258   9.904   7.723 -1.1056 -1.0920  0.6561
22043SOL    HW278108   4.173   9.800   7.654 -0.8286  0.2022 -1.7239
22044SOL     OW78109   3.064   1.679   2.718 -0.1426  0.0866 -0.1474
22044SOL    HW178110   2.994   1.654   2.658 -0.4292  0.3869  0.0554
22044SOL    HW278111   3.031   1.759   2.760  0.5830  0.5793 -0.5027
22045SOL     OW78112   2.648   1.963   0.212  0.0785 -0.3807  0.0180
22045SOL    HW178113   2.622   1.881   0.170 -2.1682 -0.2385  1.0275
22045SOL    HW278114   2.593   2.030   0.172  1.9763  0.7270 -0.8923
22046SOL     OW78115   3.343   9.385   1.989 -0.4032 -0.7041 -0.0381
22046SOL    HW178116   3.263   9.400   1.939 -0.6141  0.1342  0.5363
22046SOL    HW278117   3.323   9.418   2.077  0.7320 -0.0331 -0.0170
22047SOL     OW78118   0.570   4.430   8.823  0.5038 -0.2335  0.3765
22047SOL    HW178119   0.520   4.463   8.898 -0.0724 -0.6733  0.1883
22047SOL    HW278120   0.506   4.421   8.753  0.9160 -0.4504  0.0202
22048SOL     OW78121   3.916   2.009   5.615  0.3544  0.9864 -0.1179
22048SOL    HW178122   3.909   1.923   5.574 -1.7321  1.2616 -0.4180
22048SOL    HW278123   3.844   2.013   5.677  1.2117  2.0388  0.8649
22049SOL     OW78124   5.119   8.878   5.450  0.6160 -0.3156  0.2216
22049SOL    HW178125   5.133   8.915   5.363  0.5909  1.6797  0.9992
22049SOL    HW278126   5.207   8.859   5.483  0.6719 -0.3528  0.0500
22050SOL     OW78127   4.507   6.206   8.609  0.4317  0.2112 -0.3852
22050SOL    HW178128   4.521   6.253   8.527  1.2068  0.1213 -0.3166
22050SOL    HW278129   4.424   6.159   8.597  0.8289 -0.2689 -1.3446
22051SOL     OW78130   4.303   7.968   9.975  0.0099 -0.2200  0.2149
22051SOL    HW178131   4.382   7.987   9.925 -1.0244  1.3045 -0.8994
22051SOL    HW278132   4.307   8.027  10.050 -0.6408  0.7806 -0.5043
22052SOL     OW78133   2.163   3.657   0.450  0.3988  0.0359 -0.1832
22052SOL    HW178134   2.137   3.637   0.360  0.3525  0.8272 -0.3575
22052SOL    HW278135   2.083   3.689   0.491  0.1254 -1.4477  0.5060
22053SOL     OW78136   6.412   5.240   7.868  0.0870 -0.7079  0.2188
22053SOL    HW178137   6.358   5.315   7.894  1.1189  0.7945 -1.6620
22053SOL    HW278138   6.471   5.226   7.942  1.6732  2.1749 -0.3457
22054SOL     OW78139   5.695   7.780   1.430  0.3521  0.4769 -0.4919
22054SOL    HW178140   5.686   7.691   1.398  1.4563 -0.2694  1.1376
22054SOL    HW278141   5.787   7.802   1.415  0.7323  0.3453  1.4132
22055SOL     OW78142   1.339   7.065   0.173 -0.2737 -0.7039  0.3536
22055SOL    HW178143   1.297   7.150   0.157 -0.3715 -0.9918 -0.9667
22055SOL    HW278144   1.432   7.086   0.180 -0.4766 -0.2214  2.1428
22056SOL     OW78145   0.527   9.449   4.667  0.1168  0.2296 -0.0213
22056SOL    HW178146   0.518   9.453   4.571  0.7157  0.4765 -0.0708
22056SOL    HW278147   0.491   9.531   4.698  0.5321  0.4392 -0.0870
22057SOL     OW78148   6.933   4.623   4.305  0.0641 -0.4471 -0.5366
22057SOL    HW178149   7.023   4.654   4.310 -0.1545  0.3854 -1.6254
22057SOL    HW278150   6.879   4.702   4.311 -0.5083 -0.6209 -2.7764
22058SOL     OW78151   0.333   1.353   5.229  0.8436 -0.1556  0.4801
22058SOL    HW178152   0.392   1.422   5.198  1.0151  0.1764  1.5054
22058SOL    HW278153   0.392   1.284   5.261  0.7018 -1.4272 -1.8046
22059SOL     OW78154   0.334   0.128   6.955 -0.4821 -0.3152  0.8401
22059SOL    HW178155   0.260   0.129   7.016 -1.0249  0.8283  0.2034
22059SOL    HW278156   0.320   0.050   6.901 -0.1596 -1.1647  1.9629
22060SOL     OW78157   3.833   1.424   8.403  0.6517  0.0991 -0.1829
22060SOL    HW178158   3.888   1.358   8.362 -0.8472 -0.8052 -0.8062
22060SOL    HW278159   3.807   1.386   8.487  1.4685  0.7930  0.4024
22061SOL     OW78160   0.067   7.903   0.411 -0.3559  0.4202 -0.1326
22061SOL    HW178161   0.113   7.844   0.351 -2.2169 -0.5041 -0.7202
22061SOL    HW278162   0.068   7.988   0.366  0.8605  0.4569 -0.0667
22062SOL     OW78163   5.122   7.984   3.886 -0.0038  0.1271  0.2729
22062SOL    HW178164   5.078   8.068   3.875  1.0222  0.5903 -0.4454
22062SOL    HW278165   5.077   7.943   3.960 -0.5624  1.2721  0.5931
22063SOL     OW78166   2.612   7.182   5.879  0.6605  0.5521 -0.5917
22063SOL    HW178167   2.698   7.202   5.842  0.0689 -0.1550 -2.4593
22063SOL    HW278168   2.579   7.266   5.911  2.6463  0.6025  1.6618
22064SOL     OW78169   9.560   1.336   3.011 -0.3937 -0.2466 -0.4690
22064SOL    HW178170   9.484   1.284   3.034  0.7868 -1.1806  1.6734
22064SOL    HW278171   9.555   1.413   3.068 -0.1863  0.1219 -0.9371
22065SOL     OW78172   4.905   2.769   6.247  0.5788  0.3384  0.2863
22065SOL    HW178173   4.841   2.713   6.291 -1.7111  1.6232 -1.1990
22065SOL    HW278174   4.924   2.723   6.165 -0.1937  0.9874 -0.2766
22066SOL     OW78175   8.233   4.511   3.542 -0.2094  0.1328 -0.3590
22066SOL    HW178176   8.159   4.452   3.555  0.2846 -1.0446 -2.5255
22066SOL    HW278177   8.278   4.511   3.627 -1.0198 -1.5064  0.1175
22067SOL     OW78178  10.040   7.509   0.619  0.2276  0.2111  0.1642
22067SOL    HW178179  10.034   7.589   0.568  1.7607 -0.7946 -1.7067
22067SOL    HW278180  10.121   7.518   0.668 -0.2973  0.3609  1.0296
22068SOL     OW78181   1.344   1.069   6.223  0.0989 -0.6624 -0.1166
22068SOL    HW178182   1.339   1.052   6.128  1.8352 -0.1869 -0.3253
22068SOL    HW278183   1.319   0.986   6.263  0.8403 -1.3602 -1.0373
22069SOL     OW78184   0.769   1.946   6.138  0.0434  0.6201  0.4506
22069SOL    HW178185   0.725   1.992   6.067 -1.0785  1.8604  1.8644
22069SOL    HW278186   0.701   1.935   6.205  0.8114 -1.3644  0.9672
22070SOL     OW78187   2.349  10.298   3.413 -0.4007  0.1684  0.8093
22070SOL    HW178188   2.408  10.223   3.409 -0.3548  0.2308  0.3238
22070SOL    HW278189   2.407  10.373   3.423 -0.4635  0.1124  1.7157
22071SOL     OW78190   6.386   9.958   3.564  0.1546  0.0772 -0.7480
22071SOL    HW178191   6.377  10.037   3.510 -2.8194  0.8346  0.6421
22071SOL    HW278192   6.316   9.900   3.533  0.8583 -1.0774 -0.2409
22072SOL     OW78193   1.659  10.281   4.660 -0.2255  0.2203 -0.3005
22072SOL    HW178194   1.635  10.276   4.568 -0.0480 -0.5912 -0.3092
22072SOL    HW278195   1.729  10.216   4.670  1.0491  1.5877  0.0116
22073SOL     OW78196   5.943   9.921   3.435 -0.0887  0.3114 -0.3374
22073SOL    HW178197   5.931   9.900   3.343  0.3777 -1.2002 -0.0768
22073SOL    HW278198   5.971   9.839   3.476 -1.3035  0.6579  1.3510
22074SOL     OW78199   0.700   8.161   1.239 -1.0790 -0.2685  0.1792
22074SOL    HW178200   0.707   8.066   1.238  0.6644 -0.1690  0.7355
22074SOL    HW278201   0.734   8.188   1.324 -1.6763  0.8513  0.0921
22075SOL     OW78202   6.945   8.049   6.347 -0.3799 -0.1468 -0.7378
22075SOL    HW178203   6.997   8.074   6.271  1.2105  0.0026  0.3366
22075SOL    HW278204   6.978   7.963   6.372  1.3981  1.0523  1.5571
22076SOL     OW78205  10.306   6.991   8.888 -0.3727 -0.1734 -0.6572
22076SOL    HW178206  10.216   6.978   8.858 -1.1185 -1.0201  1.6966
22076SOL    HW278207  10.359   6.937   8.830 -1.5035 -0.4320 -1.4760
22077SOL     OW78208   5.505   6.700   8.941  0.2102  0.2824  0.3219
22077SOL    HW178209   5.446   6.625   8.931  0.3292  0.0573  1.2373
22077SOL    HW278210   5.448   6.773   8.964  0.0257  0.6256 -1.1286
22078SOL     OW78211   0.501   3.251   1.313 -0.4726  0.2477 -0.3947
22078SOL    HW178212   0.469   3.194   1.382 -1.3193  0.1088 -0.8817
22078SOL    HW278213   0.505   3.195   1.235 -0.4281  0.6225 -0.6659
22079SOL     OW78214   3.340   3.372   3.648 -0.2557  0.4857 -0.0258
22079SOL    HW178215   3.306   3.368   3.737  0.4691  0.5457  0.2588
22079SOL    HW278216   3.304   3.295   3.604  1.7013 -1.1576  1.1404
22080SOL     OW78217   2.551   4.544   5.176  0.3110  0.4277 -0.0156
22080SOL    HW178218   2.481   4.568   5.237  0.2174  0.5910 -0.1865
22080SOL    HW278219   2.507   4.526   5.093  0.5827  1.9928 -0.5485
22081SOL     OW78220  10.328   8.294   3.396  0.0180  0.1253 -0.0812
22081SOL    HW178221  10.363   8.380   3.373  0.0679  0.4408  1.0924
22081SOL    HW278222  10.236   8.297   3.368  0.1288  0.4057 -0.4181
22082SOL     OW78223   8.094   9.690   8.700  0.1219  0.4949  0.3558
22082SOL    HW178224   8.139   9.617   8.657  1.6700  0.6867  1.5618
22082SOL    HW278225   8.029   9.649   8.757 -0.3186  0.1560 -0.3761
22083SOL     OW78226   3.799   4.616   2.185 -0.3383 -0.1319 -0.4804
22083SOL    HW178227   3.821   4.643   2.096 -0.7736 -1.7436 -1.1031
22083SOL    HW278228   3.716   4.661   2.203 -1.7458 -1.9401 -2.0055
22084SOL     OW78229   9.534   6.969   7.503 -0.5412 -0.1594 -0.8419
22084SOL    HW178230   9.544   6.983   7.598 -0.8357 -0.1641 -0.8085
22084SOL    HW278231   9.462   7.026   7.478 -2.2516 -2.0953 -0.5675
22085SOL     OW78232   4.264   9.688   0.661 -0.2073 -0.1670 -0.4600
22085SOL    HW178233   4.288   9.597   0.642  1.8566 -0.3800  2.4246
22085SOL    HW278234   4.189   9.681   0.720 -0.8105  0.0729 -1.1903
22086SOL     OW78235   8.760   8.826   2.924 -0.4844 -0.0635 -0.2524
22086SOL    HW178236   8.842   8.868   2.899 -0.8301  0.3934 -0.6079
22086SOL    HW278237   8.746   8.758   2.858 -0.4977 -0.0042 -0.3104
22087SOL     OW78238   3.422   5.434   7.297 -0.3202 -0.4476  0.0631
22087SOL    HW178239   3.396   5.515   7.342 -0.3415  0.2698 -1.2030
22087SOL    HW278240   3.516   5.443   7.285 -0.2586 -0.8025  0.2606
22088SOL     OW78241   8.402   6.050   5.672 -0.0085 -0.2055  0.1031
22088SOL    HW178242   8.419   6.102   5.750  1.0366 -0.5709  0.1315
22088SOL    HW278243   8.487   6.043   5.629 -0.7612  1.0234 -1.7265
22089SOL     OW78244   7.173   2.055   5.935  0.5558 -0.0562 -0.3859
22089SOL    HW178245   7.095   2.088   5.981  0.5103  0.5768 -0.9079
22089SOL    HW278246   7.233   2.129   5.934  1.2738 -0.6198  0.2296
22090SOL     OW78247   7.159   0.781   9.912  0.1591  0.0212 -0.2292
22090SOL    HW178248   7.195   0.699   9.947  2.2610  1.1057  0.2644
22090SOL    HW278249   7.066   0.761   9.898  0.5531 -2.3783  0.0618
22091SOL     OW78250   1.872   6.154   7.100  0.1753 -0.8017  0.4491
22091SOL    HW178251   1.953   6.176   7.054 -1.1966  1.6581 -0.9994
22091SOL    HW278252   1.856   6.228   7.158 -1.0655 -1.2450  0.7134
22092SOL     OW78253   0.562   0.741   3.723  0.6566 -0.4721  0.0461
22092SOL    HW178254   0.522   0.663   3.684  0.4284 -1.6194  2.3774
22092SOL    HW278255   0.497   0.810   3.711 -0.1322 -1.2210 -0.1183
22093SOL     OW78256   6.892   6.452   7.515 -0.5653  0.0829  0.4364
22093SOL    HW178257   6.976   6.495   7.499 -0.5398 -0.5364 -1.2852
22093SOL    HW278258   6.879   6.395   7.439 -1.6794 -1.2218  1.5461
22094SOL     OW78259   0.737   7.894   1.278  0.7307  0.4454 -0.3532
22094SOL    HW178260   0.679   7.833   1.324  0.3750  1.1949  0.2035
22094SOL    HW278261   0.821   7.886   1.324 -0.1170  2.5945  1.7366
22095SOL     OW78262   1.012   2.690   6.105  0.4507 -0.3245 -0.7302
22095SOL    HW178263   1.059   2.773   6.103  1.4418 -0.7999  0.9065
22095SOL    HW278264   1.081   2.624   6.094  0.4329 -1.0927  2.7715
22096SOL     OW78265   6.055   4.965   5.795 -0.5399  0.1080  0.1244
22096SOL    HW178266   6.140   4.987   5.755 -1.2456  0.0172 -1.4786
22096SOL    HW278267   6.067   4.877   5.829 -0.0905 -0.0397 -0.3948
22097SOL     OW78268   5.710   4.706   5.712 -0.3679  0.4529 -0.2195
22097SOL    HW178269   5.740   4.616   5.722 -1.3064  0.0927 -0.5360
22097SOL    HW278270   5.743   4.751   5.790 -0.0035 -0.1891  0.0064
22098SOL     OW78271   0.760   1.106   1.204  0.0096  0.3212 -0.0513
22098SOL    HW178272   0.686   1.091   1.145  0.5421  0.1364 -0.6799
22098SOL    HW278273   0.719   1.124   1.289 -0.7364 -0.4792 -0.2275
22099SOL     OW78274   9.504  10.209   3.816 -0.1528  0.3732 -0.7087
22099SOL    HW178275   9.421  10.166   3.800  0.1317 -0.0057 -1.2048
22099SOL    HW278276   9.559  10.141   3.855  0.9911 -0.4269 -3.4282
22100SOL     OW78277   7.388   0.899   8.523 -1.0043  0.0833 -0.2794
22100SOL    HW178278   7.468   0.845   8.527 -1.3163 -0.3591  0.0902
22100SOL    HW278279   7.342   0.879   8.604 -2.2547 -0.8677 -1.1873
22101SOL     OW78280   5.986   2.430   5.215 -0.0112  0.2407 -0.2952
22101SOL    HW178281   6.067   2.410   5.169 -0.3883  1.4739 -1.5683
22101SOL    HW278282   6.005   2.511   5.263  0.0407 -0.4394  0.8782
22102SOL     OW78283  10.073   7.826   9.483  0.3272 -0.2574 -0.5630
22102SOL    HW178284  10.163   7.797   9.465  0.1779 -0.6798 -0.6444
22102SOL    HW278285  10.058   7.802   9.575  0.0331 -0.8959 -0.7718
22103SOL     OW78286   9.486   6.699   7.462  0.6071 -0.2517 -0.2173
22103SOL    HW178287   9.515   6.782   7.424  2.0848 -1.0714 -0.9872
22103SOL    HW278288   9.510   6.634   7.397 -1.6283 -1.2012 -0.1740
22104SOL     OW78289   2.810   4.069   6.911 -0.0454  0.1424  0.0286
22104SOL    HW178290   2.737   4.091   6.853 -0.8215  0.7594  1.2160
22104SOL    HW278291   2.774   4.004   6.972  0.6778 -0.2763  0.0240
22105SOL     OW78292   5.171   9.718   9.408 -0.3051 -0.0848 -0.5645
22105SOL    HW178293   5.120   9.640   9.385 -2.0690  1.0757 -0.8133
22105SOL    HW278294   5.145   9.739   9.497  0.0419  0.3161 -0.5519
22106SOL     OW78295   1.945   4.417   0.653 -0.5073 -0.9237  0.2232
22106SOL    HW178296   1.909   4.451   0.571 -0.3216 -1.2547 -0.0027
22106SOL    HW278297   1.876   4.430   0.718 -0.2772  0.2635  0.2405
22107SOL     OW78298   2.123   6.617   7.194 -0.3812  0.2069 -0.0935
22107SOL    HW178299   2.160   6.528   7.195 -0.6022  0.1178  0.2431
22107SOL    HW278300   2.056   6.614   7.126 -0.1067  0.2308 -0.3650
22108SOL     OW78301   6.260   2.573   6.173  0.4220  0.2179  0.5519
22108SOL    HW178302   6.269   2.611   6.261 -0.8232  0.2130  0.6992
22108SOL    HW278303   6.173   2.600   6.144  1.2268  1.0957 -1.1277
22109SOL     OW78304   4.699  10.054   7.164  0.0585 -0.1967  0.4170
22109SOL    HW178305   4.767  10.032   7.100  0.5155 -1.1226  1.1945
22109SOL    HW278306   4.678   9.970   7.206 -2.0596 -0.0656 -0.2649
22110SOL     OW78307   3.612   8.109   2.418 -0.1456  0.0926  0.2702
22110SOL    HW178308   3.621   8.083   2.509  0.8892 -1.3334 -0.1894
22110SOL    HW278309   3.688   8.164   2.400 -0.3882  0.4348  0.2904
22111SOL     OW78310   2.261   5.517   5.883 -0.2093  0.2837 -0.1036
22111SOL    HW178311   2.288   5.505   5.974 -2.0679  0.2701  0.4942
22111SOL    HW278312   2.216   5.601   5.882 -0.8605 -0.0555 -0.8266
22112SOL     OW78313  10.036   4.308   9.704 -0.0459 -0.2277 -0.3883
22112SOL    HW178314  10.064   4.298   9.613  2.2442 -0.5456  0.2989
22112SOL    HW278315  10.001   4.222   9.728  0.5358 -0.5260 -0.5996
22113SOL     OW78316   7.487   6.515   6.193  0.2010 -0.2114  0.3698
22113SOL    HW178317   7.485   6.519   6.097  0.7297 -1.1515  0.3098
22113SOL    HW278318   7.394   6.511   6.218  0.0829 -2.1149 -0.2304
22114SOL     OW78319   8.525   6.255   0.780 -0.1977 -0.3699 -0.3030
22114SOL    HW178320   8.570   6.303   0.849  1.2356  0.1507 -1.5590
22114SOL    HW278321   8.457   6.315   0.750 -0.8000 -0.5813  0.6013
22115SOL     OW78322   9.124   5.949   7.976 -0.3406  0.4548  0.3478
22115SOL    HW178323   9.089   6.037   7.993 -0.9013 -0.1474  2.7989
22115SOL    HW278324   9.213   5.965   7.942 -0.5739  1.9658  0.3671
22116SOL     OW78325   1.109   0.649   4.831 -0.2890  0.0030  0.0214
22116SOL    HW178326   1.091   0.556   4.816  3.2180 -1.1924  2.1487
22116SOL    HW278327   1.110   0.687   4.743 -1.0713 -2.0905 -0.9737
22117SOL     OW78328   3.340   8.972   0.337  0.2189 -0.0606 -0.3120
22117SOL    HW178329   3.405   9.042   0.327 -0.7931  1.0270  0.3330
22117SOL    HW278330   3.285   8.979   0.259 -0.1801  0.2033 -0.0127
22118SOL     OW78331   0.138   8.672   0.224  0.4527 -0.1675 -0.1631
22118SOL    HW178332   0.203   8.698   0.290 -0.0644  0.9944 -0.0938
22118SOL    HW278333   0.175   8.593   0.185  0.0508 -1.8689  2.5692
22119SOL     OW78334   7.855   4.101   0.532  0.3694  0.1143  0.2052
22119SOL    HW178335   7.778   4.157   0.540 -1.6213 -2.4793  0.3875
22119SOL    HW278336   7.881   4.110   0.440 -1.4275 -0.4663 -0.3982
22120SOL     OW78337   3.562   7.638   9.306 -0.2463  0.2449  0.3755
22120SOL    HW178338   3.504   7.563   9.292 -2.5447  1.8978  0.3488
22120SOL    HW278339   3.522   7.708   9.254  1.6170  1.5913  0.6695
22121SOL     OW78340   9.857   4.465   6.664  0.4772 -0.2041  0.4802
22121SOL    HW178341   9.916   4.540   6.655  1.9411 -1.4245 -0.6823
22121SOL    HW278342   9.769   4.504   6.664  1.1864  1.5128  0.0248
22122SOL     OW78343   2.276   5.228   6.610 -0.0932  0.2017  0.5828
22122SOL    HW178344   2.239   5.305   6.566 -0.6728  0.0116  0.7412
22122SOL    HW278345   2.209   5.201   6.672  0.4712  0.0900  1.1502
22123SOL     OW78346   1.486   0.934   2.977 -0.3955 -0.1672 -0.1842
22123SOL    HW178347   1.426   1.006   2.994  0.5208  0.7490 -0.7328
22123SOL    HW278348   1.537   0.962   2.901  1.1481 -0.6235  0.6409
22124SOL     OW78349   2.374   1.949   4.178 -0.3809 -0.2045  0.3860
22124SOL    HW178350   2.314   1.984   4.243 -1.0419 -0.3141 -0.1530
22124SOL    HW278351   2.405   1.866   4.215  0.4836  0.4910  1.2590
22125SOL     OW78352   7.861   7.452   8.326 -0.0921  0.3399 -0.2649
22125SOL    HW178353   7.855   7.426   8.418  0.7939  0.4407 -0.1686
22125SOL    HW278354   7.884   7.371   8.280 -0.7597  0.2407 -0.4343
22126SOL     OW78355   0.451   8.015   3.067 -0.0763 -0.8908  0.5038
22126SOL    HW178356   0.368   8.048   3.103 -0.1059 -1.8944  1.4190
22126SOL    HW278357   0.454   8.050   2.978 -0.9993 -0.0150  0.7909
22127SOL     OW78358   6.219   0.100   1.223 -0.4056  0.2477 -0.2255
22127SOL    HW178359   6.153   0.046   1.266 -0.9090  0.5045 -0.6584
22127SOL    HW278360   6.292   0.103   1.285 -1.2808  0.9800  0.8127
22128SOL     OW78361   9.899   8.511   9.426  0.4226 -0.4532 -0.3494
22128SOL    HW178362   9.976   8.457   9.408  0.3301 -1.4516  1.9065
22128SOL    HW278363   9.928   8.601   9.411  2.2028 -0.7783  0.8944
22129SOL     OW78364   2.099   8.319   7.045  0.2584 -0.1868  0.1421
22129SOL    HW178365   2.035   8.330   7.115  0.1031  0.3842 -0.0855
22129SOL    HW278366   2.174   8.277   7.088 -0.0115 -0.2566  0.5512
22130SOL     OW78367   2.890   3.153   5.157 -0.4626 -0.7842  0.0027
22130SOL    HW178368   2.813   3.209   5.164  0.0297 -0.2388  1.3257
22130SOL    HW278369   2.920   3.165   5.067 -1.1476  0.0300 -0.1330
22131SOL     OW78370   4.873   9.748   2.322 -0.3172  0.1842  0.6981
22131SOL    HW178371   4.856   9.829   2.273  1.5175 -0.2437 -0.7512
22131SOL    HW278372   4.815   9.683   2.282 -0.8877  0.4717  1.0355
22132SOL     OW78373   4.444   4.398   8.180 -0.2130 -0.2164  0.4440
22132SOL    HW178374   4.419   4.340   8.108  0.6742  0.7418 -0.6877
22132SOL    HW278375   4.475   4.340   8.249 -1.5510 -1.1856  0.2547
22133SOL     OW78376   7.385   5.773   6.101 -0.2066 -0.3427 -0.2061
22133SOL    HW178377   7.320   5.702   6.102 -0.2618 -0.3047  0.8194
22133SOL    HW278378   7.463   5.735   6.142 -0.3684  0.2786  0.7311
22134SOL     OW78379   7.164   7.693   8.406  0.1482  0.5626  0.5813
22134SOL    HW178380   7.218   7.614   8.406 -0.4809  0.1140  1.4994
22134SOL    HW278381   7.226   7.764   8.425  0.6749  0.2758  0.0052
22135SOL     OW78382   2.025   0.537   7.495 -0.5608  0.1875 -0.2442
22135SOL    HW178383   2.044   0.548   7.589  0.0345  1.4807 -0.4972
22135SOL    HW278384   2.104   0.497   7.460 -0.8818 -0.5333 -0.1639
22136SOL     OW78385   8.420   7.369   4.345  0.0637 -0.5358  0.0823
22136SOL    HW178386   8.456   7.282   4.365  2.5452  0.0658 -1.2543
22136SOL    HW278387   8.365   7.354   4.268  0.2451 -0.9727  0.0322
22137SOL     OW78388   5.748   4.194   3.130  0.5986 -0.7763  0.0278
22137SOL    HW178389   5.772   4.231   3.045  0.9159 -0.1857  0.3722
22137SOL    HW278390   5.663   4.151   3.114  0.3422 -0.1141 -0.4300
22138SOL     OW78391   1.616   4.627   6.617 -0.3140  0.4232  0.3390
22138SOL    HW178392   1.652   4.657   6.534 -2.9071 -1.1356 -1.4953
22138SOL    HW278393   1.550   4.692   6.640  2.0975  2.2444  2.6735
22139SOL     OW78394   0.641   9.721   2.454  0.0025 -0.0317  0.3279
22139SOL    HW178395   0.694   9.646   2.483 -0.6191 -0.3373  0.7045
22139SOL    HW278396   0.671   9.739   2.366 -0.6671 -1.5140 -0.2405
22140SOL     OW78397   0.929   0.135   4.930 -0.0160 -0.0472 -0.6523
22140SOL    HW178398   0.886   0.184   5.000  3.4179  1.6463  0.4950
22140SOL    HW278399   0.891   0.171   4.849 -0.5655  1.5020  0.2552
22141SOL     OW78400   6.170   9.832   0.255 -0.1716 -0.1367  0.3349
22141SOL    HW178401   6.129   9.751   0.286 -0.9925  0.6384  1.3276
22141SOL    HW278402   6.234   9.854   0.322  1.2649 -0.8238 -0.7447
22142SOL     OW78403   7.136   5.387   3.497 -0.2708 -0.5520 -0.7604
22142SOL    HW178404   7.191   5.462   3.473  1.1232 -0.8496  1.2325
22142SOL    HW278405   7.049   5.409   3.463 -0.3120  2.7527  1.0439
22143SOL     OW78406   7.650   9.414   1.817  0.9151 -0.5700  0.0144
22143SOL    HW178407   7.649   9.331   1.769  0.4261 -0.4949 -0.1068
22143SOL    HW278408   7.743   9.435   1.826  1.0253 -0.7498 -0.6272
22144SOL     OW78409   6.662   0.732   9.154 -0.6519 -0.2183  0.3811
22144SOL    HW178410   6.588   0.769   9.106 -0.5412 -0.3122  0.1339
22144SOL    HW278411   6.739   0.775   9.117 -0.6281  0.3269  1.0646
22145SOL     OW78412   8.570   2.916   5.790 -0.2678  0.1437  0.0433
22145SOL    HW178413   8.485   2.873   5.782  0.1898 -0.9732  0.9114
22145SOL    HW278414   8.616   2.867   5.859  1.0095  0.8354 -0.2740
22146SOL     OW78415   0.634   4.082   1.947  0.1454  0.2278  0.2941
22146SOL    HW178416   0.588   4.121   2.022 -3.7978 -0.2410 -1.6206
22146SOL    HW278417   0.619   3.988   1.955 -0.7991  0.2132 -1.2945
22147SOL     OW78418   2.472   8.302   8.606 -0.3892 -0.6651 -0.5815
22147SOL    HW178419   2.564   8.320   8.623 -0.1430 -0.1167 -2.2535
22147SOL    HW278420   2.472   8.218   8.560 -0.8695 -1.3588  0.6458
22148SOL     OW78421   3.797   7.221   8.942  0.9441  0.7630  0.2088
22148SOL    HW178422   3.858   7.179   9.004 -0.3192  0.3489  1.2093
22148SOL    HW278423   3.763   7.296   8.989 -0.8064 -0.1334  0.4321
22149SOL     OW78424   4.931   2.603   8.027 -0.3867  0.3894  0.0250
22149SOL    HW178425   4.978   2.674   8.071  0.3248  0.3565 -0.6534
22149SOL    HW278426   4.997   2.535   8.016 -0.2400  0.8187 -2.0468
22150SOL     OW78427   0.345   3.221   3.920 -0.3312 -0.5644 -0.0078
22150SOL    HW178428   0.308   3.244   4.005  0.0271 -0.2402  0.0636
22150SOL    HW278429   0.322   3.293   3.862 -2.3901 -1.7280 -0.7535
22151SOL     OW78430   0.126   6.032   1.383 -0.8672 -0.0562  0.3030
22151SOL    HW178431   0.090   6.000   1.300  1.0024  0.0322 -0.5857
22151SOL    HW278432   0.219   6.048   1.365 -0.5335  0.5150  2.2665
22152SOL     OW78433  10.108   6.066   3.662  0.1140 -0.5293 -0.4414
22152SOL    HW178434  10.040   6.078   3.597 -0.1486 -0.1061 -0.0928
22152SOL    HW278435  10.113   6.150   3.708  1.0801 -0.4551 -0.6602
22153SOL     OW78436   6.817   6.885   7.416  0.4469 -0.2552  0.3557
22153SOL    HW178437   6.843   6.829   7.490  0.9098 -0.7268 -0.1563
22153SOL    HW278438   6.891   6.944   7.404  0.8367 -0.8892 -0.4150
22154SOL     OW78439   1.485   8.920   2.162  0.2018 -0.2412 -0.0106
22154SOL    HW178440   1.459   8.833   2.192 -1.0279  0.9069  2.5218
22154SOL    HW278441   1.581   8.917   2.160  0.1679 -1.8216 -0.6384
22155SOL     OW78442   6.868   3.852   6.438  0.7252 -0.1866 -0.5882
22155SOL    HW178443   6.896   3.942   6.456  1.4678 -0.4953 -0.1583
22155SOL    HW278444   6.805   3.861   6.366 -0.1042  0.7914  0.2280
22156SOL     OW78445   9.715   7.428   6.652  0.1701 -0.5054  0.7962
22156SOL    HW178446   9.713   7.394   6.741  1.2999  2.7193  2.1871
22156SOL    HW278447   9.808   7.426   6.628 -0.0936 -1.1006 -0.2550
22157SOL     OW78448   4.564   7.933   6.206  0.6737  0.0817  0.0703
22157SOL    HW178449   4.538   8.021   6.232  1.4091 -0.0520  1.3111
22157SOL    HW278450   4.545   7.930   6.112  0.2239  1.4020  0.0935
22158SOL     OW78451   8.114   4.672   2.588  0.6631  0.0439 -0.1405
22158SOL    HW178452   8.090   4.657   2.680 -0.0066  0.7007 -0.2011
22158SOL    HW278453   8.209   4.659   2.586  0.4176 -2.2963  0.1735
22159SOL     OW78454   1.028   2.128   1.874 -0.4115  0.4329 -0.1113
22159SOL    HW178455   0.947   2.085   1.902  0.1007 -0.4074  0.0992
22159SOL    HW278456   1.003   2.177   1.796 -0.8435 -0.8598 -0.8159
22160SOL     OW78457   7.521   6.004   6.006  0.7569 -0.2184 -0.0691
22160SOL    HW178458   7.609   5.985   6.040  0.1791  0.3771  1.8764
22160SOL    HW278459   7.465   5.937   6.045  0.3132 -0.5405 -1.2256
22161SOL     OW78460   5.348   9.688   7.927 -0.3122  0.1829 -0.2460
22161SOL    HW178461   5.284   9.702   7.857  0.4272 -0.4308 -1.0637
22161SOL    HW278462   5.307   9.626   7.986 -0.7168  0.2716 -0.4332
22162SOL     OW78463   9.482   9.798   5.128 -0.1052  0.0114 -0.1212
22162SOL    HW178464   9.565   9.818   5.084 -1.0082  0.0544 -1.9135
22162SOL    HW278465   9.425   9.872   5.104 -0.4598  0.3678  1.7100
22163SOL     OW78466   8.515   3.365   9.373 -0.0128 -0.2454 -0.1520
22163SOL    HW178467   8.595   3.357   9.322  0.6455 -1.4282  1.0056
22163SOL    HW278468   8.509   3.458   9.394 -1.0876  0.5619 -3.5022
22164SOL     OW78469  10.011   4.765   6.117  0.3526 -0.3084 -0.2180
22164SOL    HW178470  10.009   4.842   6.061  0.9950  0.3301  0.6207
22164SOL    HW278471  10.103   4.741   6.122  0.1995 -0.8967 -0.1493
22165SOL     OW78472   3.017   7.671   8.626 -0.7224 -0.2439 -0.1032
22165SOL    HW178473   3.105   7.643   8.601 -0.1424  1.9721 -0.7559
22165SOL    HW278474   2.959   7.604   8.590  0.5715 -0.7171 -1.3714
22166SOL     OW78475   0.559   6.158   6.485  0.5489  0.0262 -0.6875
22166SOL    HW178476   0.616   6.160   6.562 -0.9411 -0.2924  0.4599
22166SOL    HW278477   0.515   6.074   6.489  0.5432 -0.0535 -1.9815
22167SOL     OW78478   9.142   0.366   6.778  0.1150  0.2756 -0.0438
22167SOL    HW178479   9.179   0.405   6.699 -0.4293 -0.4359 -0.6777
22167SOL    HW278480   9.197   0.397   6.850  1.6154 -0.3329 -0.8800
22168SOL     OW78481   7.463   1.545   5.105  0.4618  0.0971  0.3769
22168SOL    HW178482   7.428   1.591   5.182 -0.8351  1.2156 -0.8342
22168SOL    HW278483   7.541   1.595   5.081 -0.1733  0.8612 -0.1210
22169SOL     OW78484   7.227   6.613   1.307  0.5272  0.1567 -0.3588
22169SOL    HW178485   7.257   6.673   1.376  2.2629 -1.2982  0.2241
22169SOL    HW278486   7.279   6.636   1.230 -1.4382  1.8082 -1.2936
22170SOL     OW78487   4.998   4.661   8.398 -0.3835  0.0434 -0.3681
22170SOL    HW178488   4.977   4.738   8.450  0.5059 -0.4902  0.8150
22170SOL    HW278489   4.913   4.624   8.375 -0.8443 -0.3888  1.7815
22171SOL     OW78490   0.165   9.551   2.690  0.6730 -0.1928  0.1096
22171SOL    HW178491   0.199   9.595   2.613 -0.8893  5.8760  2.3201
22171SOL    HW278492   0.237   9.557   2.754  0.0798  0.1199  0.7600
22172SOL     OW78493   9.736   9.037   5.369 -0.4172 -0.1882  0.5884
22172SOL    HW178494   9.735   9.061   5.277 -0.3209 -0.8582  0.4062
22172SOL    HW278495   9.823   9.062   5.400 -0.5693  0.3466  0.5843
22173SOL     OW78496   9.567   2.675   8.964  0.7794 -0.6887 -0.4569
22173SOL    HW178497   9.474   2.658   8.948  0.5700  0.1837 -0.2573
22173SOL    HW278498   9.582   2.761   8.925  1.0019  0.0973  1.2268
22174SOL     OW78499   6.368  10.385   7.216  0.3182  0.1748  0.1503
22174SOL    HW178500   6.291  10.328   7.214  0.2129  0.3100  0.2911
22174SOL    HW278501   6.388  10.394   7.309  0.4480  0.2149  0.1186
22175SOL     OW78502   9.980   2.569   9.412 -0.8784 -0.0458 -0.5809
22175SOL    HW178503   9.898   2.549   9.367 -0.3477  0.1033 -1.6403
22175SOL    HW278504   9.964   2.654   9.454 -1.4088 -0.2289 -0.3976
22176SOL     OW78505   3.281   8.918   4.014 -0.4187 -0.3021  0.5465
22176SOL    HW178506   3.308   8.977   4.084  1.5874  0.8949 -1.1258
22176SOL    HW278507   3.195   8.951   3.986  0.2802  1.3525  0.2246
22177SOL     OW78508   4.847   6.438   3.232 -0.0730 -0.1560  0.0900
22177SOL    HW178509   4.771   6.426   3.175  0.4708 -0.2889 -0.6155
22177SOL    HW278510   4.864   6.532   3.232 -0.0768 -0.1557  0.0442
22178SOL     OW78511   9.286   2.384   3.631 -0.4586  0.7882  0.4698
22178SOL    HW178512   9.278   2.294   3.602 -2.6119  1.6567 -1.9949
22178SOL    HW278513   9.380   2.398   3.642 -0.0663 -1.6116  0.5769
22179SOL     OW78514   2.252   9.114   3.777  0.2748 -0.3868 -0.3737
22179SOL    HW178515   2.194   9.105   3.702  0.9274 -1.9728 -0.7488
22179SOL    HW278516   2.340   9.107   3.740  0.5898 -2.8206  0.6342
22180SOL     OW78517   4.209   1.261   4.329 -0.1050 -0.3742  0.3418
22180SOL    HW178518   4.145   1.190   4.325  0.4660 -0.8398 -2.2914
22180SOL    HW278519   4.156   1.341   4.337 -0.9085 -0.8718  0.0609
22181SOL     OW78520   1.738   5.345   4.280  0.3823 -0.1312 -0.0490
22181SOL    HW178521   1.825   5.313   4.305  1.8701  1.5354 -2.5956
22181SOL    HW278522   1.713   5.289   4.206  0.0347  0.4272 -0.3597
22182SOL     OW78523   7.741   7.956   2.588 -0.3296 -0.0672  0.1031
22182SOL    HW178524   7.671   7.969   2.523  0.6052  0.0866 -0.8944
22182SOL    HW278525   7.814   8.009   2.557  0.1304  0.0609  1.3271
22183SOL     OW78526   8.466   9.997   7.010  0.3297 -0.2134 -0.0953
22183SOL    HW178527   8.375   9.985   7.036  0.0165 -1.7821 -1.7172
22183SOL    HW278528   8.464  10.073   6.951 -0.3622 -1.5052 -1.8323
22184SOL     OW78529   2.648   7.360   1.519  0.0211  0.6144 -0.3778
22184SOL    HW178530   2.654   7.448   1.483 -0.2960  0.8739  0.1749
22184SOL    HW278531   2.554   7.345   1.528  0.0965  0.8271  0.9488
22185SOL     OW78532   8.534   0.896   8.389 -0.0600 -0.1756  0.2153
22185SOL    HW178533   8.538   0.873   8.482 -0.4228 -1.0052  0.0394
22185SOL    HW278534   8.572   0.820   8.344 -3.3413 -1.5526 -0.5285
22186SOL     OW78535   8.638   1.314   7.873  0.1240 -0.2689  0.0252
22186SOL    HW178536   8.611   1.284   7.960 -1.3307  0.6325 -0.0679
22186SOL    HW278537   8.732   1.302   7.871  0.0292 -1.4665  1.2687
22187SOL     OW78538   0.700   3.792   2.452 -0.4156  0.2445  0.1240
22187SOL    HW178539   0.677   3.884   2.468 -0.7120  0.6086 -2.0332
22187SOL    HW278540   0.615   3.747   2.450 -0.3157  0.0360  0.5370
22188SOL     OW78541   5.961   5.374   4.674 -0.5884  0.0383 -0.3559
22188SOL    HW178542   5.994   5.450   4.626  1.4201 -0.5700  0.0026
22188SOL    HW278543   5.889   5.410   4.727 -0.0256  1.5945 -0.5885
22189SOL     OW78544   9.389   0.658   8.394  0.1745  0.4436  0.2786
22189SOL    HW178545   9.338   0.603   8.334  1.1324 -0.7002  0.4729
22189SOL    HW278546   9.348   0.644   8.480  2.2547 -2.5550  0.9528
22190SOL     OW78547   0.035   1.589   4.267  0.6351 -0.3633 -0.6198
22190SOL    HW178548   0.006   1.558   4.182 -1.0407 -0.5035 -0.0206
22190SOL    HW278549   0.021   1.515   4.326  0.1830  0.2863  0.1025
22191SOL     OW78550   9.823   3.518   9.461  0.3549 -0.1395  0.0937
22191SOL    HW178551   9.744   3.527   9.407  0.8786 -0.5245 -0.7661
22191SOL    HW278552   9.889   3.572   9.416  0.7457 -0.3069  0.4581
22192SOL     OW78553   6.452   9.818   5.377  0.3461  0.1585 -0.5522
22192SOL    HW178554   6.541   9.838   5.407  1.5711 -0.9754 -3.0758
22192SOL    HW278555   6.419   9.901   5.343  0.5204  0.5512  0.2203
22193SOL     OW78556  10.382   9.367   9.524  0.4631 -0.7752 -0.0370
22193SOL    HW178557  10.295   9.341   9.493  0.5939 -1.5250  0.2201
22193SOL    HW278558  10.369   9.392   9.615 -0.2764  3.1616 -1.0115
22194SOL     OW78559   4.352   7.269   3.260 -0.9236 -0.5681  0.2810
22194SOL    HW178560   4.352   7.276   3.355  1.0081 -0.1298  0.2937
22194SOL    HW278561   4.331   7.177   3.243  0.5269 -1.1122  1.2365
22195SOL     OW78562   4.261   3.878   6.347  0.6658 -0.8130 -0.2704
22195SOL    HW178563   4.257   3.937   6.272  0.8797  0.0383  0.3618
22195SOL    HW278564   4.354   3.866   6.364  0.6416 -2.1663 -1.0077
22196SOL     OW78565   9.540   9.948   7.661 -0.7499  0.3682  0.0723
22196SOL    HW178566   9.569   9.943   7.752  0.8692  0.4329 -0.4153
22196SOL    HW278567   9.564   9.864   7.624 -0.3700  0.7661 -0.5879
22197SOL     OW78568   3.946   2.056   9.720  0.4483 -0.1391  0.7472
22197SOL    HW178569   3.916   2.025   9.806  1.9164  1.0631  1.7692
22197SOL    HW278570   4.040   2.039   9.721  0.4561 -0.2717 -0.7232
22198SOL     OW78571   0.223   0.229   8.497  0.2949  0.4284 -0.6880
22198SOL    HW178572   0.263   0.274   8.571 -0.2421  0.5692 -0.4774
22198SOL    HW278573   0.130   0.226   8.518  0.3599 -1.2039 -0.4744
22199SOL     OW78574   6.391   9.347   6.160  0.1666  0.3575 -0.5122
22199SOL    HW178575   6.428   9.426   6.121 -0.5822  1.5401  1.0715
22199SOL    HW278576   6.413   9.353   6.252 -0.3235 -1.0582 -0.2765
22200SOL     OW78577   2.522   4.139   5.883  0.1345 -0.0337 -0.0586
22200SOL    HW178578   2.532   4.044   5.882 -1.6089 -0.2593  1.0916
22200SOL    HW278579   2.589   4.170   5.944 -0.5730 -0.7285  1.1081
22201SOL     OW78580   8.334   3.552   8.275  0.3634 -0.0275 -0.1205
22201SOL    HW178581   8.361   3.630   8.322 -2.3780 -0.2212  2.0665
22201SOL    HW278582   8.335   3.483   8.341  2.5736 -1.9155 -1.9612
22202SOL     OW78583   4.985   1.698   7.998 -0.2814  0.7448  0.2624
22202SOL    HW178584   5.065   1.702   7.945 -1.2101 -1.8982 -1.4800
22202SOL    HW278585   4.918   1.742   7.945 -1.3314 -2.3362 -1.1454
22203SOL     OW78586   4.318   2.895   9.195  0.7606  0.1108  0.5043
22203SOL    HW178587   4.276   2.890   9.109 -0.6592 -0.2798  1.1827
22203SOL    HW278588   4.271   2.831   9.248  1.2934  0.6830  1.7037
22204SOL     OW78589   9.399   4.743   6.940  0.6885 -0.0715  0.0825
22204SOL    HW178590   9.481   4.748   6.989  2.3565  2.1192 -2.6602
22204SOL    HW278591   9.385   4.649   6.926  3.2468 -0.4893 -0.1331
22205SOL     OW78592   7.553   8.557   4.243 -0.2725 -0.1879 -0.2203
22205SOL    HW178593   7.508   8.494   4.300  2.7914 -1.5982  0.8861
22205SOL    HW278594   7.556   8.515   4.157 -0.1518 -0.5834 -0.0244
22206SOL     OW78595   7.544   9.084   0.385 -0.6042  0.0895  0.1812
22206SOL    HW178596   7.624   9.118   0.426  1.0785 -1.3990 -1.6490
22206SOL    HW278597   7.540   8.993   0.413 -0.4895 -0.4161 -1.3970
22207SOL     OW78598   0.908   6.349   3.895 -0.0767  0.2839  0.4166
22207SOL    HW178599   0.848   6.354   3.821 -0.3063  1.2143  0.6539
22207SOL    HW278600   0.956   6.432   3.892  2.7062 -1.2262 -1.0045
22208SOL     OW78601   0.769   6.140   5.510  0.1940  0.1053 -0.2674
22208SOL    HW178602   0.693   6.168   5.459  0.9780  0.0131 -1.5319
22208SOL    HW278603   0.732   6.095   5.586 -1.0284  1.3450 -0.0848
22209SOL     OW78604   5.718   0.729   1.540  0.0294  0.1244 -0.0118
22209SOL    HW178605   5.702   0.742   1.634 -2.0930 -3.8351  0.3958
22209SOL    HW278606   5.813   0.720   1.532  0.1389 -1.6453  2.2337
22210SOL     OW78607   6.587   0.778   8.433 -0.0930  0.2083  0.1121
22210SOL    HW178608   6.668   0.790   8.382 -0.6389  0.6246 -0.6737
22210SOL    HW278609   6.520   0.825   8.384 -1.5276 -2.7155 -1.0069
22211SOL     OW78610   5.830   0.750   3.456  0.5978 -0.3038 -0.7155
22211SOL    HW178611   5.897   0.710   3.400  1.7034  0.1542  0.2542
22211SOL    HW278612   5.874   0.767   3.539 -0.3797  1.1472 -0.4539
22212SOL     OW78613   7.332   9.058   3.916 -0.1179 -0.5516  0.4535
22212SOL    HW178614   7.338   9.147   3.880 -1.0534 -1.4466 -2.1170
22212SOL    HW278615   7.270   9.013   3.858  2.0105 -3.5209  0.2793
22213SOL     OW78616   2.527   0.447   5.399  0.4053  0.4924  0.1318
22213SOL    HW178617   2.474   0.368   5.384  1.6721 -0.6370  1.3261
22213SOL    HW278618   2.465   0.519   5.394 -0.7522 -0.5536 -1.2568
22214SOL     OW78619   3.505   4.816   9.329  0.3232 -0.4215  0.1491
22214SOL    HW178620   3.578   4.878   9.324  0.2235 -0.3396 -0.3176
22214SOL    HW278621   3.505   4.786   9.420  0.2795  0.3814  0.4192
22215SOL     OW78622   2.139   5.712   8.791 -0.2580  0.3024 -0.5120
22215SOL    HW178623   2.130   5.626   8.750 -2.1110 -0.3811  1.1585
22215SOL    HW278624   2.081   5.769   8.741  0.1633  0.3360 -0.9691
22216SOL     OW78625   6.617   9.441   1.485 -0.1854  0.1946 -0.1768
22216SOL    HW178626   6.627   9.462   1.392  0.4707 -0.2948 -0.2243
22216SOL    HW278627   6.627   9.526   1.530 -0.0832  0.3694 -0.5289
22217SOL     OW78628   5.181   0.856   5.894  0.5065 -0.2055  0.3774
22217SOL    HW178629   5.086   0.859   5.907  0.5632 -1.8731  1.4874
22217SOL    HW278630   5.203   0.943   5.859 -1.2579  0.6609  1.2574
22218SOL     OW78631   0.590   6.192   8.921 -0.0337 -0.0597  0.1497
22218SOL    HW178632   0.678   6.157   8.932  0.4523  0.9048 -0.4662
22218SOL    HW278633   0.599   6.286   8.940  0.3519  1.2892 -5.0791
22219SOL     OW78634   9.880   6.306   7.855  0.2851 -0.2603  0.1924
22219SOL    HW178635   9.835   6.374   7.905 -0.2123  0.4235 -1.1118
22219SOL    HW278636   9.833   6.303   7.771 -0.5487 -3.1484  0.6534
22220SOL     OW78637   7.227   9.825   3.340  0.2919 -0.3876  0.4057
22220SOL    HW178638   7.163   9.841   3.271 -0.6884 -3.5569  0.4199
22220SOL    HW278639   7.309   9.807   3.294  0.2753 -0.0070  0.2241
22221SOL     OW78640   7.413   4.048   1.546 -0.1032 -0.5181 -0.2207
22221SOL    HW178641   7.501   4.060   1.511 -1.1043  1.7450 -2.2985
22221SOL    HW278642   7.400   4.124   1.603 -1.0913 -0.1790 -0.8785
22222SOL     OW78643   0.293   2.845   5.371 -0.0332 -0.1786 -0.2842
22222SOL    HW178644   0.372   2.853   5.318  0.6381 -3.1725  0.0646
22222SOL    HW278645   0.233   2.793   5.318 -0.5096 -0.6524  0.6772
22223SOL     OW78646   1.229   8.046   9.057  0.1075 -0.0193  0.2169
22223SOL    HW178647   1.172   8.047   8.979 -0.4107 -0.4856  0.5799
22223SOL    HW278648   1.193   7.975   9.111  1.7426 -1.1072 -0.0651
22224SOL     OW78649   0.947   9.347   4.210  0.0239  0.0326  0.0555
22224SOL    HW178650   1.014   9.397   4.163  0.1717 -0.2264 -0.0169
22224SOL    HW278651   0.884   9.321   4.143  0.8625 -1.3715 -0.2490
22225SOL     OW78652   5.935   3.123   4.972 -0.1158  0.1918 -0.2380
22225SOL    HW178653   5.926   3.045   5.028 -2.4439  0.6194  0.0809
22225SOL    HW278654   6.018   3.163   5.000  0.0180 -0.9694  1.1388
22226SOL     OW78655   2.416   9.914   1.897 -0.5595  0.0543 -0.3231
22226SOL    HW178656   2.377   9.945   1.979 -0.3352 -0.5402  0.0221
22226SOL    HW278657   2.444   9.824   1.917  0.0349  0.1118 -0.8776
22227SOL     OW78658   5.252   5.016   8.215 -0.0933  0.1461 -0.4209
22227SOL    HW178659   5.346   4.999   8.215 -0.1184 -0.0238  0.2575
22227SOL    HW278660   5.212   4.929   8.204 -0.1742  0.1496 -0.1676
22228SOL     OW78661   5.695   0.664   5.491  0.0901 -0.6516 -0.6262
22228SOL    HW178662   5.683   0.613   5.411 -1.5176  0.1053 -0.9001
22228SOL    HW278663   5.619   0.642   5.545  2.1502 -2.7980  1.6994
22229SOL     OW78664   6.217   0.642   1.585  0.2486  0.0408  0.1338
22229SOL    HW178665   6.197   0.669   1.675  1.9569  1.3719  0.1617
22229SOL    HW278666   6.290   0.581   1.593 -0.0203 -0.3516 -0.3201
22230SOL     OW78667   5.822   3.319   9.977 -0.2377 -0.2865 -0.1069
22230SOL    HW178668   5.863   3.256  10.036  1.3773  0.9856  0.1760
22230SOL    HW278669   5.889   3.384   9.959 -1.2243  0.3071 -2.0045
22231SOL     OW78670   0.015   3.712   8.088 -0.3884  0.5467 -0.7222
22231SOL    HW178671  -0.036   3.792   8.076  1.0093  1.6768  0.5352
22231SOL    HW278672  -0.051   3.642   8.085 -2.0300  1.9289  0.7327
22232SOL     OW78673   5.837   8.357   0.997 -0.6758 -0.1039  0.0279
22232SOL    HW178674   5.744   8.352   1.020 -0.7872  0.1317 -0.3607
22232SOL    HW278675   5.838   8.371   0.903 -0.3584  3.8033  0.4441
22233SOL     OW78676   3.995   1.510   0.442  0.4706  0.1729  0.0117
22233SOL    HW178677   3.909   1.552   0.441  0.3494 -0.0850 -0.4151
22233SOL    HW278678   4.033   1.529   0.357  0.0893 -1.2310 -0.4969
22234SOL     OW78679  10.049   1.119   1.676 -0.0009  0.5071 -0.7535
22234SOL    HW178680  10.027   1.082   1.590  1.7183  0.8587 -1.3889
22234SOL    HW278681  10.009   1.206   1.676  0.1070  0.5579 -1.2497
22235SOL     OW78682   0.011   5.495   8.607  0.4549  0.2360  0.3253
22235SOL    HW178683  -0.019   5.502   8.516 -0.4149 -1.7265  0.4095
22235SOL    HW278684  -0.024   5.573   8.650 -2.2408 -0.5680 -0.2251
22236SOL     OW78685   2.757   2.342   4.624 -0.0005  0.8528 -0.0371
22236SOL    HW178686   2.813   2.400   4.675  0.9098 -0.1489  0.1302
22236SOL    HW278687   2.817   2.283   4.579 -0.8833 -1.4023  1.4932
22237SOL     OW78688   9.037   3.641   1.911 -0.2495  0.3876 -0.0203
22237SOL    HW178689   9.013   3.562   1.959 -0.0726  0.3479 -0.0006
22237SOL    HW278690   9.052   3.707   1.979 -0.1711  0.3782 -0.0290
22238SOL     OW78691   1.884   1.857   2.256 -0.2226 -0.7331  0.1172
22238SOL    HW178692   1.957   1.901   2.213  0.1548 -0.7097  0.7665
22238SOL    HW278693   1.806   1.888   2.210  0.2472 -1.6641 -1.3772
22239SOL     OW78694   0.558   0.036   3.258  0.0190  0.2655  0.8628
22239SOL    HW178695   0.541   0.079   3.174 -0.8050 -1.6378 -0.0074
22239SOL    HW278696   0.481   0.058   3.312 -0.0450  0.4840  0.6856
22240SOL     OW78697   2.784   0.387   1.687 -0.1199  0.1498  0.0193
22240SOL    HW178698   2.809   0.295   1.677 -0.5614  0.1322 -1.0908
22240SOL    HW278699   2.824   0.430   1.611 -1.6478  0.4922 -0.6254
22241SOL     OW78700   5.678   8.502   0.422  0.0280 -0.1644  0.1206
22241SOL    HW178701   5.739   8.437   0.387  0.2258 -0.7547  1.4945
22241SOL    HW278702   5.733   8.574   0.450 -0.0484 -0.0528 -0.0159
22242SOL     OW78703   4.865   9.255   4.980 -0.1747 -0.1235 -0.9510
22242SOL    HW178704   4.829   9.224   5.063  2.0217 -0.7789 -0.1753
22242SOL    HW278705   4.831   9.344   4.972 -2.7883 -1.0205 -0.8640
22243SOL     OW78706   9.332   6.071   0.527 -0.1756  0.3607  0.0914
22243SOL    HW178707   9.412   6.027   0.554  0.0950 -0.6868 -2.1650
22243SOL    HW278708   9.277   6.071   0.605  1.4891 -0.0886  1.3207
22244SOL     OW78709   3.548   9.648   7.852 -0.7740  0.3418  0.1546
22244SOL    HW178710   3.515   9.583   7.790  0.9209  0.2097 -0.6459
22244SOL    HW278711   3.593   9.713   7.797 -0.6861  1.1192  1.1160
22245SOL     OW78712   1.825   7.469   0.057 -0.5909  0.3914  0.0071
22245SOL    HW178713   1.852   7.410  -0.013 -0.0731  1.1491 -0.4503
22245SOL    HW278714   1.848   7.423   0.138 -0.7165 -0.2683 -0.3283
22246SOL     OW78715   0.651   5.003   9.340 -0.3679 -0.2656  0.9461
22246SOL    HW178716   0.742   5.025   9.360 -0.0367 -1.0907  0.4256
22246SOL    HW278717   0.653   4.909   9.323 -1.3855 -0.3550  1.2544
22247SOL     OW78718   9.285   8.890   7.493  0.1576 -0.2211  0.0067
22247SOL    HW178719   9.318   8.889   7.403 -1.5787 -0.0055 -0.6657
22247SOL    HW278720   9.227   8.814   7.498  0.3945 -0.3520  1.0312
22248SOL     OW78721   4.675   4.231   8.168  0.0688 -0.1931  0.0140
22248SOL    HW178722   4.740   4.269   8.228 -0.6823 -0.3164  0.9240
22248SOL    HW278723   4.680   4.137   8.183 -0.4829 -0.1872  0.2692
22249SOL     OW78724   4.769   6.988   9.264 -0.0270  0.2748  0.1966
22249SOL    HW178725   4.760   6.987   9.169  0.2708  0.6170  0.1657
22249SOL    HW278726   4.717   7.063   9.293 -0.7257 -0.2632  0.3697
22250SOL     OW78727   1.283   5.585   2.257 -0.1039 -0.2764  0.1493
22250SOL    HW178728   1.208   5.531   2.232 -1.2593  1.7449 -0.9980
22250SOL    HW278729   1.265   5.611   2.347 -0.7843  0.1769 -0.1130
22251SOL     OW78730   1.318   7.891   5.761  0.0919 -0.3150  0.5296
22251SOL    HW178731   1.361   7.974   5.742  0.1398 -0.2343  0.9649
22251SOL    HW278732   1.303   7.894   5.856 -0.3424 -0.5949  0.4708
22252SOL     OW78733   1.390   7.089   3.879  0.8677  0.1374 -0.2613
22252SOL    HW178734   1.397   7.071   3.785 -0.3433  0.6710 -0.4692
22252SOL    HW278735   1.369   7.182   3.884  0.3063 -0.0294  0.5136
22253SOL     OW78736   9.476   0.397   1.267 -0.2277 -0.3209  0.1166
22253SOL    HW178737   9.439   0.370   1.351 -0.1363  3.6804  1.6840
22253SOL    HW278738   9.401   0.427   1.216 -0.0230 -0.4396 -0.2569
22254SOL     OW78739   4.636  10.300   8.296  0.5135 -0.2788  0.3081
22254SOL    HW178740   4.548  10.323   8.323  0.3680 -1.1592  0.6168
22254SOL    HW278741   4.689  10.377   8.317 -0.2176  0.3488 -0.1099
22255SOL     OW78742   5.675   9.042   8.482  0.1549 -0.1634  0.0567
22255SOL    HW178743   5.667   9.137   8.488 -1.1281 -0.2778  0.6359
22255SOL    HW278744   5.676   9.012   8.573  0.8646 -0.6841 -0.1182
22256SOL     OW78745   2.382   9.413   1.602  0.6762  0.4058  0.0479
22256SOL    HW178746   2.331   9.332   1.591 -0.3536  0.8522  1.2818
22256SOL    HW278747   2.440   9.394   1.676 -0.6988  1.2870  1.4128
22257SOL     OW78748   7.898   0.777   5.005  0.2587 -0.5850 -0.2742
22257SOL    HW178749   7.803   0.770   5.002  0.3545 -1.9665 -1.8840
22257SOL    HW278750   7.922   0.806   4.916  1.3688 -0.7915 -0.0565
22258SOL     OW78751  10.187  10.042   0.470  0.2685  0.0275  0.3334
22258SOL    HW178752  10.212   9.977   0.535 -0.4469 -1.0037 -0.3780
22258SOL    HW278753  10.215  10.004   0.386 -1.1958  0.0810 -0.2097
22259SOL     OW78754   1.224   9.770   8.398 -0.1962 -0.4142 -0.4867
22259SOL    HW178755   1.253   9.769   8.307 -0.0622 -2.3243 -0.4698
22259SOL    HW278756   1.256   9.687   8.434 -1.4786 -0.3528  0.8955
22260SOL     OW78757   8.828   2.139   0.360 -0.9078 -0.1409  0.0994
22260SOL    HW178758   8.776   2.197   0.416  1.7159  1.1422  1.4015
22260SOL    HW278759   8.900   2.110   0.416  0.6066 -0.6419 -1.9913
22261SOL     OW78760   4.967   6.785   4.627 -0.2046 -0.1921  0.4435
22261SOL    HW178761   4.950   6.835   4.707 -0.1483 -0.4632  0.6260
22261SOL    HW278762   4.940   6.696   4.649  0.0172 -0.3100  0.2312
22262SOL     OW78763   3.976   4.107   6.595 -0.1528 -0.1829 -0.2484
22262SOL    HW178764   3.896   4.111   6.648  0.5350 -1.9644  1.0133
22262SOL    HW278765   4.029   4.180   6.625 -1.0460  0.6891 -0.7193
22263SOL     OW78766  10.036   0.577   1.879 -0.0956  0.6540 -0.3546
22263SOL    HW178767   9.946   0.544   1.871 -0.2633  1.1684 -0.6293
22263SOL    HW278768  10.039   0.654   1.822  0.6592  0.3629 -0.7263
22264SOL     OW78769   8.419   1.021   3.904 -0.0812 -0.1290 -0.2050
22264SOL    HW178770   8.462   1.021   3.819  0.6855  0.2143  0.1731
22264SOL    HW278771   8.327   1.040   3.885 -0.2435 -1.6783 -1.1045
22265SOL     OW78772   1.830   6.704   2.269 -0.3725  0.1246 -0.2228
22265SOL    HW178773   1.836   6.666   2.182  0.8132 -1.5358  0.5095
22265SOL    HW278774   1.901   6.768   2.273 -0.0425 -0.2265 -0.3136
22266SOL     OW78775   0.782   8.019   5.377  0.3870  0.0609  0.5061
22266SOL    HW178776   0.809   8.111   5.368 -0.7180  0.4662  1.1230
22266SOL    HW278777   0.694   8.016   5.340  0.8898 -1.0419 -0.6707
22267SOL     OW78778   0.589   6.412   6.847 -0.1933 -0.0682 -0.2968
22267SOL    HW178779   0.533   6.439   6.774 -1.8092 -1.9522  0.1564
22267SOL    HW278780   0.619   6.324   6.823 -0.6305 -0.6575  1.2202
22268SOL     OW78781   8.469   9.784   6.352  0.1361  0.5400 -0.7405
22268SOL    HW178782   8.432   9.872   6.346  0.5413  0.6965 -0.9396
22268SOL    HW278783   8.466   9.763   6.445 -1.4765  0.1134 -0.8470
22269SOL     OW78784   5.372   3.984   6.318  0.6233 -0.5298  0.3547
22269SOL    HW178785   5.377   3.891   6.298  3.0345 -0.3023 -0.3249
22269SOL    HW278786   5.461   4.009   6.342  0.1908  1.7467 -0.1480
22270SOL     OW78787   9.577   9.042   3.011  0.6319 -0.1058  0.5953
22270SOL    HW178788   9.500   9.094   3.035 -0.5754 -1.2908 -0.5789
22270SOL    HW278789   9.617   9.090   2.938  0.4183 -0.0334  0.5269
22271SOL     OW78790   1.030   2.837  10.201 -0.2555 -0.5522 -0.1682
22271SOL    HW178791   0.957   2.785  10.167 -0.6069  0.4837 -1.0645
22271SOL    HW278792   0.990   2.919  10.231  0.3289 -0.6486  0.9208
22272SOL     OW78793   0.367   8.294   7.502  0.8920 -0.6560 -0.5912
22272SOL    HW178794   0.319   8.211   7.506  0.3083 -0.5402 -3.0567
22272SOL    HW278795   0.328   8.349   7.570 -2.1664 -0.7805 -2.0775
22273SOL     OW78796   9.551   7.769   5.603 -0.0480 -0.7190 -0.2717
22273SOL    HW178797   9.545   7.759   5.698 -1.5932  1.9442  0.0301
22273SOL    HW278798   9.618   7.837   5.590  1.7657 -2.5585 -1.3247
22274SOL     OW78799   2.922   4.596   7.634  0.4329  0.1073 -0.0721
22274SOL    HW178800   2.993   4.546   7.674  0.0980  0.9852  1.7247
22274SOL    HW278801   2.848   4.536   7.634  1.1815 -0.9224 -2.2495
22275SOL     OW78802   8.514   7.091   7.568 -0.4799 -0.3426  0.1909
22275SOL    HW178803   8.590   7.141   7.599 -0.2369  0.9079 -2.2292
22275SOL    HW278804   8.446   7.157   7.553 -1.4780 -1.2372  0.6192
22276SOL     OW78805   8.953   9.480  10.029  0.0309  0.1814 -0.4958
22276SOL    HW178806   8.936   9.501  10.121  1.2222  1.0198 -0.4443
22276SOL    HW278807   8.871   9.442   9.998 -0.6315  0.5490  0.7154
22277SOL     OW78808   4.226   2.689   9.354 -0.2686 -0.2906  0.3689
22277SOL    HW178809   4.148   2.647   9.391  0.6153 -1.7377  0.7125
22277SOL    HW278810   4.297   2.627   9.373  0.8190  0.5836 -0.6810
22278SOL     OW78811   3.057  10.303   0.131 -0.8323  0.3202 -0.0381
22278SOL    HW178812   2.995  10.348   0.073 -0.9446 -1.2006 -1.1679
22278SOL    HW278813   3.128  10.366   0.143 -1.6147  1.3084 -0.4487
22279SOL     OW78814   1.553   1.004   5.014  0.4929 -0.0325  0.5459
22279SOL    HW178815   1.512   0.980   5.097  0.7381  0.5157  0.8280
22279SOL    HW278816   1.583   0.920   4.978  0.3530 -0.2814  0.9939
22280SOL     OW78817   1.767   2.407   3.075 -0.3141 -0.0242 -0.3113
22280SOL    HW178818   1.706   2.337   3.052  0.7241 -1.1790  0.3495
22280SOL    HW278819   1.810   2.430   2.993 -0.2694 -0.5382 -0.4318
22281SOL     OW78820   6.629   0.430   3.549 -0.0997 -0.2016 -0.2867
22281SOL    HW178821   6.664   0.453   3.462  1.3542 -3.8209 -0.8248
22281SOL    HW278822   6.706   0.429   3.606 -0.6595 -0.3408  0.4758
22282SOL     OW78823   6.576   1.300   8.636  0.5106  0.0239 -0.2051
22282SOL    HW178824   6.530   1.369   8.684  1.5117 -1.6585  3.5621
22282SOL    HW278825   6.667   1.330   8.632  0.5025 -0.0149 -0.7647
22283SOL     OW78826   0.933   0.943   9.659  0.7810  0.3604  0.1227
22283SOL    HW178827   0.876   1.006   9.615  0.7163 -0.0749 -0.4314
22283SOL    HW278828   0.875   0.873   9.688  0.9621  0.1541 -0.0058
22284SOL     OW78829   8.443   0.724   6.334 -0.0869 -0.1309  0.3708
22284SOL    HW178830   8.406   0.697   6.418 -0.0473 -1.8906 -0.1305
22284SOL    HW278831   8.525   0.768   6.357 -0.5121  0.2069  1.2888
22285SOL     OW78832  10.181   6.605   1.543 -0.1339  0.4576 -0.0948
22285SOL    HW178833  10.239   6.630   1.615 -1.1602  0.3715  0.7714
22285SOL    HW278834  10.241   6.586   1.470  1.0272 -1.0756  1.1891
22286SOL     OW78835   7.436   1.810   2.679  0.6731  0.1559  0.3464
22286SOL    HW178836   7.350   1.838   2.709  0.6221 -0.4157  0.7470
22286SOL    HW278837   7.497   1.851   2.741  0.7412  1.1074 -0.3335
22287SOL     OW78838   6.753   9.482   2.799 -0.9252 -0.1348 -0.4067
22287SOL    HW178839   6.727   9.481   2.891 -2.4277 -1.7118 -0.7863
22287SOL    HW278840   6.763   9.574   2.778 -0.9671  0.2758  1.2294
22288SOL     OW78841   1.427   8.683   0.361 -0.5392 -0.0825  0.8279
22288SOL    HW178842   1.431   8.602   0.310  2.5009 -1.0837  2.3736
22288SOL    HW278843   1.447   8.656   0.451  1.1350  2.3891  1.3159
22289SOL     OW78844   9.168   9.894   5.733 -0.0132  0.4283  0.1623
22289SOL    HW178845   9.128   9.938   5.658 -0.1758 -1.1716 -0.7287
22289SOL    HW278846   9.256   9.870   5.703 -0.3189 -0.8292  0.2053
22290SOL     OW78847   1.730   9.531   8.600 -0.3215 -0.1483 -0.3487
22290SOL    HW178848   1.775   9.504   8.520 -1.9754  1.3707 -1.8799
22290SOL    HW278849   1.763   9.619   8.618  0.9301 -0.9213  1.3918
22291SOL     OW78850  10.338   6.099  10.209 -0.1353 -0.4713 -0.0517
22291SOL    HW178851  10.352   6.108  10.115 -1.6593  0.6173 -0.2105
22291SOL    HW278852  10.328   6.189  10.241 -0.5936 -0.8657  0.9768
22292SOL     OW78853   9.791   7.998   4.205 -0.3877  0.1147 -0.1504
22292SOL    HW178854   9.720   7.938   4.228 -0.3801  0.6235  1.3580
22292SOL    HW278855   9.839   8.011   4.288  2.7636 -1.8275 -1.4787
22293SOL     OW78856   7.758   9.184   9.256 -0.4681 -0.2039 -0.0168
22293SOL    HW178857   7.694   9.119   9.228  0.6044 -0.3736 -2.3403
22293SOL    HW278858   7.748   9.189   9.351 -2.1033 -2.1159 -0.0308
22294SOL     OW78859   0.039   0.074   1.071  0.1698 -0.4168  0.0946
22294SOL    HW178860   0.043   0.155   1.121 -1.5431 -0.1291 -0.1543
22294SOL    HW278861   0.037   0.005   1.137  3.5920 -0.4693  0.2999
22295SOL     OW78862   2.619   3.545   1.702  0.1548 -0.1170  0.1467
22295SOL    HW178863   2.711   3.547   1.728  0.1402 -0.8913  0.2803
22295SOL    HW278864   2.620   3.509   1.613 -0.1425 -1.9497  0.8389
22296SOL     OW78865   7.850  10.234   1.927 -0.0461 -0.0623 -0.1379
22296SOL    HW178866   7.840  10.153   1.878 -2.2533 -0.0740  0.2355
22296SOL    HW278867   7.765  10.277   1.920  0.2884  1.0186  1.7471
22297SOL     OW78868   6.118   4.698   7.105 -0.7831 -0.1309 -0.5153
22297SOL    HW178869   6.048   4.757   7.076  0.4761  1.2286 -0.9650
22297SOL    HW278870   6.163   4.748   7.173 -0.3085 -1.0065 -0.1853
22298SOL     OW78871   9.641   0.309   2.054 -0.5013  0.2266  0.1411
22298SOL    HW178872   9.631   0.215   2.067  0.5709  0.2832  1.5670
22298SOL    HW278873   9.617   0.348   2.138 -1.3200  1.2880 -0.5472
22299SOL     OW78874   0.652   8.285   6.092  0.3077  0.2752 -0.7308
22299SOL    HW178875   0.657   8.371   6.049 -0.7034  0.7201 -0.0197
22299SOL    HW278876   0.681   8.302   6.182 -1.3128  0.2234 -0.1623
22300SOL     OW78877   3.203   8.729   6.687  0.5541  0.2210  0.2444
22300SOL    HW178878   3.144   8.682   6.746 -1.3067  0.6172 -1.2038
22300SOL    HW278879   3.246   8.659   6.637  1.0590 -0.0635  1.0593
22301SOL     OW78880   2.767   5.761   6.570 -0.1351  0.4880 -0.5835
22301SOL    HW178881   2.743   5.668   6.581  3.8197 -0.7108 -0.4305
22301SOL    HW278882   2.742   5.801   6.653  0.7537 -1.1774  0.5550
22302SOL     OW78883   4.755   1.255   5.639  0.3324 -0.2598  0.0437
22302SOL    HW178884   4.790   1.223   5.723  0.3280 -0.8212 -0.1629
22302SOL    HW278885   4.832   1.291   5.594  0.1482  1.0234  0.7232
22303SOL     OW78886   9.645   1.979   3.604  0.5529 -0.5926  0.4445
22303SOL    HW178887   9.623   2.002   3.513  1.8491 -1.0726 -0.0108
22303SOL    HW278888   9.734   2.012   3.616 -0.2855  1.2143  2.1996
22304SOL     OW78889   0.807   5.525   9.119  0.1795 -0.4396 -0.4377
22304SOL    HW178890   0.800   5.520   9.024 -2.1845  1.1710 -0.4033
22304SOL    HW278891   0.719   5.545   9.149  1.0233 -0.1694  2.0642
22305SOL     OW78892   4.373   5.209   6.291 -0.0488 -0.0010 -0.0237
22305SOL    HW178893   4.461   5.193   6.256  0.0840  1.7024 -0.5658
22305SOL    HW278894   4.363   5.305   6.289 -2.1606 -0.1752 -0.6000
22306SOL     OW78895   8.598   1.149   6.340 -0.2077 -0.3514  0.6655
22306SOL    HW178896   8.646   1.173   6.261 -0.1533 -0.5041  0.6523
22306SOL    HW278897   8.643   1.197   6.410 -0.3925 -0.0456  0.5748
22307SOL     OW78898   9.922   2.863   7.226 -0.3811 -0.6192  0.1474
22307SOL    HW178899   9.920   2.851   7.321 -0.8133 -0.1345  0.2003
22307SOL    HW278900   9.832   2.846   7.197 -0.6805  0.9907  0.0454
22308SOL     OW78901   0.979   3.132   7.471 -0.2089  0.1375  0.0840
22308SOL    HW178902   0.902   3.078   7.488 -0.7810  1.0450  0.4622
22308SOL    HW278903   0.945   3.206   7.421  0.2027  1.1066  1.1825
22309SOL     OW78904   2.103   5.948   4.430 -0.3815  0.3121 -0.1688
22309SOL    HW178905   2.154   6.001   4.368  0.5977 -0.3593  0.0416
22309SOL    HW278906   2.083   6.008   4.502 -0.7669  0.8592 -0.7201
22310SOL     OW78907   4.981   1.406   6.706 -0.5452  0.5383 -0.0892
22310SOL    HW178908   4.901   1.356   6.723 -0.5178  0.7727  0.7857
22310SOL    HW278909   4.975   1.429   6.613 -1.4709  0.5056 -0.0539
22311SOL     OW78910   6.985   2.132   9.054  0.3702 -0.1540  0.0541
22311SOL    HW178911   6.943   2.199   8.999  1.1964  0.0574 -0.3302
22311SOL    HW278912   6.940   2.137   9.138 -0.2485  0.1933 -0.2957
22312SOL     OW78913  10.227   3.495   6.346  0.1854  0.0324  0.2380
22312SOL    HW178914  10.323   3.488   6.346  0.3732  1.3221 -2.3846
22312SOL    HW278915  10.210   3.588   6.359 -0.5804  0.1222 -1.1778
22313SOL     OW78916   0.361   5.961   4.306 -0.0656 -0.2701  0.4164
22313SOL    HW178917   0.415   5.889   4.276 -0.1461 -0.1407 -0.0422
22313SOL    HW278918   0.300   5.978   4.234 -0.1052  0.1973  0.5541
22314SOL     OW78919   6.446   1.548   8.720 -0.1310  0.1398  0.5517
22314SOL    HW178920   6.402   1.620   8.764 -0.4706 -1.0895  2.3101
22314SOL    HW278921   6.413   1.551   8.630 -1.0582  1.4236  0.9157
22315SOL     OW78922   9.042   9.561   6.822 -0.1575 -0.3137 -0.6713
22315SOL    HW178923   8.971   9.508   6.858  0.3217 -0.2876  0.3533
22315SOL    HW278924   9.059   9.627   6.890  0.4244  0.0618 -1.1747
22316SOL     OW78925   4.500   9.065   0.276 -0.3722 -0.0232 -0.4099
22316SOL    HW178926   4.451   9.084   0.356  1.3310  1.9824  0.2593
22316SOL    HW278927   4.543   8.981   0.293  0.3281  0.5949  1.0038
22317SOL     OW78928   1.329   2.231   5.784  0.5629  0.2854 -0.0732
22317SOL    HW178929   1.246   2.206   5.824 -0.1839  0.5789 -1.3791
22317SOL    HW278930   1.390   2.162   5.810 -0.4542 -0.7276 -0.2994
22318SOL     OW78931   3.536   1.104   6.318 -0.0246 -0.6120 -0.0078
22318SOL    HW178932   3.616   1.154   6.334 -0.4827  0.3217 -0.5527
22318SOL    HW278933   3.481   1.123   6.394 -0.6620  0.6969 -0.7571
22319SOL     OW78934   7.510   2.030   1.267 -0.0313 -0.7127 -0.6275
22319SOL    HW178935   7.442   2.093   1.242  0.3621  0.2890  0.7273
22319SOL    HW278936   7.468   1.944   1.256 -2.2147 -0.1128  1.8931
22320SOL     OW78937   6.693   3.029   7.180 -0.0125  0.4142 -0.2470
22320SOL    HW178938   6.630   3.100   7.170 -0.9835  0.0643  2.4549
22320SOL    HW278939   6.764   3.068   7.231 -0.3284 -0.3983  0.8415
22321SOL     OW78940   0.162   4.275   9.916 -0.1039  0.0388  0.0718
22321SOL    HW178941   0.204   4.314   9.992 -0.9639 -0.5777  0.8855
22321SOL    HW278942   0.234   4.232   9.869  0.5915  1.2250  0.0007
22322SOL     OW78943   0.070   5.235   7.567  0.6406 -0.1140 -0.2989
22322SOL    HW178944  -0.000   5.215   7.629  1.6745  0.0849  0.9682
22322SOL    HW278945   0.141   5.269   7.621  0.7746  2.2547 -1.8386
22323SOL     OW78946   8.646   4.877   7.470  0.3223  0.2704  0.9154
22323SOL    HW178947   8.600   4.794   7.464 -0.5794  0.8067 -0.0201
22323SOL    HW278948   8.670   4.885   7.562 -1.7225  0.0969  1.5108
22324SOL     OW78949   4.792   9.101   5.229 -0.3640  0.3525  0.4966
22324SOL    HW178950   4.707   9.058   5.227 -0.6582  0.9577 -1.3397
22324SOL    HW278951   4.851   9.040   5.186 -0.5835  1.2873 -1.2241
22325SOL     OW78952   2.002   2.317   9.609  0.3489 -0.5166  0.3763
22325SOL    HW178953   2.033   2.230   9.634 -0.1823 -0.2413  2.1398
22325SOL    HW278954   2.034   2.374   9.678  0.4589  0.6517 -0.6190
22326SOL     OW78955   3.236   5.783   9.786 -0.1641  0.0328 -0.3303
22326SOL    HW178956   3.182   5.765   9.709 -1.4062  1.8734  0.0468
22326SOL    HW278957   3.317   5.820   9.751  0.1362 -1.0675 -0.8245
22327SOL     OW78958   7.052   6.046   8.497  0.5990  0.4939  0.0530
22327SOL    HW178959   6.983   6.052   8.431  0.8146  2.5499 -0.0571
22327SOL    HW278960   7.105   5.971   8.470 -0.3859  0.1620 -1.0400
22328SOL     OW78961   1.855   3.474   0.291 -0.3897  0.2124  0.0987
22328SOL    HW178962   1.822   3.522   0.367  0.8896 -0.5047  1.1476
22328SOL    HW278963   1.777   3.441   0.247 -1.1292 -0.3105  1.7380
22329SOL     OW78964   8.043   4.853   9.374 -0.7071 -0.1301 -0.3859
22329SOL    HW178965   8.054   4.906   9.453 -0.7610 -0.1405 -0.3710
22329SOL    HW278966   7.987   4.907   9.318 -0.0867  0.1837 -0.7058
22330SOL     OW78967   2.297   7.296   0.415  0.2252  0.0386 -0.1332
22330SOL    HW178968   2.341   7.297   0.500  0.8430  0.9912 -0.4555
22330SOL    HW278969   2.368   7.286   0.352 -0.0591  1.0627 -0.6278
22331SOL     OW78970   6.414   8.988   6.535  0.0479  0.2880 -0.0439
22331SOL    HW178971   6.464   9.062   6.570 -0.5297  0.0088  1.4522
22331SOL    HW278972   6.434   8.988   6.442  0.4498  2.0257  0.0012
22332SOL     OW78973   6.396   5.899   1.677  0.1623 -0.0035  0.0494
22332SOL    HW178974   6.326   5.941   1.626 -0.1208  0.0793  0.5033
22332SOL    HW278975   6.370   5.808   1.684 -1.1497  0.4676  2.2568
22333SOL     OW78976   3.612   9.316   1.150 -0.3282 -0.6398  0.2567
22333SOL    HW178977   3.570   9.356   1.074 -1.0812  0.8205  1.3935
22333SOL    HW278978   3.566   9.234   1.162 -0.2644 -0.8443 -0.7917
22334SOL     OW78979   1.852   4.110   6.009 -0.2942  0.3370  0.1364
22334SOL    HW178980   1.912   4.110   5.934  0.7494 -1.5311  0.9177
22334SOL    HW278981   1.816   4.199   6.010 -0.2301  0.4915 -2.4576
22335SOL     OW78982   7.779   4.440   4.129 -0.6063  0.2328  0.3038
22335SOL    HW178983   7.701   4.459   4.077 -0.9624  0.6696  0.9874
22335SOL    HW278984   7.807   4.525   4.162  3.8084  1.3024 -4.8224
22336SOL     OW78985   8.066   1.790   2.028  1.4679  0.3699  0.4330
22336SOL    HW178986   8.115   1.758   2.104 -0.7389 -0.8057  1.4551
22336SOL    HW278987   8.097   1.736   1.955  0.5960 -1.4986  1.3765
22337SOL     OW78988   6.541   6.560   8.548 -0.0819  0.4526  0.3557
22337SOL    HW178989   6.555   6.648   8.583 -0.2626  1.2810 -1.5396
22337SOL    HW278990   6.461   6.529   8.590 -0.7786  1.7583  0.0323
22338SOL     OW78991   9.570   7.126   7.207 -0.4547  0.9917 -0.3492
22338SOL    HW178992   9.639   7.184   7.238  0.6023 -0.7381  0.7072
22338SOL    HW278993   9.589   7.113   7.114  0.6932  0.5091 -0.0624
22339SOL     OW78994   1.057   5.462   4.332  0.1324 -0.5585  0.0723
22339SOL    HW178995   1.137   5.430   4.291 -0.1683 -0.8323 -0.3121
22339SOL    HW278996   1.022   5.526   4.270 -0.0335 -0.5645  0.1598
22340SOL     OW78997   1.933   6.481   8.243  0.1179 -0.2238  0.0120
22340SOL    HW178998   1.848   6.495   8.284  0.7080  1.1601  0.8251
22340SOL    HW278999   1.913   6.468   8.150 -1.0130 -0.4842  0.2756
22341SOL     OW79000   0.112   9.804   0.133 -0.4430  0.4076  0.5779
22341SOL    HW179001   0.141   9.782   0.045 -2.3768 -1.8585  0.4195
22341SOL    HW279002   0.155   9.740   0.190 -1.5329 -0.0525  0.8953
22342SOL     OW79003   8.337   7.994   2.977 -0.2105  0.0221  0.0901
22342SOL    HW179004   8.349   7.959   2.889 -0.1603 -1.1743  0.5458
22342SOL    HW279005   8.422   8.033   2.999  0.0041 -0.3295 -0.1163
22343SOL     OW79006  10.179   9.562   8.742 -0.4952 -0.0942  0.1242
22343SOL    HW179007  10.107   9.547   8.803 -0.2345  0.6542  0.6242
22343SOL    HW279008  10.171   9.492   8.678 -1.3015 -0.3733  0.5222
22344SOL     OW79009   2.316   0.978   3.461  0.3285  0.6111 -0.5484
22344SOL    HW179010   2.249   1.036   3.425  0.8692  1.7898  0.2967
22344SOL    HW279011   2.338   1.016   3.546 -1.1746 -2.2797  1.2972
22345SOL     OW79012   9.093   4.227   3.304  0.3334  0.2629  0.2288
22345SOL    HW179013   9.090   4.161   3.374  0.9302  2.1339  2.1401
22345SOL    HW279014   9.185   4.230   3.279  0.1693 -0.1894 -0.4521
22346SOL     OW79015   0.499   1.041   8.726 -0.4144  0.1872 -0.4169
22346SOL    HW179016   0.419   1.002   8.760 -0.0234 -0.4698 -0.2192
22346SOL    HW279017   0.514   1.118   8.780  0.3653 -0.9990  1.1594
22347SOL     OW79018   6.937   4.994   6.603  0.5196  0.2010 -0.5840
22347SOL    HW179019   6.939   4.907   6.564  0.4104  0.9839 -2.4363
22347SOL    HW279020   6.886   4.984   6.683 -0.0964 -1.2885 -1.1341
22348SOL     OW79021   8.181   9.533   1.082  0.5803  0.3708  0.2558
22348SOL    HW179022   8.180   9.535   0.986 -0.9947 -2.6109  0.0844
22348SOL    HW279023   8.273   9.517   1.104  1.1241  2.0097 -0.6493
22349SOL     OW79024   9.359   4.226   5.624 -0.6641 -0.3571  0.2577
22349SOL    HW179025   9.302   4.238   5.699 -1.0120 -0.4056  0.0038
22349SOL    HW279026   9.435   4.179   5.659 -1.4487 -1.6371  0.3226
22350SOL     OW79027   5.824   3.267   7.121 -0.1984  0.0235  0.1004
22350SOL    HW179028   5.792   3.196   7.176 -1.5939  0.3247 -0.2910
22350SOL    HW279029   5.823   3.344   7.177  1.9571 -0.3478  0.7271
22351SOL     OW79030   6.867   0.674   1.359 -0.1603 -0.2122  0.2270
22351SOL    HW179031   6.828   0.715   1.281 -0.1548  1.3321  1.0038
22351SOL    HW279032   6.953   0.645   1.329 -0.2325  0.1882 -0.3978
22352SOL     OW79033   3.415   8.798   3.402  0.8195 -0.0212 -0.5846
22352SOL    HW179034   3.465   8.797   3.483  0.9328  0.4901 -0.6496
22352SOL    HW279035   3.347   8.731   3.415  0.6822  0.2379  0.0268
22353SOL     OW79036   7.502   6.267   3.229 -0.1768 -0.4382 -0.7092
22353SOL    HW179037   7.501   6.331   3.158 -0.3115 -2.3061 -2.4576
22353SOL    HW279038   7.422   6.286   3.278 -0.0898  0.8708 -1.0352
22354SOL     OW79039  10.087   8.466   5.095  0.3360  0.0901  0.2636
22354SOL    HW179040  10.086   8.506   5.008  0.4914  1.4322  0.8489
22354SOL    HW279041  10.178   8.472   5.123 -0.0183  1.3048  1.2251
22355SOL     OW79042   6.632   1.962   8.664  0.1596  0.1757 -0.0223
22355SOL    HW179043   6.585   2.006   8.735 -0.1986  1.6140 -1.0951
22355SOL    HW279044   6.563   1.930   8.606  0.4462 -1.0956  0.2996
22356SOL     OW79045   8.332   5.235   7.836 -0.2767 -0.0999 -0.0564
22356SOL    HW179046   8.282   5.160   7.804 -1.4871  1.2067 -1.3729
22356SOL    HW279047   8.416   5.230   7.791  0.2221 -1.4545  0.9843
22357SOL     OW79048   9.368   2.621   8.617 -0.2260 -0.3641  0.3748
22357SOL    HW179049   9.447   2.627   8.562 -0.4736  1.5677  0.1675
22357SOL    HW279050   9.352   2.527   8.624  0.6205 -0.7379 -1.7113
22358SOL     OW79051   3.446   4.402   2.679 -0.1767  0.0955  0.0977
22358SOL    HW179052   3.418   4.429   2.591  1.5811 -0.2650 -0.6180
22358SOL    HW279053   3.490   4.318   2.666 -0.2196 -0.1540  1.3941
22359SOL     OW79054   8.431   0.542   1.581  0.6574  0.4640 -0.2820
22359SOL    HW179055   8.350   0.527   1.533  0.7148  1.0017 -0.5534
22359SOL    HW279056   8.500   0.521   1.518  0.7342  1.3652 -0.5082
22360SOL     OW79057   4.205   5.345   8.725  0.4634  0.0463  0.4675
22360SOL    HW179058   4.221   5.386   8.640 -0.8528  0.5420  0.4409
22360SOL    HW279059   4.186   5.254   8.705 -1.3668  0.4890  0.0631
22361SOL     OW79060   5.882   2.342   2.658  0.3391 -0.7137 -0.3594
22361SOL    HW179061   5.950   2.367   2.721 -0.7205  0.2063  0.4795
22361SOL    HW279062   5.806   2.396   2.683 -0.8107 -1.9654 -1.0274
22362SOL     OW79063   1.182   1.771   6.323 -0.4407 -0.1168  0.1262
22362SOL    HW179064   1.243   1.703   6.352  0.0846  0.3869  0.2014
22362SOL    HW279065   1.210   1.792   6.234  1.6241  2.4586  1.2566
22363SOL     OW79066   4.659   9.895   3.339  0.0051 -0.5173 -0.2962
22363SOL    HW179067   4.712   9.830   3.294  0.7514  0.0598 -0.2624
22363SOL    HW279068   4.631   9.955   3.270  0.9596  0.2384 -0.0460
22364SOL     OW79069   7.492   1.369   2.245 -0.0814 -0.0760  0.4543
22364SOL    HW179070   7.537   1.292   2.210  1.1108  0.2561  1.1918
22364SOL    HW279071   7.447   1.407   2.170  0.9299 -0.4017 -0.3368
22365SOL     OW79072   0.537   4.404   3.236  0.0588 -0.4208  0.1749
22365SOL    HW179073   0.489   4.452   3.168  0.6625  2.0033  1.3207
22365SOL    HW279074   0.604   4.355   3.188 -0.0563  0.5481 -1.0380
22366SOL     OW79075   7.648   4.327   0.548 -0.1597  0.0016 -0.1861
22366SOL    HW179076   7.555   4.342   0.568 -0.5274 -1.3231 -0.7891
22366SOL    HW279077   7.672   4.400   0.492 -1.3248 -0.5174 -1.4198
22367SOL     OW79078   6.683   7.941   4.021  0.3966  0.0541  0.8435
22367SOL    HW179079   6.754   7.914   3.962  0.4929  0.2288  0.8774
22367SOL    HW279080   6.703   8.033   4.042  0.1205  0.1249  0.7967
22368SOL     OW79081   2.659   2.563   0.471 -0.0449  0.0279  0.1693
22368SOL    HW179082   2.621   2.636   0.423  0.0761 -0.7464 -1.1540
22368SOL    HW279083   2.605   2.488   0.448  0.4781 -0.5172  0.6603
22369SOL     OW79084   7.726  10.032   6.815 -0.1859  0.6851  0.2618
22369SOL    HW179085   7.651   9.973   6.811  0.4303 -0.0582 -0.9376
22369SOL    HW279086   7.700  10.107   6.762  0.2714 -0.0277 -1.0143
22370SOL     OW79087   9.962   9.536   9.845  0.5887  0.3277  0.0670
22370SOL    HW179088   9.974   9.456   9.794  1.3615  0.3641  0.1770
22370SOL    HW279089   9.967   9.607   9.781 -0.0327  0.3012 -0.0214
22371SOL     OW79090   7.998   0.220   1.198  0.3041  0.3926  0.0427
22371SOL    HW179091   7.930   0.255   1.142  0.7583  1.1921 -0.0233
22371SOL    HW279092   8.024   0.293   1.254  1.2675  0.1821 -0.1009
22372SOL     OW79093   2.315   7.425   3.168  0.4611 -0.6461  0.2787
22372SOL    HW179094   2.344   7.393   3.083  0.3971  1.3131 -0.5309
22372SOL    HW279095   2.345   7.359   3.230  1.4664 -1.5845 -1.1444
22373SOL     OW79096   3.874   1.162   5.804 -0.3056  0.1953 -0.1344
22373SOL    HW179097   3.902   1.092   5.745 -2.2561 -1.4534  0.7754
22373SOL    HW279098   3.778   1.163   5.795 -0.5768  0.5235  2.2882
22374SOL     OW79099   4.250   5.283   6.062 -0.3404 -0.2661  0.0111
22374SOL    HW179100   4.275   5.251   6.148  1.2863  0.3965 -0.1758
22374SOL    HW279101   4.168   5.239   6.043 -0.0252 -1.4815  1.3087
22375SOL     OW79102   7.447   3.362   8.936 -0.0654 -0.8378  0.2116
22375SOL    HW179103   7.357   3.382   8.962 -0.0616 -0.6208  0.0644
22375SOL    HW279104   7.447   3.268   8.918  0.0128 -1.0633  1.3191
22376SOL     OW79105  10.101   7.977   7.637 -0.1485  0.1881 -0.0507
22376SOL    HW179106  10.176   7.943   7.589 -0.3089 -0.7279  0.3440
22376SOL    HW279107  10.129   7.979   7.728 -1.4082 -2.5399  0.4763
22377SOL     OW79108   1.436   7.709   2.113  0.6914 -0.0482  0.3364
22377SOL    HW179109   1.507   7.730   2.051  1.0742  0.6600  0.9946
22377SOL    HW279110   1.373   7.780   2.101  0.9077  0.2508  0.9660
22378SOL     OW79111   7.332   2.067   9.407  0.4992  0.1544 -0.4565
22378SOL    HW179112   7.295   2.024   9.329  0.5564 -0.6571 -0.0466
22378SOL    HW279113   7.361   2.152   9.375  0.0316  0.0482 -1.2092
22379SOL     OW79114   7.279   5.322   6.600 -0.0306  0.2495 -0.6335
22379SOL    HW179115   7.232   5.255   6.650  0.4298  0.6643  0.3835
22379SOL    HW279116   7.357   5.340   6.652  0.0494  1.2903 -1.0922
22380SOL     OW79117   5.750   2.073   7.983  0.0759  0.1528  0.1783
22380SOL    HW179118   5.826   2.110   7.938 -0.6171  0.9412 -0.3638
22380SOL    HW279119   5.724   1.998   7.929 -1.1520  1.4809 -1.1556
22381SOL     OW79120   5.385   5.318   0.599 -0.1623  0.0127  0.2789
22381SOL    HW179121   5.369   5.412   0.606  1.8398  0.5126 -0.9785
22381SOL    HW279122   5.355   5.282   0.682 -0.1310  1.9099  1.1614
22382SOL     OW79123   1.367   9.624   0.039 -0.3681 -0.3059 -0.0608
22382SOL    HW179124   1.389   9.608  -0.052  0.5614  0.5885 -0.0025
22382SOL    HW279125   1.275   9.652   0.037 -0.3587 -0.3096 -0.7059
22383SOL     OW79126   8.256   4.832   5.756 -0.4523  0.2612  0.0781
22383SOL    HW179127   8.305   4.885   5.819 -0.9175  0.3656  0.3558
22383SOL    HW279128   8.287   4.863   5.671  0.2739  0.0305  0.2521
22384SOL     OW79129   3.142   7.876   8.041  0.1834 -0.5591  0.0216
22384SOL    HW179130   3.098   7.891   8.125  0.4208  0.0134  0.0475
22384SOL    HW279131   3.120   7.953   7.988  1.1437 -0.2600  0.0348
22385SOL     OW79132   2.395   4.279   8.331 -0.9591 -0.4409 -0.0150
22385SOL    HW179133   2.475   4.246   8.289 -0.4584  0.0627  0.5248
22385SOL    HW279134   2.423   4.303   8.420 -1.6473  0.0105  0.0849
22386SOL     OW79135   7.754   2.069   0.057  0.0002 -0.2694  0.0203
22386SOL    HW179136   7.761   1.985   0.103 -1.7549  0.2731  1.3939
22386SOL    HW279137   7.742   2.134   0.126  1.0046  1.1091 -1.0332
22387SOL     OW79138   4.543   0.209   3.796 -0.1113 -0.2274  0.0216
22387SOL    HW179139   4.471   0.200   3.858  0.4564  0.2029  0.7588
22387SOL    HW279140   4.505   0.184   3.712 -1.0834 -0.1469  0.4209
22388SOL     OW79141   2.504   3.127   7.101  0.1542 -0.0387  0.4524
22388SOL    HW179142   2.582   3.167   7.138  0.7948 -2.5113  2.0178
22388SOL    HW279143   2.531   3.098   7.014  1.2953 -1.5023  1.2360
22389SOL     OW79144   2.056   9.090   5.210  0.3802  0.3959 -0.1262
22389SOL    HW179145   1.986   9.143   5.247  1.1260  1.2396  0.1088
22389SOL    HW279146   2.075   9.025   5.278 -0.6620 -0.3130 -0.4898
22390SOL     OW79147   2.204   5.042   9.763 -0.3589  0.9727  0.6354
22390SOL    HW179148   2.126   5.051   9.709  0.5001  1.5600 -0.5570
22390SOL    HW279149   2.274   5.022   9.701  0.2011 -1.0875  1.8310
22391SOL     OW79150   3.086  10.024   1.561  0.5339  0.8177  0.1112
22391SOL    HW179151   3.114  10.098   1.615  1.0430  0.2827  0.5817
22391SOL    HW279152   3.128   9.948   1.600 -0.1852  0.2373 -0.2207
22392SOL     OW79153   7.313   8.968   5.133 -0.2360 -0.4232  0.2625
22392SOL    HW179154   7.337   9.004   5.218 -1.1972 -2.1720  1.3484
22392SOL    HW279155   7.389   8.984   5.077  0.2995  1.0338  1.3350
22393SOL     OW79156   1.025   3.294   4.239 -0.2722 -0.1804  0.0881
22393SOL    HW179157   1.049   3.278   4.147 -0.4630  0.3983 -0.0666
22393SOL    HW279158   0.933   3.267   4.244 -0.1797 -0.4792  0.1793
22394SOL     OW79159   7.102   3.947   8.642 -0.2227 -0.2969 -0.4108
22394SOL    HW179160   7.078   3.998   8.565 -0.4403  0.7617  0.3345
22394SOL    HW279161   7.028   3.887   8.655 -0.5666  0.0908 -0.5427
22395SOL     OW79162   3.364   6.694   8.088 -0.0506  0.0311  0.4118
22395SOL    HW179163   3.417   6.769   8.113  1.0804 -0.9658  1.1455
22395SOL    HW279164   3.283   6.704   8.137 -0.2118  1.1200 -0.0471
22396SOL     OW79165   2.884   5.583   5.453 -0.3402 -0.1233 -0.1615
22396SOL    HW179166   2.830   5.506   5.434  1.0414 -1.2822  0.3842
22396SOL    HW279167   2.878   5.592   5.549  0.7076 -0.5188 -0.0434
22397SOL     OW79168   4.978   8.544   5.145  0.2498  0.2047  0.5027
22397SOL    HW179169   4.963   8.452   5.164 -1.8794  0.2468 -0.6721
22397SOL    HW279170   4.891   8.583   5.142  1.0492  2.1044  0.1849
22398SOL     OW79171   0.227   6.058   4.851 -0.0457  0.3081 -0.2912
22398SOL    HW179172   0.269   5.982   4.810  1.8908  0.7772  0.6954
22398SOL    HW279173   0.269   6.065   4.936 -1.8570  1.1360  0.5892
22399SOL     OW79174   0.725   1.780   4.055 -0.0239  0.3199  0.0629
22399SOL    HW179175   0.779   1.830   4.117 -0.6063  0.2379  0.6494
22399SOL    HW279176   0.637   1.815   4.067 -0.1851  0.1269 -0.5498
22400SOL     OW79177   2.394   2.646   5.857 -0.0605  0.1977 -0.2029
22400SOL    HW179178   2.414   2.644   5.764 -1.3102  0.1969 -0.4875
22400SOL    HW279179   2.419   2.734   5.885 -1.8222  1.0095 -1.0664
22401SOL     OW79180   3.744   1.362   2.919  0.2745 -0.4369 -0.1669
22401SOL    HW179181   3.737   1.456   2.931 -0.1069 -0.4038 -0.6433
22401SOL    HW279182   3.684   1.325   2.985 -0.1655 -0.3224 -0.5023
22402SOL     OW79183   0.270   2.465   5.578  0.7827 -0.1150  0.5575
22402SOL    HW179184   0.183   2.425   5.580  0.3414  0.6131  4.6826
22402SOL    HW279185   0.328   2.393   5.556 -0.6430 -1.2788  0.3967
22403SOL     OW79186  10.006   1.796   1.695  0.1898  0.8618 -0.5171
22403SOL    HW179187  10.100   1.788   1.712 -0.2267  2.0962  3.1960
22403SOL    HW279188   9.989   1.890   1.700 -1.2671  0.6477 -1.1566
22404SOL     OW79189   2.235   3.977   7.379 -0.4106 -0.2354 -0.0783
22404SOL    HW179190   2.329   3.998   7.378 -0.6293  0.8138  0.2623
22404SOL    HW279191   2.210   3.983   7.471 -0.6764 -1.2164 -0.0755
22405SOL     OW79192   6.171   7.731   2.761  0.2603 -0.4284 -0.0285
22405SOL    HW179193   6.154   7.660   2.823  1.1370 -0.9735 -0.3992
22405SOL    HW279194   6.109   7.799   2.785  0.6752 -0.5737  1.5459
22406SOL     OW79195   1.907   4.170   6.590  0.3301 -0.6268 -0.2061
22406SOL    HW179196   1.850   4.247   6.593  0.6510 -0.3779 -0.4023
22406SOL    HW279197   1.955   4.173   6.673  0.1348 -0.7739 -0.0892
22407SOL     OW79198   8.783   4.020   2.020 -0.8032  0.2070 -0.0252
22407SOL    HW179199   8.836   4.001   1.942 -0.3455 -0.6604  0.4786
22407SOL    HW279200   8.846   4.049   2.085 -0.6807 -2.1823  1.0347
22408SOL     OW79201   4.978   0.816   7.532 -0.1858 -0.8650  0.3077
22408SOL    HW179202   4.999   0.807   7.625 -1.0891  1.4265  0.7878
22408SOL    HW279203   4.891   0.776   7.524 -0.3510 -0.5683  0.5796
22409SOL     OW79204   2.689  10.203   5.137 -0.0023 -0.0550 -0.3175
22409SOL    HW179205   2.614  10.144   5.136  0.3998 -0.6032  0.3624
22409SOL    HW279206   2.762  10.150   5.106  0.2321  0.2932 -0.3744
22410SOL     OW79207   6.915   0.351   6.779 -0.3820 -0.0346  0.2268
22410SOL    HW179208   6.979   0.282   6.765  1.4679  1.0425  2.6232
22410SOL    HW279209   6.831   0.310   6.760  0.7301 -2.5556  0.3383
22411SOL     OW79210   1.254   4.239   4.862 -0.4203  0.3070 -0.3322
22411SOL    HW179211   1.256   4.192   4.945 -1.1996 -0.8194 -0.9220
22411SOL    HW279212   1.329   4.206   4.813 -1.4669 -1.0487 -1.0946
22412SOL     OW79213   7.520   1.312   9.953 -0.2887  0.3640 -0.1151
22412SOL    HW179214   7.590   1.376   9.970 -0.3795  0.7970 -1.2699
22412SOL    HW279215   7.447   1.342  10.008  0.0246  0.6255  0.1676
22413SOL     OW79216   3.332   1.556   8.853 -0.1848 -0.0777 -0.5301
22413SOL    HW179217   3.240   1.561   8.878  0.4002  2.4164  1.5903
22413SOL    HW279218   3.333   1.576   8.759 -1.8446 -1.3028 -0.8484
22414SOL     OW79219   5.965   9.207   7.042 -0.3788  0.2444 -0.2540
22414SOL    HW179220   6.053   9.239   7.020 -0.4517  0.6640  0.0616
22414SOL    HW279221   5.961   9.121   7.001  0.5048 -0.1495  0.4400
22415SOL     OW79222   1.387   3.301   7.443 -0.4937 -0.5333  0.3291
22415SOL    HW179223   1.428   3.361   7.506 -2.3383 -1.8146  2.9018
22415SOL    HW279224   1.358   3.227   7.495 -0.1830 -2.7697 -2.4318
22416SOL     OW79225   0.960   1.940   7.608 -0.8529  0.4391 -0.0046
22416SOL    HW179226   1.006   1.965   7.688 -1.5970  2.1073 -0.0558
22416SOL    HW279227   0.885   1.889   7.638  0.0780 -0.8656  0.1834
22417SOL     OW79228   9.767   4.576   9.011  0.1583  0.2941 -0.4196
22417SOL    HW179229   9.841   4.546   9.064  0.7419  0.4368 -1.1381
22417SOL    HW279230   9.761   4.511   8.941 -0.5505  0.1595 -0.2504
22418SOL     OW79231   0.068   5.193   8.442  0.0933  0.4394  0.2451
22418SOL    HW179232   0.069   5.286   8.464 -1.5864  0.3133  1.0645
22418SOL    HW279233  -0.017   5.180   8.398 -0.0070 -0.8258  0.7766
22419SOL     OW79234   1.634   1.302   6.908 -0.7275 -0.2312 -0.0476
22419SOL    HW179235   1.560   1.275   6.853 -0.8284  0.0121 -0.0312
22419SOL    HW279236   1.688   1.223   6.914 -0.1993  0.0064 -1.3216
22420SOL     OW79237   5.949   0.284   4.557  0.6658 -0.4049 -0.0048
22420SOL    HW179238   5.862   0.322   4.560  0.8721 -0.0001  1.7534
22420SOL    HW279239   6.008   0.359   4.552  0.9536 -0.6648 -0.7056
22421SOL     OW79240   9.656   6.816   5.582  0.3353  0.3972 -0.3534
22421SOL    HW179241   9.607   6.798   5.502  1.3733  1.4265 -1.2638
22421SOL    HW279242   9.631   6.746   5.642 -1.5645  0.4075 -1.0633
22422SOL     OW79243   3.817   6.138   5.806 -0.1613  0.5706  0.3186
22422SOL    HW179244   3.805   6.095   5.890 -1.3524  0.4305  0.0838
22422SOL    HW279245   3.769   6.221   5.814  0.3349  0.8949  0.0243
22423SOL     OW79246   2.980   0.073   8.603 -0.1132  0.6900 -0.5710
22423SOL    HW179247   2.973   0.136   8.675  0.0771 -0.7513  0.7526
22423SOL    HW279248   2.921   0.001   8.628 -0.9198  0.6676 -2.4273
22424SOL     OW79249   1.928   8.018   2.236 -0.2961 -0.2205 -0.6942
22424SOL    HW179250   1.990   8.077   2.192 -0.7080  0.1674 -0.7720
22424SOL    HW279251   1.842   8.051   2.209 -0.5824  0.4807  0.9670
22425SOL     OW79252   6.193   0.840   2.213  0.1309 -0.1715  0.0747
22425SOL    HW179253   6.288   0.845   2.208  0.2485 -1.0940  0.9695
22425SOL    HW279254   6.176   0.817   2.305 -1.0101  1.1148  0.2179
22426SOL     OW79255   8.493   5.895   1.225  0.0829  0.1354  0.1251
22426SOL    HW179256   8.586   5.918   1.216 -0.0374  1.2672  1.4047
22426SOL    HW279257   8.472   5.914   1.317 -1.4961  0.2039 -0.2189
22427SOL     OW79258   7.937   2.482   4.480 -0.6896 -0.0110 -0.3870
22427SOL    HW179259   7.981   2.459   4.561  0.3884 -0.9912 -1.2077
22427SOL    HW279260   7.844   2.466   4.498 -0.6135  0.9815  1.0129
22428SOL     OW79261   3.709   8.075   8.834 -0.1866  0.0192 -0.3569
22428SOL    HW179262   3.696   8.045   8.744  1.4735 -0.2522 -0.5315
22428SOL    HW279263   3.784   8.134   8.829  1.5119 -1.8520  1.1779
22429SOL     OW79264   1.719   6.697   3.350 -0.5070 -0.3399  0.1702
22429SOL    HW179265   1.636   6.650   3.355 -0.2859 -0.7468  0.0457
22429SOL    HW279266   1.784   6.634   3.384 -0.5552  0.7444  2.4790
22430SOL     OW79267   1.116   3.285   3.146  0.0982  0.0632 -0.0953
22430SOL    HW179268   1.084   3.245   3.065 -1.2369  0.5414  0.1772
22430SOL    HW279269   1.136   3.376   3.122 -2.9171  1.0182  0.6615
22431SOL     OW79270   9.223   9.376   6.930 -0.3822  0.2377 -0.0043
22431SOL    HW179271   9.306   9.364   6.884 -0.7855 -2.0082 -0.2499
22431SOL    HW279272   9.186   9.456   6.891  1.7547  1.4720  0.3492
22432SOL     OW79273  10.386   3.356   7.938  0.4175  0.3837 -0.1162
22432SOL    HW179274  10.432   3.288   7.986 -0.4282 -0.1636 -0.0568
22432SOL    HW279275  10.365   3.423   8.003 -0.6064 -0.2924  0.2806
22433SOL     OW79276   9.806   7.949   6.691 -0.8087 -0.0786 -0.0159
22433SOL    HW179277   9.827   7.856   6.681  0.8104  0.1745  0.6323
22433SOL    HW279278   9.810   7.983   6.601  0.6872 -0.2602 -0.0442
22434SOL     OW79279   9.384   7.530   6.604  0.0773 -0.0263 -0.1384
22434SOL    HW179280   9.428   7.543   6.520 -0.5882 -2.1925 -0.8762
22434SOL    HW279281   9.409   7.442   6.631  0.0747  0.5294  1.8602
22435SOL     OW79282   7.482   5.925   4.504  0.0977  0.1716  0.2364
22435SOL    HW179283   7.544   5.997   4.515 -0.9595  1.0148  0.8995
22435SOL    HW279284   7.471   5.889   4.593 -1.0227  0.6264  0.3023
22436SOL     OW79285   5.649   6.740   2.881 -0.3988  0.5424 -0.0322
22436SOL    HW179286   5.574   6.752   2.824 -0.2614  1.4304 -0.0369
22436SOL    HW279287   5.613   6.700   2.960 -0.6049 -0.6014 -0.6834
22437SOL     OW79288   0.704   2.879   9.544 -0.2990  0.2359 -0.1004
22437SOL    HW179289   0.707   2.837   9.630 -3.0279  1.0299  0.4987
22437SOL    HW279290   0.699   2.807   9.482  2.5546 -0.3708  0.2751
22438SOL     OW79291   0.298   8.418   6.288 -0.0299  0.3055  0.0401
22438SOL    HW179292   0.247   8.465   6.354 -0.6817  0.7976 -0.8006
22438SOL    HW279293   0.366   8.372   6.338 -0.5812  0.5813  1.0571
22439SOL     OW79294   2.050   8.380   4.071  0.1869  0.2642  0.2844
22439SOL    HW179295   2.100   8.401   4.150 -0.6470  0.4890  0.7584
22439SOL    HW279296   1.980   8.445   4.069 -0.5485 -0.5264  0.0396
22440SOL     OW79297   3.943   6.085   7.902  0.2876 -0.7853  0.1638
22440SOL    HW179298   4.024   6.131   7.922  0.0569 -0.0983 -0.4684
22440SOL    HW279299   3.880   6.154   7.879 -0.3069 -1.3484  0.0548
22441SOL     OW79300   5.998   8.035   6.666  0.3667 -1.0356 -0.7874
22441SOL    HW179301   5.944   7.959   6.689  0.4420 -1.1044 -0.8345
22441SOL    HW279302   5.983   8.097   6.737 -0.7501 -0.5464 -1.4282
22442SOL     OW79303   9.938   5.885   6.597  0.6108 -0.0487  0.8881
22442SOL    HW179304   9.941   5.837   6.514  1.9452 -0.0589  0.9201
22442SOL    HW279305   9.851   5.867   6.632  0.5142 -1.1492  0.1394
22443SOL     OW79306   2.412   0.399   6.438  0.2644 -0.3336  0.0002
22443SOL    HW179307   2.468   0.333   6.397  1.0765  0.7208 -0.6543
22443SOL    HW279308   2.347   0.420   6.371  0.0915 -0.3642  0.1574
22444SOL     OW79309   9.751   0.927   2.080 -0.2486  0.4550  0.4981
22444SOL    HW179310   9.782   0.969   2.160 -2.6104  1.5733  0.9136
22444SOL    HW279311   9.817   0.949   2.015  2.3191 -1.4266  2.2976
22445SOL     OW79312   1.378   9.879   8.171 -0.1859 -0.1124 -0.0755
22445SOL    HW179313   1.414   9.791   8.166 -1.9880 -0.9552  0.9656
22445SOL    HW279314   1.364   9.905   8.080  2.2553 -0.0095 -0.5013
22446SOL     OW79315   4.944  10.327   1.119 -0.0116  0.7172 -0.1212
22446SOL    HW179316   4.962  10.249   1.172  1.4586  1.1301  0.0131
22446SOL    HW279317   4.905  10.292   1.039  0.5608 -0.1500 -0.0362
22447SOL     OW79318   3.788   8.516   4.663 -0.1526  0.0030 -0.4314
22447SOL    HW179319   3.873   8.553   4.687 -0.5069 -0.6613  2.0864
22447SOL    HW279320   3.724   8.567   4.712 -1.2489  0.2648 -2.0276
22448SOL     OW79321   2.157   7.187   5.859 -0.7020  0.1568 -0.2562
22448SOL    HW179322   2.078   7.176   5.805 -1.6164 -0.2474  1.0965
22448SOL    HW279323   2.229   7.185   5.797 -1.7327  0.1385 -1.5052
22449SOL     OW79324   4.512   1.164   0.816 -0.6085 -0.2941  0.1404
22449SOL    HW179325   4.529   1.076   0.850 -0.1262 -0.2115  0.1193
22449SOL    HW279326   4.452   1.150   0.742 -0.1931 -0.6463 -0.1333
22450SOL     OW79327   6.776   6.407   7.765 -0.0145  0.0905  0.0227
22450SOL    HW179328   6.810   6.454   7.689  0.1970  0.7999  0.5436
22450SOL    HW279329   6.706   6.464   7.799 -0.1910 -0.2797  0.2853
22451SOL     OW79330   9.405   0.009   5.263 -0.1452 -0.2515  0.2246
22451SOL    HW179331   9.433   0.027   5.353  1.2377  1.6851 -0.5174
22451SOL    HW279332   9.320   0.054   5.255  0.1672  0.3741  0.3196
22452SOL     OW79333   4.448  10.355   4.814 -0.2276  0.1375 -0.1821
22452SOL    HW179334   4.440  10.360   4.909 -1.4637  0.5094 -0.2878
22452SOL    HW279335   4.501  10.277   4.799 -2.1069 -1.4033  0.7547
22453SOL     OW79336   9.788   4.421   3.909  0.2215 -0.5493  0.1533
22453SOL    HW179337   9.795   4.493   3.972 -0.2535  0.7909 -1.2532
22453SOL    HW279338   9.821   4.458   3.827 -0.5370 -1.7721 -0.7315
22454SOL     OW79339   0.372   2.610   4.520 -0.0455  0.0129 -0.1326
22454SOL    HW179340   0.370   2.647   4.432 -1.7976 -0.9718 -0.5548
22454SOL    HW279341   0.336   2.522   4.510 -0.8743  0.0936  1.6374
22455SOL     OW79342   3.830   4.590   6.218 -0.2779 -0.0886 -0.2157
22455SOL    HW179343   3.770   4.663   6.231  0.2183  0.2712  0.0976
22455SOL    HW279344   3.909   4.615   6.266  0.1482 -0.5239 -0.6807
22456SOL     OW79345   3.632   3.674   5.796  0.4560  0.1652  0.3953
22456SOL    HW179346   3.640   3.711   5.884 -0.1994  2.6314 -0.4884
22456SOL    HW279347   3.553   3.621   5.799 -0.6449  1.7636  0.8558
22457SOL     OW79348   8.947   7.308   0.163  0.2961 -0.3009 -0.4248
22457SOL    HW179349   8.863   7.278   0.129 -0.7167  1.6310  0.2388
22457SOL    HW279350   8.928   7.339   0.251  1.4132  1.3609 -0.7080
22458SOL     OW79351   9.546   6.158   5.649 -0.0537 -0.0738  1.2574
22458SOL    HW179352   9.456   6.184   5.630  0.8410  2.5006  0.2011
22458SOL    HW279353   9.551   6.157   5.745 -1.0049  0.5358  1.3272
22459SOL     OW79354   2.876   2.931   1.880  0.9484 -0.1169  0.3742
22459SOL    HW179355   2.969   2.950   1.876  0.3976  2.8870 -0.7158
22459SOL    HW279356   2.860   2.904   1.970  2.7379  0.0218  0.7607
22460SOL     OW79357   7.262   5.888   5.419 -0.3650 -0.0344  0.5303
22460SOL    HW179358   7.312   5.952   5.469 -0.0471  0.0158  0.1545
22460SOL    HW279359   7.171   5.903   5.446 -0.4391  1.3372 -0.3547
22461SOL     OW79360   5.306   7.169   4.844  0.2403 -0.3031  0.5098
22461SOL    HW179361   5.232   7.143   4.789  0.2706  0.3456  0.1477
22461SOL    HW279362   5.382   7.132   4.800  0.1230 -1.1137  0.9743
22462SOL     OW79363   7.921   7.228   3.811  0.4701 -0.3137  0.0489
22462SOL    HW179364   7.988   7.244   3.745 -1.1399  1.9977 -1.1598
22462SOL    HW279365   7.939   7.293   3.879  1.1198 -1.5922  1.1503
22463SOL     OW79366   7.793   2.146   4.299  0.0988 -0.2273  0.0694
22463SOL    HW179367   7.728   2.127   4.366  0.2378 -0.1503  0.2244
22463SOL    HW279368   7.754   2.217   4.247 -0.1356 -0.4852 -0.1136
22464SOL     OW79369   8.840   9.667   7.650  0.1328 -0.0540 -0.6146
22464SOL    HW179370   8.912   9.604   7.659  0.1488  0.2060  1.8189
22464SOL    HW279371   8.880   9.752   7.669 -0.4785  0.3186 -0.9669
22465SOL     OW79372   9.064   7.228   1.887  0.1624 -0.2817  0.3272
22465SOL    HW179373   9.009   7.151   1.873  0.6116 -1.4389  3.8686
22465SOL    HW279374   9.004   7.302   1.880 -1.2545 -1.3001  1.1911
22466SOL     OW79375   5.431   6.396   8.564  0.0950  0.2141 -0.0579
22466SOL    HW179376   5.427   6.364   8.655  0.1744  0.6989  0.1209
22466SOL    HW279377   5.518   6.371   8.534  0.3077  0.6168  0.2166
22467SOL     OW79378   6.567   1.629   6.064 -0.4984 -0.0745 -0.2285
22467SOL    HW179379   6.613   1.712   6.071  0.7492 -0.5810 -1.9088
22467SOL    HW279380   6.474   1.652   6.068 -0.1715  1.1162  1.6899
22468SOL     OW79381   7.660   6.592   6.834 -0.0246  0.3697  0.2900
22468SOL    HW179382   7.744   6.578   6.878 -1.2999 -0.5003  2.6626
22468SOL    HW279383   7.652   6.687   6.828  0.6027  0.4991  1.1865
22469SOL     OW79384   7.856   2.900   5.174  0.0813 -0.3939  0.2121
22469SOL    HW179385   7.930   2.957   5.151 -0.4859  0.2877  0.0494
22469SOL    HW279386   7.863   2.827   5.113 -0.1422  0.3279 -0.7061
22470SOL     OW79387   4.060   0.992   2.692 -0.2527  0.3934 -0.1087
22470SOL    HW179388   4.027   0.903   2.699  0.3759  0.1750  0.2247
22470SOL    HW279389   4.108   0.993   2.609 -0.8995  0.6460 -0.4849
22471SOL     OW79390   7.994   3.777   9.448 -0.1658  0.3748  0.1266
22471SOL    HW179391   7.930   3.828   9.497 -2.0969 -1.1993 -0.6324
22471SOL    HW279392   8.011   3.701   9.503 -1.1297 -0.6051 -0.8845
22472SOL     OW79393   6.001   0.626   9.294  0.5190  0.3481 -0.0768
22472SOL    HW179394   6.036   0.697   9.349 -1.0504  0.5332  0.7311
22472SOL    HW279395   6.056   0.628   9.216  1.7002  1.2365  0.7273
22473SOL     OW79396  10.088   0.588   3.385  0.1676  0.5098 -0.3246
22473SOL    HW179397  10.068   0.522   3.452  1.4847  1.3121  0.9204
22473SOL    HW279398  10.149   0.544   3.326  0.3838  0.3478  0.0156
22474SOL     OW79399   2.945   3.754   7.416  0.0120  0.5118 -0.0364
22474SOL    HW179400   2.949   3.715   7.329 -1.4886 -1.2969  0.6677
22474SOL    HW279401   3.021   3.718   7.462  0.9085  1.6066 -0.6002
22475SOL     OW79402   8.032   6.552   4.455 -0.0112 -0.8549  0.1545
22475SOL    HW179403   8.103   6.488   4.454 -0.2167 -1.1077  0.8899
22475SOL    HW279404   8.058   6.616   4.521  0.3425  0.0012 -0.8049
22476SOL     OW79405   3.090   1.265   9.510  0.1529 -0.3616  0.2994
22476SOL    HW179406   3.164   1.325   9.505  0.7113 -1.0793 -0.2928
22476SOL    HW279407   3.065   1.265   9.602 -1.2369  2.3895  0.0268
22477SOL     OW79408   5.533   2.286  10.297  0.0521  0.8677 -0.2616
22477SOL    HW179409   5.571   2.269  10.211  1.5591  0.2203  0.4720
22477SOL    HW279410   5.609   2.298  10.354 -0.7187 -2.0329  1.6263
22478SOL     OW79411   0.958   0.430   5.576 -0.0904 -0.0586  0.2363
22478SOL    HW179412   0.997   0.507   5.535 -2.3531  0.8453 -0.3796
22478SOL    HW279413   0.968   0.360   5.512 -1.0175  0.6138 -0.6647
22479SOL     OW79414   7.780   9.321   0.087  0.0451 -0.2598 -0.0040
22479SOL    HW179415   7.822   9.245   0.047  0.9556  0.0896  0.2593
22479SOL    HW279416   7.780   9.302   0.181  0.7546  0.2854  0.1133
22480SOL     OW79417   5.584   5.927   6.181  0.4297  0.5080 -0.5590
22480SOL    HW179418   5.644   5.855   6.164  0.8648  1.1542 -1.8751
22480SOL    HW279419   5.638   6.005   6.177 -0.5230  1.1234 -2.0054
22481SOL     OW79420   0.142   2.078   6.905  0.0194 -0.0445 -0.1811
22481SOL    HW179421   0.073   2.046   6.847 -0.5515  1.6648 -0.4879
22481SOL    HW279422   0.182   2.150   6.857  0.2334  0.7197  1.1054
22482SOL     OW79423   9.039   1.940   3.604 -0.5482 -0.5481 -0.3795
22482SOL    HW179424   9.022   1.907   3.692 -0.6114 -0.0858 -0.2199
22482SOL    HW279425   9.058   1.861   3.553 -2.5418 -1.0520 -0.4369
22483SOL     OW79426   0.522   1.755   6.006  0.2259  0.3791  0.1190
22483SOL    HW179427   0.544   1.662   6.002  0.8583  0.4828  0.8778
22483SOL    HW279428   0.522   1.776   6.099  2.9796  1.7732 -0.0851
22484SOL     OW79429   2.460   2.796   5.033  0.2559 -0.0451  0.1520
22484SOL    HW179430   2.418   2.756   5.110 -2.7079 -0.4694 -1.5402
22484SOL    HW279431   2.549   2.760   5.034 -0.2044 -1.3534  2.4467
22485SOL     OW79432   2.430   3.655   5.609 -0.2646 -0.1428  0.5348
22485SOL    HW179433   2.492   3.727   5.618  0.3641 -0.7606  1.3291
22485SOL    HW279434   2.373   3.681   5.537  1.1870  0.2346 -0.5175
22486SOL     OW79435   4.867   7.393   2.130  0.4790  0.3531  0.8219
22486SOL    HW179436   4.847   7.486   2.120  0.1660  0.0811 -1.8743
22486SOL    HW279437   4.809   7.363   2.200 -2.3157  1.4240 -0.8461
22487SOL     OW79438   4.323   1.262   6.961 -0.0569  0.0753 -0.5091
22487SOL    HW179439   4.238   1.262   7.005 -0.4656  0.4479 -1.2750
22487SOL    HW279440   4.367   1.340   6.995 -0.3276  0.3017 -0.6693
22488SOL     OW79441   7.461   0.732   1.791 -0.7978 -0.0117 -0.4090
22488SOL    HW179442   7.426   0.808   1.745  2.3131  1.6262 -0.3741
22488SOL    HW279443   7.423   0.738   1.879 -2.4538  0.0420 -1.0865
22489SOL     OW79444   0.217   4.427   5.294 -0.6199  0.0590  0.0264
22489SOL    HW179445   0.143   4.383   5.335 -1.3356  0.5592 -0.7099
22489SOL    HW279446   0.194   4.520   5.295  1.2458  0.5994  2.3418
22490SOL     OW79447   5.474   7.526   1.784 -0.1657 -0.1640  0.6200
22490SOL    HW179448   5.479   7.605   1.730  0.4153 -0.9221 -0.4753
22490SOL    HW279449   5.502   7.555   1.871 -1.3467  1.1286  0.6042
22491SOL     OW79450   4.326   6.547   8.758  0.3060 -0.0765  0.1693
22491SOL    HW179451   4.265   6.599   8.706  1.0633  0.2603 -0.3883
22491SOL    HW279452   4.307   6.456   8.734  0.1061  0.0337 -0.0896
22492SOL     OW79453   3.297   0.686   7.957 -0.1849 -0.4514 -0.0889
22492SOL    HW179454   3.243   0.610   7.978 -0.9008 -0.3033 -1.2822
22492SOL    HW279455   3.385   0.650   7.942  0.0695 -0.7072  1.7384
22493SOL     OW79456   8.284   7.282   4.123 -0.2374 -0.1664  0.1650
22493SOL    HW179457   8.257   7.191   4.127 -0.4418 -0.0771  0.9811
22493SOL    HW279458   8.206   7.332   4.149 -0.0800  0.2303 -0.1078
22494SOL     OW79459   4.641   8.385   0.746  0.1412 -0.1200  0.0300
22494SOL    HW179460   4.675   8.461   0.793  0.1534 -1.0320  1.5606
22494SOL    HW279461   4.624   8.320   0.814 -0.3335 -1.3224 -1.1854
22495SOL     OW79462   3.590   5.510   8.207  0.4484  0.2494  0.0602
22495SOL    HW179463   3.509   5.534   8.162  1.7585  0.5819 -2.3341
22495SOL    HW279464   3.567   5.506   8.299 -2.2535  0.4144 -0.5323
22496SOL     OW79465   7.259   6.105   8.964  0.3507 -0.7839 -0.1353
22496SOL    HW179466   7.291   6.134   8.878  1.9701  3.4817  1.6230
22496SOL    HW279467   7.165   6.096   8.953  0.2574  1.5523 -1.9875
22497SOL     OW79468   9.146   8.416   6.384 -0.0766  0.1666  0.5016
22497SOL    HW179469   9.138   8.441   6.292  1.1764 -0.8759  0.0856
22497SOL    HW279470   9.220   8.468   6.416 -0.7862  0.8572  1.0621
22498SOL     OW79471   9.980  10.210   3.574  0.1801  0.4104  0.6730
22498SOL    HW179472  10.014  10.256   3.497  2.5294 -0.1989  1.2818
22498SOL    HW279473   9.894  10.249   3.588 -0.1837  0.8132 -2.0068
22499SOL     OW79474  10.164   1.425   9.303 -0.1362  0.0209 -0.0363
22499SOL    HW179475  10.154   1.393   9.213 -0.4366 -0.9946  0.3469
22499SOL    HW279476  10.090   1.484   9.316 -0.8072 -0.7982 -0.0555
22500SOL     OW79477   8.363   8.873   0.515 -0.3629 -0.2362 -0.5978
22500SOL    HW179478   8.395   8.815   0.446 -2.4269 -0.0725 -1.7749
22500SOL    HW279479   8.301   8.931   0.471  0.9029  2.2884  0.7103
22501SOL     OW79480   7.292   8.997   3.053 -0.3245 -0.2364 -0.1783
22501SOL    HW179481   7.270   8.969   3.141  0.1854  1.5649  0.5694
22501SOL    HW279482   7.211   9.033   3.017 -0.5463 -1.0225 -0.4886
22502SOL     OW79483   2.119  10.372   2.099  0.2402 -0.0592 -0.3611
22502SOL    HW179484   2.189  10.391   2.162  0.0323  0.5532 -0.3035
22502SOL    HW279485   2.080  10.291   2.130 -1.4241  1.4185  1.7461
22503SOL     OW79486   2.935   2.006   7.246 -0.0577 -0.3078  0.1452
22503SOL    HW179487   2.925   1.951   7.324 -0.4180  0.4413  0.6411
22503SOL    HW279488   2.928   2.096   7.279  1.1405  0.0570 -0.5592
22504SOL     OW79489   9.807   6.304   1.365  0.5050  0.5070  0.4340
22504SOL    HW179490   9.723   6.266   1.389  0.0141  1.6870  0.6059
22504SOL    HW279491   9.794   6.398   1.368  2.1917  0.7540  1.7562
22505SOL     OW79492  10.168   9.674   6.070  0.3142  0.2218  0.3247
22505SOL    HW179493  10.083   9.710   6.043  0.3776  0.5661  0.5823
22505SOL    HW279494  10.228   9.748   6.066  0.5433  0.0417  0.4170
22506SOL     OW79495   1.081   4.627   6.013 -0.2243  0.1054  0.3707
22506SOL    HW179496   1.107   4.588   6.097 -3.0535  0.4777  1.5477
22506SOL    HW279497   0.992   4.593   5.998 -0.0963  0.6833 -2.1066
22507SOL     OW79498   8.089   7.771   9.788 -0.4039 -0.4839 -0.2168
22507SOL    HW179499   8.150   7.815   9.847  0.0089 -2.0096  0.5435
22507SOL    HW279500   8.003   7.792   9.823 -0.2254 -0.0822 -0.0128
22508SOL     OW79501   0.507   3.100   3.711 -0.7463  0.1824  0.5266
22508SOL    HW179502   0.438   3.143   3.763 -1.6324 -1.0290  0.3979
22508SOL    HW279503   0.559   3.052   3.776 -1.2561 -0.5285  0.4235
22509SOL     OW79504   9.238   9.260   8.740 -0.3481 -1.1093 -0.2155
22509SOL    HW179505   9.283   9.190   8.788 -0.7241 -0.9087  0.4450
22509SOL    HW279506   9.175   9.295   8.803 -0.1612 -0.1718 -0.5352
22510SOL     OW79507   0.409   0.016   7.607  0.0187  0.6805 -0.7203
22510SOL    HW179508   0.504   0.014   7.606  0.0233 -0.5828  0.1416
22510SOL    HW279509   0.383  -0.061   7.556 -0.5267  0.6776 -0.4464
22511SOL     OW79510   4.115   2.967   3.179  0.1736 -0.2008  0.0638
22511SOL    HW179511   4.020   2.973   3.183  0.0795  0.5153 -2.0013
22511SOL    HW279512   4.146   3.030   3.244 -0.7474 -0.7000  1.0038
22512SOL     OW79513   0.263   9.359   3.401  0.5295 -0.2960  0.1561
22512SOL    HW179514   0.353   9.393   3.402  0.1327  0.8255 -0.4730
22512SOL    HW279515   0.262   9.298   3.327  0.5721  0.2709 -0.3162
22513SOL     OW79516   6.847   2.110   9.303 -0.6551  0.0002  0.2286
22513SOL    HW179517   6.769   2.068   9.338 -1.0875  1.2332  0.7947
22513SOL    HW279518   6.874   2.171   9.372 -0.4149  1.1047 -0.8190
22514SOL     OW79519   5.362   0.505   8.650 -0.1394  0.6073  0.2828
22514SOL    HW179520   5.387   0.598   8.642  0.3323  0.4092 -0.6863
22514SOL    HW279521   5.271   0.503   8.621 -0.7054  1.0095  1.8958
22515SOL     OW79522   2.034   1.796   6.511  0.3172 -0.2696 -0.3308
22515SOL    HW179523   1.987   1.713   6.499 -1.4671  0.5446  0.5606
22515SOL    HW279524   2.041   1.805   6.606 -1.8088  1.7350 -0.2697
22516SOL     OW79525   5.966   5.027   2.539 -0.2018 -0.1271  0.0665
22516SOL    HW179526   5.951   4.987   2.454 -2.1636 -0.3174  0.4587
22516SOL    HW279527   5.934   5.117   2.530  3.0990  1.1527 -0.4604
22517SOL     OW79528   8.618   8.852   3.829 -0.2371  0.0207 -0.2932
22517SOL    HW179529   8.669   8.932   3.843 -1.7695  1.3455 -1.9282
22517SOL    HW279530   8.576   8.836   3.914  2.3717 -0.8321  0.9544
22518SOL     OW79531   1.751   8.212   1.867  0.1806  0.7295 -0.2351
22518SOL    HW179532   1.821   8.146   1.869  0.6003  1.1864  1.0058
22518SOL    HW279533   1.755   8.247   1.778  0.9156  0.1081 -0.4629
22519SOL     OW79534   5.994   7.057   8.270  0.2226 -0.0697  0.4563
22519SOL    HW179535   5.958   7.001   8.339  0.1479 -1.3800 -0.6292
22519SOL    HW279536   5.917   7.104   8.236 -0.0682 -0.9251 -0.0907
22520SOL     OW79537   2.039   8.193   7.690 -0.3510  0.3169  0.5865
22520SOL    HW179538   1.972   8.246   7.648  1.3051  0.1997 -2.5252
22520SOL    HW279539   2.021   8.103   7.662  0.5958  0.1802  0.3503
22521SOL     OW79540   1.521   9.778   5.418 -0.6347 -0.4489 -0.0617
22521SOL    HW179541   1.460   9.828   5.473  1.1900  2.2232 -0.2534
22521SOL    HW279542   1.575   9.729   5.479 -0.0802  0.7387  0.4300
22522SOL     OW79543   2.045   1.753   3.277 -0.3931 -0.5143  0.1677
22522SOL    HW179544   1.951   1.762   3.262  0.1295  3.1979 -2.1720
22522SOL    HW279545   2.080   1.723   3.193  0.6922  0.3423  0.2907
22523SOL     OW79546   9.424   3.551   2.654 -0.5244  0.5348  0.3644
22523SOL    HW179547   9.430   3.537   2.748  1.4251  2.2226  0.5838
22523SOL    HW279548   9.513   3.533   2.622 -0.5755  2.1195 -0.7716
22524SOL     OW79549   6.770   1.020   1.836  0.1597 -0.0210 -0.0624
22524SOL    HW179550   6.702   1.025   1.903  0.6251  0.0589  0.4112
22524SOL    HW279551   6.771   1.107   1.795  1.4503  0.7123  1.4142
22525SOL     OW79552   6.764   1.222   0.706 -0.0383  0.0170 -0.0849
22525SOL    HW179553   6.789   1.187   0.792 -1.2508 -0.8582 -0.0677
22525SOL    HW279554   6.847   1.244   0.664  0.6475 -0.9000  0.7429
22526SOL     OW79555   2.176   8.443   8.781  0.6735  0.2440 -0.3537
22526SOL    HW179556   2.224   8.449   8.863 -0.3181 -1.7020  0.4362
22526SOL    HW279557   2.205   8.361   8.742 -2.7254 -1.6575  0.7312
22527SOL     OW79558   2.034   9.444   7.073  0.1661  0.1638  0.0794
22527SOL    HW179559   2.089   9.509   7.116 -1.9379  1.5769  0.8094
22527SOL    HW279560   1.989   9.493   7.004 -0.7237 -0.7331 -0.0122
22528SOL     OW79561   2.418   6.109   2.240 -0.3150  0.5130  0.6172
22528SOL    HW179562   2.324   6.128   2.241 -0.5409 -0.2093 -1.3004
22528SOL    HW279563   2.423   6.016   2.215  0.8953  0.7598 -0.1470
22529SOL     OW79564   9.804   5.486   9.087 -0.3500 -0.1284  0.2084
22529SOL    HW179565   9.817   5.580   9.078  0.7895 -0.3153 -0.2375
22529SOL    HW279566   9.818   5.468   9.180  1.0221 -0.0688  0.0339
22530SOL     OW79567   9.974   3.806   0.184  0.1872  0.2394  0.5462
22530SOL    HW179568  10.059   3.762   0.179  1.1148  1.8300  1.4319
22530SOL    HW279569   9.910   3.735   0.190  1.1551 -1.0868 -2.9246
22531SOL     OW79570   0.667   9.205   7.941 -0.1369 -0.3512 -0.1553
22531SOL    HW179571   0.672   9.264   7.866  0.9283 -0.8442 -0.4935
22531SOL    HW279572   0.656   9.263   8.016 -2.4773  0.0942 -0.7520
22532SOL     OW79573   1.581   3.699   3.952 -0.1284 -0.0720 -0.0673
22532SOL    HW179574   1.494   3.680   3.987  0.2970 -0.1582  0.9772
22532SOL    HW279575   1.565   3.741   3.868 -1.1786 -0.1393  0.0953
22533SOL     OW79576   8.298   7.351  10.301 -0.2538 -0.1009  0.3650
22533SOL    HW179577   8.283   7.311  10.386  0.6040  0.7317  0.9247
22533SOL    HW279578   8.245   7.431  10.302  2.4554  1.8269  1.5940
22534SOL     OW79579   0.649   4.043   4.505 -0.5778 -0.2836  0.1270
22534SOL    HW179580   0.702   4.016   4.430 -0.0510 -0.3952  0.5317
22534SOL    HW279581   0.640   3.963   4.557 -0.4215 -0.0610  0.4921
22535SOL     OW79582   5.703   0.023   3.839  0.0036 -0.3075 -0.1740
22535SOL    HW179583   5.788   0.018   3.883 -0.0940 -0.0399  0.0546
22535SOL    HW279584   5.655   0.091   3.888  0.2237  0.6540 -1.2679
22536SOL     OW79585   5.759   9.623   2.249  0.2449  0.3132  0.3337
22536SOL    HW179586   5.794   9.702   2.289  0.8115  0.1841  0.0928
22536SOL    HW279587   5.836   9.570   2.229  0.0510  0.8088 -1.8978
22537SOL     OW79588   8.738   0.895   9.113  0.4480  0.3649  0.0670
22537SOL    HW179589   8.778   0.816   9.150  0.7197  0.3519 -0.2511
22537SOL    HW279590   8.671   0.863   9.053 -2.2528  0.3508  2.8383
22538SOL     OW79591   3.067   2.359   2.347 -0.3489  0.4704  0.1047
22538SOL    HW179592   2.992   2.408   2.312 -0.6093 -0.8639 -1.2733
22538SOL    HW279593   3.138   2.376   2.286 -0.3945 -0.6889 -0.2998
22539SOL     OW79594   0.833   1.399   9.863 -0.2836 -0.1546  0.5913
22539SOL    HW179595   0.888   1.419   9.939 -1.5131 -0.3210  1.5660
22539SOL    HW279596   0.796   1.313   9.882 -0.5629 -0.2242 -0.2365
22540SOL     OW79597   7.686   2.673   9.011 -0.0286 -0.0904  0.0640
22540SOL    HW179598   7.717   2.612   9.079  2.5705  0.2639 -0.6962
22540SOL    HW279599   7.633   2.619   8.953  1.4862 -1.4842 -0.0996
22541SOL     OW79600   2.908   5.862   5.486 -0.4723 -0.7749  0.4134
22541SOL    HW179601   2.896   5.773   5.452 -0.2498 -0.6011 -0.1297
22541SOL    HW279602   2.993   5.859   5.530  0.2792 -0.4461 -0.9384
22542SOL     OW79603   9.488   7.378   4.687  0.1786 -0.1527 -0.2537
22542SOL    HW179604   9.576   7.406   4.712  0.6485 -1.9351  0.2201
22542SOL    HW279605   9.491   7.283   4.690 -0.7889 -0.4352 -3.5759
22543SOL     OW79606   3.160   3.261   5.890  0.3847 -0.0462 -0.6021
22543SOL    HW179607   3.245   3.217   5.889 -0.2869 -1.5467  1.2784
22543SOL    HW279608   3.097   3.191   5.909 -1.2258  1.1140 -1.4368
22544SOL     OW79609   4.563   9.867   1.095  0.1556  0.5656 -0.5246
22544SOL    HW179610   4.549   9.789   1.041  0.9317  0.1015 -0.0663
22544SOL    HW279611   4.573   9.939   1.032 -0.0954  0.2238 -0.9601
22545SOL     OW79612   6.722   9.765   2.896 -0.5241 -0.0225  0.3554
22545SOL    HW179613   6.775   9.844   2.909  2.2918 -1.7885  0.5296
22545SOL    HW279614   6.704   9.764   2.802 -0.5645  0.7832  0.3423
22546SOL     OW79615   3.114   3.118   8.254  0.1519 -0.3776  0.9522
22546SOL    HW179616   3.126   3.206   8.290 -1.5789 -0.7966  2.7676
22546SOL    HW279617   3.161   3.061   8.316 -0.6967 -0.9047  1.1267
22547SOL     OW79618   2.697   7.988   2.505  0.1260  0.3140  0.7641
22547SOL    HW179619   2.722   8.079   2.491  0.4692 -0.0071 -0.9231
22547SOL    HW279620   2.776   7.946   2.539  1.1928 -0.1212 -2.0293
22548SOL     OW79621   2.860   0.609   3.305 -0.4553 -0.1153 -0.3867
22548SOL    HW179622   2.827   0.552   3.236 -0.8877  0.3226 -0.5479
22548SOL    HW279623   2.796   0.681   3.310 -0.2809  0.0040  0.2725
22549SOL     OW79624   8.745   7.387   6.268  0.4578 -0.3699  0.2223
22549SOL    HW179625   8.739   7.294   6.244  0.1470  0.1409 -1.9367
22549SOL    HW279626   8.654   7.416   6.275  0.4390  0.3516 -1.9573
22550SOL     OW79627   6.416   0.394   8.586 -0.5363 -0.5315 -0.1637
22550SOL    HW179628   6.478   0.434   8.647 -1.8906  3.0449 -0.8638
22550SOL    HW279629   6.396   0.309   8.624  2.3720 -0.5013  1.7056
22551SOL     OW79630   7.093   1.869   8.296  0.0146 -0.0078  0.5380
22551SOL    HW179631   7.026   1.812   8.332  1.4414 -1.9915  0.2115
22551SOL    HW279632   7.100   1.940   8.360 -0.7345 -1.0011  1.7782
22552SOL     OW79633   2.755   9.517   7.644 -0.3004  0.3180  0.1802
22552SOL    HW179634   2.719   9.451   7.585  0.1015 -0.9126  1.2497
22552SOL    HW279635   2.844   9.485   7.663 -0.0358  1.2662  0.5713
22553SOL     OW79636   6.829   9.867   8.690 -0.0503  0.2004 -0.3608
22553SOL    HW179637   6.890   9.872   8.763 -0.1013  0.3542 -0.3293
22553SOL    HW279638   6.792   9.955   8.683  0.5001  0.3864 -1.0334
22554SOL     OW79639   1.875   1.728   8.706 -0.1555  0.1230 -0.3701
22554SOL    HW179640   1.955   1.675   8.707 -0.6353 -0.6132  0.6491
22554SOL    HW279641   1.834   1.708   8.622  0.1337 -0.4377 -0.3838
22555SOL     OW79642   9.499   2.288   4.711  0.5682 -0.0106  0.4498
22555SOL    HW179643   9.442   2.232   4.763  0.1191 -0.9757 -1.0162
22555SOL    HW279644   9.568   2.230   4.680  0.7980  0.5329 -0.0722
22556SOL     OW79645   2.099   7.961   3.432  0.3439 -0.4255 -0.1000
22556SOL    HW179646   2.176   7.952   3.376  0.8141 -0.5052  0.5466
22556SOL    HW279647   2.025   7.956   3.372  0.8603  1.5703 -0.9851
22557SOL     OW79648   1.005   8.602   7.654 -0.2408  0.2629  0.3215
22557SOL    HW179649   0.953   8.616   7.575 -1.8781  1.0263  1.4862
22557SOL    HW279650   1.067   8.675   7.656 -0.0966  0.1604 -0.3165
22558SOL     OW79651   7.403   9.014   9.724 -0.2877 -0.2333 -0.2848
22558SOL    HW179652   7.434   9.039   9.637  1.2753  0.4008  0.4149
22558SOL    HW279653   7.368   8.926   9.713  2.6662 -1.4328 -0.9948
22559SOL     OW79654   0.561   4.724   0.134  0.4576 -0.1008 -0.4998
22559SOL    HW179655   0.483   4.682   0.098  0.1160 -0.4329  0.5797
22559SOL    HW279656   0.562   4.811   0.096 -1.1594  0.3540  0.4118
22560SOL     OW79657  10.075   7.155   3.294  0.8858  0.3366 -0.3673
22560SOL    HW179658   9.982   7.176   3.293  1.1365  1.4923 -0.0978
22560SOL    HW279659  10.082   7.076   3.240 -0.0386  1.1761 -1.7709
22561SOL     OW79660   6.164  10.278   4.068  0.0208  0.1717  0.3342
22561SOL    HW179661   6.108  10.275   3.990  1.6209 -1.9905 -0.8156
22561SOL    HW279662   6.133  10.207   4.124 -0.3801  0.9888  1.1830
22562SOL     OW79663   8.084   0.946   8.572  0.1103  0.0911  0.1337
22562SOL    HW179664   8.129   0.981   8.495 -0.8517  1.2146  0.0364
22562SOL    HW279665   8.153   0.910   8.627  0.7958 -0.9346 -1.3407
22563SOL     OW79666   2.909   6.787   5.459 -0.2410  0.2605 -0.5629
22563SOL    HW179667   2.984   6.729   5.473  0.3980  0.9554 -1.0200
22563SOL    HW279668   2.948   6.875   5.456 -1.0857  0.6317 -0.7432
22564SOL     OW79669   2.630   5.065   6.231  0.1807 -0.3584  0.2923
22564SOL    HW179670   2.678   5.077   6.312  0.0303 -2.5354  0.7532
22564SOL    HW279671   2.568   5.137   6.229  1.0719  0.4744  1.4402
22565SOL     OW79672   1.593   9.468   7.745 -0.1693  0.1487  0.0079
22565SOL    HW179673   1.551   9.466   7.659 -2.1628 -0.3421  0.9357
22565SOL    HW279674   1.540   9.530   7.796  1.4231  1.0011  0.6986
22566SOL     OW79675   2.827   4.179   5.442 -0.7415 -0.0265  0.0321
22566SOL    HW179676   2.778   4.117   5.497  0.0321  0.4719  1.3373
22566SOL    HW279677   2.765   4.207   5.375 -1.7713 -0.5456  0.7459
22567SOL     OW79678   7.730   6.807   5.997 -0.0026 -0.1786 -0.2245
22567SOL    HW179679   7.738   6.719   6.034 -0.2606 -1.0109 -2.0427
22567SOL    HW279680   7.652   6.802   5.942  1.1235  0.5560 -1.9662
22568SOL     OW79681   2.472  10.061   3.452  0.0247  0.1760  0.6270
22568SOL    HW179682   2.561  10.030   3.467 -0.2194 -1.4325 -0.9049
22568SOL    HW279683   2.418  10.011   3.513 -0.0823 -0.6869 -0.1491
22569SOL     OW79684   8.348   8.583   5.612  0.4369 -0.0932 -0.5356
22569SOL    HW179685   8.285   8.515   5.585  1.0325 -1.6267  1.6829
22569SOL    HW279686   8.327   8.657   5.556 -1.6607 -1.3942 -1.6402
22570SOL     OW79687   2.200   7.591   4.078  0.3400 -0.3548 -0.1921
22570SOL    HW179688   2.118   7.572   4.032  1.0401  0.3369 -1.8070
22570SOL    HW279689   2.230   7.675   4.041  2.1912 -0.9936 -0.2679
22571SOL     OW79690   3.810   2.437   7.362  0.7275 -0.1751  0.0847
22571SOL    HW179691   3.771   2.398   7.284 -0.3380  1.5499 -0.2974
22571SOL    HW279692   3.878   2.375   7.388 -1.0664 -2.4273 -0.2673
22572SOL     OW79693   1.902   7.680   4.657  0.0021  0.5088 -0.4791
22572SOL    HW179694   1.850   7.613   4.701 -1.0782  1.3330 -0.4600
22572SOL    HW279695   1.844   7.715   4.589  0.5522  1.4094 -0.4991
22573SOL     OW79696   7.988   0.398   1.403  0.4447 -0.7695 -0.5517
22573SOL    HW179697   8.042   0.453   1.460  1.2891 -1.5365 -0.5747
22573SOL    HW279698   7.978   0.316   1.452 -0.0156 -0.9275 -0.9049
22574SOL     OW79699   1.779   6.305   8.602  0.2271 -0.5286 -0.3399
22574SOL    HW179700   1.852   6.276   8.657 -0.3816  1.1974  1.5170
22574SOL    HW279701   1.701   6.285   8.654 -0.4175  0.5611 -0.8543
22575SOL     OW79702   0.344   8.649   3.052  0.0950  0.0496 -0.8639
22575SOL    HW179703   0.404   8.613   2.987 -0.0936 -2.0966  0.0780
22575SOL    HW279704   0.260   8.656   3.006  0.5842  1.2850 -1.6344
22576SOL     OW79705   5.631   6.846   1.400 -0.0532 -0.0257 -0.1804
22576SOL    HW179706   5.558   6.887   1.354  0.7882  1.0357 -0.5928
22576SOL    HW279707   5.709   6.870   1.350  0.4979 -2.0567 -0.3756
22577SOL     OW79708   2.586   5.063   4.614 -0.6983  0.1073  0.3593
22577SOL    HW179709   2.545   5.006   4.549  0.1413  0.6767 -0.7060
22577SOL    HW279710   2.513   5.105   4.659 -1.3064  0.0415 -0.5328
22578SOL     OW79711   1.646   4.708   5.184 -0.8005  0.7402 -0.4623
22578SOL    HW179712   1.605   4.783   5.141 -1.8045  0.9140  0.7360
22578SOL    HW279713   1.652   4.733   5.276  0.0296 -0.1593 -0.2479
22579SOL     OW79714   2.204   3.175   1.106 -0.3035  0.1266 -0.0043
22579SOL    HW179715   2.217   3.212   1.019  0.4985  0.2430  0.1559
22579SOL    HW279716   2.119   3.210   1.135 -1.3691 -1.2245 -1.3757
22580SOL     OW79717   0.948   7.792   8.921  0.0452  0.1460  0.1109
22580SOL    HW179718   1.004   7.723   8.886  0.6266  1.6042 -2.0701
22580SOL    HW279719   0.874   7.746   8.958 -0.1959 -1.6793 -2.3484
22581SOL     OW79720   0.202   7.263   4.812 -0.2244  0.7174  0.1692
22581SOL    HW179721   0.198   7.359   4.813  1.9986  0.8385  0.4423
22581SOL    HW279722   0.178   7.237   4.901  0.7505  1.1135  0.5526
22582SOL     OW79723   4.861   8.324   2.752  0.6245  0.2606  0.0623
22582SOL    HW179724   4.820   8.310   2.837 -0.6850  0.2764 -0.5387
22582SOL    HW279725   4.847   8.242   2.705 -0.6797  1.0158 -0.9205
22583SOL     OW79726   0.560   6.915   3.378 -0.1175 -0.3584 -0.5533
22583SOL    HW179727   0.477   6.870   3.396 -0.2193 -1.0530 -2.5546
22583SOL    HW279728   0.535   6.993   3.330  0.3152  0.0419 -0.1358
22584SOL     OW79729   0.191   3.186   9.267 -0.0272  0.1051  0.2052
22584SOL    HW179730   0.248   3.204   9.342  0.8461  1.3846 -0.7021
22584SOL    HW279731   0.248   3.198   9.191 -1.0013 -0.7116 -0.6789
22585SOL     OW79732   8.808   4.197   2.844  0.5657 -0.6513 -0.0577
22585SOL    HW179733   8.858   4.206   2.925 -0.6156 -0.7590  0.7048
22585SOL    HW279734   8.842   4.267   2.787  2.5072 -1.5593 -0.0891
22586SOL     OW79735  10.279   3.954   7.598 -0.2282 -0.1422 -0.2622
22586SOL    HW179736  10.213   3.987   7.659  1.5043  1.4222  0.8669
22586SOL    HW279737  10.295   3.864   7.626  1.5315  0.9536  2.6008
22587SOL     OW79738  10.282   0.651   4.926 -0.1085  0.0704  0.0527
22587SOL    HW179739  10.302   0.730   4.875  0.3997  0.2193  0.4724
22587SOL    HW279740  10.189   0.635   4.910  0.0383  0.1177 -0.9059
22588SOL     OW79741   9.373   4.959   2.814  0.1353 -0.2048  0.3164
22588SOL    HW179742   9.313   5.021   2.858  1.0827  1.5372 -0.7344
22588SOL    HW279743   9.408   4.906   2.885  1.1274  2.0905  1.6501
22589SOL     OW79744   5.304   9.604  10.210 -0.4473  0.1429 -0.1743
22589SOL    HW179745   5.277   9.518  10.176  0.1451  0.4232 -1.3964
22589SOL    HW279746   5.233   9.663  10.184 -1.5967 -0.2069  1.9685
22590SOL     OW79747   1.055   6.979   9.737  0.2246 -0.5314 -0.5714
22590SOL    HW179748   1.004   6.970   9.817 -0.0281  1.5196 -0.4553
22590SOL    HW279749   0.991   6.998   9.669  0.6987  1.2667 -0.5723
22591SOL     OW79750   1.928  10.231   3.146  0.2036  0.1231  0.5314
22591SOL    HW179751   1.966  10.143   3.146 -0.5017 -0.2565 -1.5945
22591SOL    HW279752   1.974  10.277   3.075 -1.1059  0.6450 -0.0142
22592SOL     OW79753   0.329   4.702   6.790 -0.0811 -0.6551 -0.0143
22592SOL    HW179754   0.252   4.681   6.738  0.3148  2.3828 -2.1363
22592SOL    HW279755   0.295   4.742   6.870 -0.7596  0.5880 -0.9009
22593SOL     OW79756   8.359   7.030   1.891  0.3557  0.1638  0.0683
22593SOL    HW179757   8.296   6.970   1.931 -0.7359  1.0079 -0.3082
22593SOL    HW279758   8.307   7.078   1.826  0.9114  2.2623  1.0836
22594SOL     OW79759   0.898   7.418   2.979  0.5106  0.6585  0.1959
22594SOL    HW179760   0.962   7.388   3.044  0.2703 -0.8607 -0.2327
22594SOL    HW279761   0.950   7.465   2.915  1.2663 -0.7069 -0.2377
22595SOL     OW79762   5.854   2.621   0.007  0.0071 -0.1736  0.3123
22595SOL    HW179763   5.849   2.535  -0.036 -0.9269 -1.2895  2.5110
22595SOL    HW279764   5.770   2.662  -0.011 -0.7763 -1.0515  1.7852
22596SOL     OW79765   6.356   0.091   6.049 -0.3447  0.0667 -0.4134
22596SOL    HW179766   6.275   0.137   6.071 -1.2617 -0.9516 -1.5171
22596SOL    HW279767   6.327   0.004   6.020  1.1516 -0.3182 -0.8519
22597SOL     OW79768   2.556   9.294   3.146  0.2510  0.2739 -0.1453
22597SOL    HW179769   2.635   9.310   3.197 -0.6445 -0.2707  1.4980
22597SOL    HW279770   2.586   9.244   3.070  1.4767  0.0033  0.4911
22598SOL     OW79771   1.170   9.884   9.817 -0.3588 -1.0314  0.2212
22598SOL    HW179772   1.230   9.814   9.842  1.3429 -0.3127 -1.5705
22598SOL    HW279773   1.219   9.965   9.832 -1.7735 -0.2673  0.9318
22599SOL     OW79774   6.169   1.978   5.987  0.1777  0.5048  0.4749
22599SOL    HW179775   6.223   1.929   6.050  1.7058  0.8780 -0.4914
22599SOL    HW279776   6.105   1.914   5.956  1.7499 -0.7610 -0.3099
22600SOL     OW79777   1.873   1.297   1.123  0.9911  0.1610  0.7527
22600SOL    HW179778   1.863   1.389   1.098 -2.4939 -0.3539 -0.2728
22600SOL    HW279779   1.814   1.285   1.197  1.4437 -1.2506  0.9185
22601SOL     OW79780   7.780   5.847   8.643  0.2895 -0.3171  0.1613
22601SOL    HW179781   7.743   5.902   8.712  1.2068  1.6596 -0.8249
22601SOL    HW279782   7.862   5.816   8.679  1.3250  1.6358 -0.3542
22602SOL     OW79783   7.949   0.943   6.973 -0.3247  0.1993  0.1691
22602SOL    HW179784   7.911   0.950   6.885 -0.5903  0.2353  0.2840
22602SOL    HW279785   8.041   0.965   6.961 -0.7061  1.9973  0.1673
22603SOL     OW79786   0.413   9.186   6.674 -0.1227  0.3356  0.1324
22603SOL    HW179787   0.503   9.188   6.643  0.2437  0.1438  1.1410
22603SOL    HW279788   0.420   9.189   6.769 -1.0387 -2.6527  0.4003
22604SOL     OW79789   8.691   6.551   8.101  0.0165 -0.2988 -0.1870
22604SOL    HW179790   8.768   6.552   8.158 -0.1425  1.9410  0.0633
22604SOL    HW279791   8.711   6.615   8.033 -0.7985 -1.2036 -1.3204
22605SOL     OW79792   3.333   4.749  10.249 -0.4631 -1.0042  0.0715
22605SOL    HW179793   3.371   4.680  10.194  0.2763  0.0616 -0.7855
22605SOL    HW279794   3.251   4.772  10.207  0.6833  0.6967 -1.4002
22606SOL     OW79795   9.535   6.116   8.870 -0.0476 -0.4529 -0.3676
22606SOL    HW179796   9.616   6.159   8.898  0.1769 -1.5108  0.6742
22606SOL    HW279797   9.466   6.165   8.915  0.1885 -1.0079  0.6218
22607SOL     OW79798   2.336   3.663   9.599  0.2205  0.5706 -0.5676
22607SOL    HW179799   2.249   3.647   9.563 -0.0071  1.9432 -0.6975
22607SOL    HW279800   2.395   3.652   9.525  0.5490 -3.1878  0.0888
22608SOL     OW79801   3.553   7.051   4.018 -0.1631 -0.0430  0.5093
22608SOL    HW179802   3.582   7.117   3.956  1.4113 -0.6475  0.5540
22608SOL    HW279803   3.458   7.049   4.009 -0.0901  1.0188 -0.7065
22609SOL     OW79804   6.103   5.349   5.795 -0.0165  0.8111 -0.5008
22609SOL    HW179805   6.122   5.411   5.725 -0.3758  0.5510 -0.8377
22609SOL    HW279806   6.178   5.355   5.854 -1.0712  3.3185  0.7715
22610SOL     OW79807   2.144   7.847   9.091  0.0475  0.2769  0.8185
22610SOL    HW179808   2.173   7.756   9.102  0.1733  0.2156  0.0759
22610SOL    HW279809   2.053   7.847   9.118 -0.1251 -0.2103  0.2630
22611SOL     OW79810   4.463   4.455   2.516 -0.2703 -0.1524  0.2013
22611SOL    HW179811   4.485   4.492   2.601 -0.5476 -1.2909  0.7952
22611SOL    HW279812   4.491   4.364   2.521  1.0980  0.1204 -1.4915
22612SOL     OW79813   6.452   7.451   4.634  0.6324 -0.0958 -0.4025
22612SOL    HW179814   6.385   7.451   4.703  1.3438 -2.4541  0.3862
22612SOL    HW279815   6.535   7.450   4.682  1.1655 -0.4822 -1.3125
22613SOL     OW79816   1.089  10.063   1.327 -0.0170 -0.0990  0.3258
22613SOL    HW179817   1.107  10.070   1.233  0.0894 -1.5296  0.2157
22613SOL    HW279818   1.095   9.969   1.345 -0.0567  0.1587  1.7627
22614SOL     OW79819   3.507   3.647   7.024  0.0713 -0.3618  0.2217
22614SOL    HW179820   3.537   3.690   6.943 -0.5525 -2.2029 -1.0614
22614SOL    HW279821   3.509   3.716   7.090 -1.0665  1.7034 -1.7487
22615SOL     OW79822   1.424   5.731   4.719  0.1122 -0.2346 -0.1210
22615SOL    HW179823   1.334   5.759   4.700  0.9433  1.9768 -1.1735
22615SOL    HW279824   1.420   5.636   4.718 -2.8721 -0.3646  3.2953
22616SOL     OW79825   2.465   4.306   4.696  0.2631  0.5000 -0.3937
22616SOL    HW179826   2.410   4.229   4.705  0.7281 -0.2388 -3.1322
22616SOL    HW279827   2.425   4.357   4.625  1.3162  1.5664 -0.2609
22617SOL     OW79828   0.353   1.774   0.777  0.1924  0.1190 -0.4476
22617SOL    HW179829   0.359   1.685   0.741  0.9237  0.0637 -0.2021
22617SOL    HW279830   0.402   1.770   0.859  0.1124  0.7179 -0.3668
22618SOL     OW79831   5.240   8.528   0.849  0.2318 -0.7318 -0.2376
22618SOL    HW179832   5.177   8.582   0.896  0.1205  0.6848 -1.9216
22618SOL    HW279833   5.190   8.453   0.817  0.4081 -1.9964  2.2028
22619SOL     OW79834   0.728   3.303   4.540 -0.2386 -0.4496  0.0592
22619SOL    HW179835   0.655   3.328   4.484  0.4230 -1.3362 -1.2645
22619SOL    HW279836   0.793   3.372   4.526  0.0569 -0.8370 -0.5751
22620SOL     OW79837   9.477   6.750   2.364  0.2649  0.2310  0.3427
22620SOL    HW179838   9.420   6.806   2.417  0.9354  0.7065  0.5744
22620SOL    HW279839   9.526   6.811   2.308  0.4625 -0.1786  0.0653
22621SOL     OW79840   7.689   7.645   6.784 -0.5340 -0.0738  0.4724
22621SOL    HW179841   7.652   7.640   6.696 -1.4372 -1.3508  0.8939
22621SOL    HW279842   7.651   7.724   6.822 -1.2543 -0.2701  0.1839
22622SOL     OW79843   2.658   3.426   5.473 -0.1849  0.4519 -0.1582
22622SOL    HW179844   2.588   3.378   5.428 -2.3507  1.6947  1.6451
22622SOL    HW279845   2.627   3.434   5.563  1.3208  2.8870  0.2442
22623SOL     OW79846   8.035   4.831   4.774  0.1771 -0.3024 -0.1409
22623SOL    HW179847   8.072   4.799   4.856  1.3933 -0.2088 -0.6425
22623SOL    HW279848   8.107   4.876   4.730  0.0414 -1.7717 -2.0051
22624SOL     OW79849   0.990   2.496   2.962 -0.6746 -0.1320 -0.5549
22624SOL    HW179850   0.946   2.423   2.919  1.0053 -0.8712 -1.0532
22624SOL    HW279851   1.082   2.473   2.962 -0.1456  1.8185 -0.3649
22625SOL     OW79852   8.418   3.828   6.259  0.1149  0.4979 -0.0030
22625SOL    HW179853   8.485   3.804   6.323 -0.6767  0.4012  0.8037
22625SOL    HW279854   8.417   3.924   6.259  1.2639  0.5347 -1.1056
22626SOL     OW79855   7.531   2.655   6.323 -0.1324  0.4330  0.1921
22626SOL    HW179856   7.450   2.705   6.334  0.2302  1.2483 -0.7484
22626SOL    HW279857   7.600   2.717   6.344  0.4111  0.8782 -2.5445
22627SOL     OW79858   7.405   6.586   6.593  0.2728  0.2929  0.4944
22627SOL    HW179859   7.483   6.574   6.539 -0.5297 -0.3391 -0.5587
22627SOL    HW279860   7.345   6.636   6.538 -1.4670 -2.3474 -0.1936
22628SOL     OW79861   5.466   5.128   7.621  0.0315  0.3146  0.0982
22628SOL    HW179862   5.556   5.104   7.642 -0.2099  0.1983  1.0330
22628SOL    HW279863   5.464   5.223   7.629  0.0715  0.3201  0.0499
22629SOL     OW79864   8.494  10.358   0.331 -0.4556  0.4532 -0.1812
22629SOL    HW179865   8.558  10.287   0.339  1.2213  2.0542  1.6623
22629SOL    HW279866   8.436  10.348   0.406 -0.2106  1.0228  0.0883
22630SOL     OW79867   8.245   4.658   0.287 -0.0393 -0.6311 -0.3697
22630SOL    HW179868   8.200   4.610   0.218 -1.7318  1.8210 -1.0739
22630SOL    HW279869   8.312   4.709   0.242  1.1436 -1.5376  0.2740
22631SOL     OW79870   6.088   5.224   7.087  0.4722 -0.5559  0.4264
22631SOL    HW179871   6.020   5.290   7.071  0.6737 -0.1990  1.0404
22631SOL    HW279872   6.170   5.272   7.084  0.8954 -1.2772 -2.1591
22632SOL     OW79873   2.107   4.530   9.917 -0.2826  0.3561 -0.1153
22632SOL    HW179874   2.182   4.548   9.973  0.0724  0.9982 -0.7666
22632SOL    HW279875   2.058   4.612   9.916 -0.1119  0.4649 -0.9764
22633SOL     OW79876   4.215   8.077   3.004 -0.1559 -0.2249  0.6745
22633SOL    HW179877   4.180   8.110   2.921  2.4746 -0.5267 -0.6549
22633SOL    HW279878   4.175   7.991   3.015  1.0367 -1.1049 -1.4286
22634SOL     OW79879   1.939   0.767   0.514 -0.1731  0.4376 -0.3834
22634SOL    HW179880   1.903   0.715   0.586 -1.0566 -1.6639 -2.2179
22634SOL    HW279881   1.864   0.810   0.474 -0.1322 -0.5670 -1.6301
22635SOL     OW79882   8.341   1.891   1.826 -0.2700  0.1397 -0.3302
22635SOL    HW179883   8.336   1.796   1.825 -0.9500  0.1591  0.3596
22635SOL    HW279884   8.358   1.915   1.735 -3.4251 -0.4956 -1.2295
22636SOL     OW79885   1.175   5.692  10.019  0.3486 -0.1067  0.0034
22636SOL    HW179886   1.112   5.645  10.074  1.3772  0.0693  1.3912
22636SOL    HW279887   1.259   5.652  10.040  0.8036  0.1242 -1.3024
22637SOL     OW79888   9.431   1.086   5.550  0.2227 -1.1692 -0.1809
22637SOL    HW179889   9.360   1.023   5.535  1.8526 -3.2612  0.4257
22637SOL    HW279890   9.462   1.066   5.638  1.3062 -0.0358 -0.2833
22638SOL     OW79891   0.667   9.944   4.293 -0.0618 -0.4842 -0.0336
22638SOL    HW179892   0.720   9.866   4.275  0.3654 -0.5645  1.4623
22638SOL    HW279893   0.722   9.998   4.349 -0.1797  1.1432 -1.4042
22639SOL     OW79894   5.201   7.572   7.036  0.3821 -0.3142 -0.1511
22639SOL    HW179895   5.278   7.625   7.057 -0.0772 -0.6434  2.7054
22639SOL    HW279896   5.135   7.637   7.011  0.7721  0.1972  0.1142
22640SOL     OW79897   8.451   8.193   0.008 -0.0656  0.3571 -0.2173
22640SOL    HW179898   8.531   8.146  -0.016 -1.2998 -1.4295 -1.0323
22640SOL    HW279899   8.474   8.285  -0.002  0.9419 -0.1089 -3.9162
22641SOL     OW79900   1.932   7.919   4.099  0.1183 -0.4001  0.5436
22641SOL    HW179901   1.942   7.875   4.183 -0.5060  0.0173  0.8407
22641SOL    HW279902   2.012   7.897   4.051  0.2295 -1.0940  1.0322
22642SOL     OW79903   6.534   2.804   6.778 -0.3673 -0.5229 -0.0071
22642SOL    HW179904   6.585   2.815   6.858 -0.0513 -0.2437 -0.2463
22642SOL    HW279905   6.479   2.727   6.795  1.3905 -1.9221 -0.4069
22643SOL     OW79906   8.371   3.868   9.730 -0.3418 -0.0150 -0.3376
22643SOL    HW179907   8.334   3.798   9.784  0.4536  1.0043  1.6531
22643SOL    HW279908   8.305   3.938   9.733  0.4349  0.6977  0.7915
22644SOL     OW79909   3.224   4.987   6.619  0.8512  0.0572  0.0767
22644SOL    HW179910   3.167   5.058   6.588  0.7195  0.4942  1.2949
22644SOL    HW279911   3.163   4.916   6.640  1.0078 -0.6004 -1.5078
22645SOL     OW79912   0.066   7.862   9.117  0.6072  0.2995  0.6060
22645SOL    HW179913   0.130   7.794   9.135  0.8886  1.0143  2.5708
22645SOL    HW279914   0.102   7.941   9.159 -0.5653  1.2157 -0.0283
22646SOL     OW79915   1.466   8.428   5.339  0.2194 -0.5961 -0.4595
22646SOL    HW179916   1.475   8.368   5.412 -0.4133 -0.4934 -0.2874
22646SOL    HW279917   1.501   8.381   5.263  0.4617 -0.8703 -0.1752
22647SOL     OW79918   4.157   0.923   2.445 -0.0606  0.0430 -0.3697
22647SOL    HW179919   4.236   0.869   2.449 -0.0212 -0.0167 -1.4692
22647SOL    HW279920   4.091   0.866   2.404 -0.9830 -0.2369  1.4167
22648SOL     OW79921   7.983   5.580   4.740  0.5096  0.1566  0.4594
22648SOL    HW179922   7.938   5.525   4.676 -0.5605  2.7203 -1.1706
22648SOL    HW279923   8.075   5.556   4.732  0.1342 -1.0554 -0.5351
22649SOL     OW79924   8.357   9.106   7.659  0.3872  0.8649  1.1060
22649SOL    HW179925   8.291   9.123   7.726 -0.1038  0.6908  0.6743
22649SOL    HW279926   8.342   9.015   7.633 -0.5140  1.4060 -0.3991
22650SOL     OW79927   7.139   3.407   8.085 -0.4055  0.1074 -0.1455
22650SOL    HW179928   7.148   3.501   8.103  0.2453 -0.0379  0.3235
22650SOL    HW279929   7.228   3.373   8.092 -0.7211 -0.6455  0.2386
22651SOL     OW79930   5.106   9.851   0.213  0.1808  0.5038  0.0188
22651SOL    HW179931   5.133   9.817   0.298 -1.1656  0.3018  0.3878
22651SOL    HW279932   5.015   9.878   0.226  0.2490  1.3147 -1.1180
22652SOL     OW79933   5.548   2.857   7.653 -0.1792  0.2277  0.2009
22652SOL    HW179934   5.602   2.902   7.718 -1.9527  2.1514  0.4507
22652SOL    HW279935   5.610   2.808   7.599  1.6814  1.4711  1.1285
22653SOL     OW79936   0.687   5.037   8.605 -0.0208  0.1516  0.2867
22653SOL    HW179937   0.740   5.066   8.679  3.2092 -0.5012 -1.5794
22653SOL    HW279938   0.675   5.115   8.551 -0.4352  0.1744  0.4106
22654SOL     OW79939   3.894   8.749   1.573 -0.4801 -0.4645  0.1611
22654SOL    HW179940   3.927   8.708   1.493 -0.4468 -0.3539  0.1184
22654SOL    HW279941   3.901   8.680   1.640  0.1241 -0.3498  0.2221
22655SOL     OW79942   1.233   8.973   6.314  0.0071 -0.5696  0.5247
22655SOL    HW179943   1.238   9.017   6.399  0.4364  0.4017  0.0194
22655SOL    HW279944   1.185   8.892   6.332  1.4258 -1.1384  1.9820
22656SOL     OW79945   9.782   9.800   7.412 -0.1809 -0.1561  0.3189
22656SOL    HW179946   9.765   9.724   7.356  1.2930 -0.7130  0.5880
22656SOL    HW279947   9.875   9.794   7.434  0.7280  3.2749 -1.9106
22657SOL     OW79948   4.561   5.923   6.893 -0.0025  0.1657 -0.4449
22657SOL    HW179949   4.488   5.868   6.864  0.4329 -0.8480  0.3007
22657SOL    HW279950   4.525   6.012   6.896 -1.3251 -0.3627  0.2546
22658SOL     OW79951   8.444  10.182   3.365 -0.3560  0.0603  0.3904
22658SOL    HW179952   8.444  10.093   3.401 -0.2148 -0.1779 -0.1965
22658SOL    HW279953   8.370  10.183   3.304  0.4506 -0.0584 -0.5958
22659SOL     OW79954  10.165   4.664   3.849  0.4867 -0.3479 -0.2635
22659SOL    HW179955  10.255   4.687   3.823  0.8905 -0.8845  0.6111
22659SOL    HW279956  10.110   4.708   3.785  1.2242  2.7398  1.0106
22660SOL     OW79957   0.799   9.162   0.506 -0.2029 -0.6972 -0.4387
22660SOL    HW179958   0.856   9.101   0.459 -0.6164 -0.8982 -0.6881
22660SOL    HW279959   0.766   9.113   0.581  0.6072 -0.3159  0.1759
22661SOL     OW79960   7.064   0.962   8.955 -0.6135 -0.1486 -0.3652
22661SOL    HW179961   7.121   0.974   9.032  0.6916 -1.4759 -1.0704
22661SOL    HW279962   7.028   0.875   8.966 -0.2099 -0.4497 -1.3714
22662SOL     OW79963   0.292   2.086   8.380  0.1019 -0.5718  0.4207
22662SOL    HW179964   0.283   2.014   8.443  0.4592  0.2356  1.4296
22662SOL    HW279965   0.358   2.143   8.419 -1.6942  1.4062  0.7205
22663SOL     OW79966   8.472   5.985   8.268  1.0503  0.3520  0.0127
22663SOL    HW179967   8.505   5.916   8.325  0.7544  1.6561  1.8662
22663SOL    HW279968   8.379   5.965   8.257  1.1924 -0.1168 -0.3256
22664SOL     OW79969   0.883   1.280   5.090  0.2022  0.2008  0.2770
22664SOL    HW179970   0.850   1.279   5.000  0.4721  1.2413  0.1566
22664SOL    HW279971   0.833   1.349   5.134  1.1636  0.7696  0.4962
22665SOL     OW79972   0.206   6.742   4.950 -0.2819  0.3020  0.2924
22665SOL    HW179973   0.172   6.771   5.034 -0.1975 -1.4401  0.9834
22665SOL    HW279974   0.131   6.702   4.906 -0.4125  1.5132 -0.6452
22666SOL     OW79975   7.200   0.270   8.949  0.0674  0.5616  0.1322
22666SOL    HW179976   7.289   0.236   8.939  0.3248  1.2821 -0.0898
22666SOL    HW279977   7.193   0.289   9.043 -0.6006 -1.4674  0.5386
22667SOL     OW79978   9.693   2.433   4.276 -0.2137 -0.1042 -0.4916
22667SOL    HW179979   9.611   2.409   4.235  1.4259 -2.5407 -2.6572
22667SOL    HW279980   9.742   2.479   4.208  0.6862  0.2007  0.3295
22668SOL     OW79981   0.002   3.078   2.004 -0.1650  0.0724 -0.3934
22668SOL    HW179982  -0.024   3.009   2.065  0.1216 -0.6866 -1.1160
22668SOL    HW279983   0.022   3.032   1.923 -1.5162  1.1738 -1.3861
22669SOL     OW79984   6.655   0.408   1.093  0.2406 -0.0461  0.0117
22669SOL    HW179985   6.703   0.396   1.011  1.0833 -2.6781  0.7849
22669SOL    HW279986   6.563   0.409   1.067  0.5221 -0.0393 -1.0335
22670SOL     OW79987   5.146  10.267   4.841  0.5767 -0.2396  0.2418
22670SOL    HW179988   5.208  10.279   4.912  1.2893 -0.1967 -0.3704
22670SOL    HW279989   5.195  10.289   4.762 -0.2284 -0.1743 -0.2568
22671SOL     OW79990   5.408   5.293   6.752  0.4105  0.3217 -0.0288
22671SOL    HW179991   5.382   5.300   6.660 -2.0229  1.1746  0.6469
22671SOL    HW279992   5.370   5.209   6.780  2.3915 -0.6575 -0.1134
22672SOL     OW79993  10.369   6.197   7.626 -0.3232  0.4547  0.0768
22672SOL    HW179994  10.353   6.242   7.543  4.2713  0.0240 -1.3580
22672SOL    HW279995  10.384   6.268   7.688 -1.7418  0.7871  0.0722
22673SOL     OW79996   9.848   2.912   0.378 -0.3776  0.1112  0.3963
22673SOL    HW179997   9.813   2.885   0.463  2.0754 -0.1916  1.3790
22673SOL    HW279998   9.917   2.849   0.358 -0.2627  0.7298 -1.3856
22674SOL     OW79999   5.684   0.587   0.081  0.0003 -0.0133 -0.5229
22674SOL    HW180000   5.622   0.515   0.070 -0.5978  0.2683  0.7313
22674SOL    HW280001   5.743   0.558   0.151  0.6767  0.1261 -1.0211
22675SOL     OW80002   0.178   1.820   1.733 -0.5576 -0.0376 -0.4806
22675SOL    HW180003   0.221   1.823   1.647  0.2690  0.7916 -0.0566
22675SOL    HW280004   0.245   1.786   1.792 -0.4680  1.2679  0.1883
22676SOL     OW80005   3.698   6.453   8.745 -0.4734  0.3398 -0.3690
22676SOL    HW180006   3.685   6.450   8.840 -1.3851  0.2183 -0.4882
22676SOL    HW280007   3.619   6.495   8.712 -0.1598  0.3784 -1.0791
22677SOL     OW80008   0.970   3.414   7.084  0.5080  0.5164 -0.0446
22677SOL    HW180009   0.883   3.455   7.075 -0.0721 -0.2568  1.6631
22677SOL    HW280010   0.986   3.374   6.999 -0.8273  0.6536 -0.3877
22678SOL     OW80011   9.940   0.792   0.554  0.3609  0.8118 -0.0307
22678SOL    HW180012   9.984   0.732   0.494  0.1998  0.9632 -0.3031
22678SOL    HW280013   9.877   0.738   0.601  0.7748  0.6084  0.3056
22679SOL     OW80014  10.218   4.416   7.224 -0.3281 -0.0873 -0.9017
22679SOL    HW180015  10.170   4.464   7.291 -0.7585  1.0648 -2.0014
22679SOL    HW280016  10.194   4.325   7.239 -2.5681  0.4136 -1.1630
22680SOL     OW80017   4.719   2.457   5.524  0.0656  0.7435 -0.6467
22680SOL    HW180018   4.702   2.417   5.609 -0.8781 -1.1873 -1.6729
22680SOL    HW280019   4.690   2.548   5.533 -3.0998 -0.2487  0.1735
22681SOL     OW80020   0.262   1.434   2.679 -0.3741  1.0596  0.4519
22681SOL    HW180021   0.263   1.339   2.694  1.2126  0.9416 -0.2023
22681SOL    HW280022   0.178   1.450   2.635  0.4604 -0.5045 -1.9692
22682SOL     OW80023   4.749   8.546   0.488 -0.2778  0.2512  0.7464
22682SOL    HW180024   4.658   8.545   0.519 -0.1481  3.3766  1.5475
22682SOL    HW280025   4.801   8.557   0.568  0.6853  0.1689  0.1432
22683SOL     OW80026   3.239   7.278   9.849  0.7138  0.3119  0.2940
22683SOL    HW180027   3.255   7.209   9.784 -2.1157 -0.5235  0.3726
22683SOL    HW280028   3.154   7.314   9.825  1.1482  2.3286  1.5688
22684SOL     OW80029   1.102   5.456   4.825  0.1920  0.6639  0.5707
22684SOL    HW180030   1.073   5.404   4.900  1.6809 -0.1514  0.6385
22684SOL    HW280031   1.074   5.545   4.845 -2.3117 -0.0374  0.5262
22685SOL     OW80032   3.590   5.047   5.995 -0.2041 -0.3926 -0.0093
22685SOL    HW180033   3.565   5.026   6.084  0.8867 -0.2331  0.3444
22685SOL    HW280034   3.512   5.088   5.957 -0.5505 -0.1239  0.9786
22686SOL     OW80035  10.266   1.924   4.784 -0.1678  0.3376  0.2209
22686SOL    HW180036  10.281   2.012   4.818 -0.5709  1.0917 -1.4873
22686SOL    HW280037  10.186   1.895   4.828  0.2811  0.5688  1.2275
22687SOL     OW80038   2.591  10.068   8.387  0.2754  0.3393  0.5319
22687SOL    HW180039   2.681  10.099   8.374 -0.1888  1.5913  0.1755
22687SOL    HW280040   2.572  10.017   8.308  0.7361 -0.1291  0.7132
22688SOL     OW80041   0.604   5.006   1.219  0.3119  0.0623 -0.2623
22688SOL    HW180042   0.589   4.997   1.124 -0.8096 -0.1008 -0.0926
22688SOL    HW280043   0.518   4.988   1.258  0.4483  1.4186  0.7214
22689SOL     OW80044   1.061   9.106   0.322 -0.6236 -0.1993 -0.1125
22689SOL    HW180045   1.035   9.148   0.240 -1.5829 -2.5682 -1.1173
22689SOL    HW280046   1.129   9.044   0.297  0.2729  0.1992  1.2044
22690SOL     OW80047   2.178   2.926   9.355  0.1685 -0.1285  0.0062
22690SOL    HW180048   2.200   2.833   9.349 -1.1333 -0.4863  0.3335
22690SOL    HW280049   2.085   2.929   9.331  0.2915  1.1421 -0.3591
22691SOL     OW80050   2.960   9.937  10.196 -0.8743  0.0697 -0.2492
22691SOL    HW180051   3.014  10.013  10.218 -1.9342  0.7994 -0.0987
22691SOL    HW280052   3.000   9.902  10.116  0.3883  0.0090  0.3946
22692SOL     OW80053   4.395   4.398   9.398 -0.1280  0.0593 -0.3549
22692SOL    HW180054   4.347   4.479   9.382 -2.0224 -0.8217  0.4594
22692SOL    HW280055   4.447   4.384   9.319  0.0490  1.9119 -0.6088
22693SOL     OW80056   9.753   9.075   4.695 -0.1566  0.6619  0.2095
22693SOL    HW180057   9.825   9.039   4.643 -1.9690 -1.6079 -0.9222
22693SOL    HW280058   9.725   9.152   4.646  0.4679  0.6383 -0.2033
22694SOL     OW80059   6.336   0.014   8.237  0.0937  0.0459  0.2529
22694SOL    HW180060   6.322  -0.026   8.151  0.1300  2.1622 -0.8127
22694SOL    HW280061   6.265  -0.019   8.291 -1.5523  0.7581 -1.3880
22695SOL     OW80062   8.920   7.704   5.043 -0.5553 -0.7122 -0.2196
22695SOL    HW180063   8.834   7.744   5.059 -1.1253 -0.5844 -2.9521
22695SOL    HW280064   8.979   7.777   5.031 -0.8418 -0.6676 -1.6494
22696SOL     OW80065   9.591   8.524   4.761 -0.1121  0.5315 -0.2904
22696SOL    HW180066   9.633   8.515   4.676  2.2746 -1.9112  0.9965
22696SOL    HW280067   9.638   8.595   4.804 -0.5709  1.0156 -0.5757
22697SOL     OW80068   6.281   1.665   6.197 -0.2667  0.4992 -0.3412
22697SOL    HW180069   6.199   1.638   6.157  1.8809 -2.7984 -3.0966
22697SOL    HW280070   6.271   1.643   6.290 -2.3631  0.0394 -0.6266
22698SOL     OW80071   6.217   5.842   8.387 -0.1457  0.6156  0.0251
22698SOL    HW180072   6.222   5.846   8.483 -1.6658 -1.9005  0.2844
22698SOL    HW280073   6.308   5.837   8.359  0.3293  1.4837  1.3024
22699SOL     OW80074   5.856   6.852   1.236  0.2018 -0.1030  0.4202
22699SOL    HW180075   5.886   6.942   1.254 -0.2790  0.1213  0.1221
22699SOL    HW280076   5.815   6.857   1.149  1.8783 -1.0221 -0.4815
22700SOL     OW80077   8.939   6.187   1.238  0.3315 -0.1733 -0.4379
22700SOL    HW180078   9.012   6.249   1.243  1.0631 -1.0754  0.5105
22700SOL    HW280079   8.898   6.205   1.153  0.9766  1.0874 -0.5081
22701SOL     OW80080   8.220   2.740   6.390  0.1590 -0.0856 -0.3029
22701SOL    HW180081   8.272   2.684   6.332  0.2139  0.0522 -0.3880
22701SOL    HW280082   8.273   2.749   6.469 -0.4923 -1.3484  0.2981
22702SOL     OW80083   3.580   7.726   3.204  0.1992  0.6027  0.0324
22702SOL    HW180084   3.554   7.636   3.225  0.4181  0.5476  0.0738
22702SOL    HW280085   3.579   7.771   3.288  2.5173  0.0154  0.4377
22703SOL     OW80086   1.694   0.070   0.116 -0.4904  0.2233  0.1982
22703SOL    HW180087   1.786   0.066   0.140 -0.5828  1.7308  0.8907
22703SOL    HW280088   1.671   0.162   0.122 -1.9018 -0.0480 -0.5569
22704SOL     OW80089   8.192   9.726   5.540 -0.3451  0.2936  0.1761
22704SOL    HW180090   8.243   9.797   5.499  0.2223 -0.1314  0.1343
22704SOL    HW280091   8.238   9.709   5.623  0.0316 -0.6098 -0.2114
22705SOL     OW80092   1.240   0.092   3.309  0.1592  0.3675 -0.1351
22705SOL    HW180093   1.265   0.126   3.223 -1.3569  1.5771 -0.1580
22705SOL    HW280094   1.151   0.124   3.322  0.0061 -0.5962  1.4881
22706SOL     OW80095   8.498   9.534   5.383  0.0419 -0.1333 -0.3509
22706SOL    HW180096   8.550   9.507   5.458  0.7163  0.8901 -0.4337
22706SOL    HW280097   8.413   9.492   5.397  1.1341 -2.6135 -0.7063
22707SOL     OW80098   7.591   3.279   4.045 -0.3883  0.4899 -0.3000
22707SOL    HW180099   7.614   3.213   4.111 -0.2314 -0.5382 -1.3432
22707SOL    HW280100   7.660   3.345   4.051  1.0911 -0.9094 -1.1830
22708SOL     OW80101   9.204   5.357   3.637  0.1974  0.2469 -0.6243
22708SOL    HW180102   9.155   5.318   3.565 -0.1077 -1.4565  0.4564
22708SOL    HW280103   9.287   5.309   3.639  0.6458  1.0015 -0.4895
22709SOL     OW80104   5.629   8.024   6.694 -0.4348  0.0734  0.0739
22709SOL    HW180105   5.565   8.049   6.760  0.5643  0.0642  1.0637
22709SOL    HW280106   5.674   7.948   6.730  1.4600  1.2249  0.3036
22710SOL     OW80107   7.621   5.443   8.872 -0.1675 -0.0589  0.1948
22710SOL    HW180108   7.650   5.519   8.921  2.0668 -0.5807 -0.1629
22710SOL    HW280109   7.600   5.476   8.785 -0.0881  0.2881  0.3092
22711SOL     OW80110   2.438   1.511   9.677  0.3985 -0.1164  0.2313
22711SOL    HW180111   2.389   1.429   9.668 -0.6311  0.7338 -3.0655
22711SOL    HW280112   2.372   1.580   9.666  1.5436  1.1866  1.1115
22712SOL     OW80113   9.943   0.453   7.546  0.1832  0.0037 -0.1390
22712SOL    HW180114  10.011   0.502   7.500 -0.4158  0.3717 -0.6409
22712SOL    HW280115   9.975   0.447   7.636  1.0465 -0.1340 -0.4414
22713SOL     OW80116   0.472   9.950   9.539 -0.1640  0.0310 -0.5038
22713SOL    HW180117   0.383   9.985   9.544  0.2760  0.9485  2.0154
22713SOL    HW280118   0.469   9.869   9.590  0.1559 -0.7119 -1.6177
22714SOL     OW80119   5.943   4.494   7.586  0.2260 -0.6209  0.5045
22714SOL    HW180120   5.928   4.534   7.671  0.0035 -1.6727  0.9763
22714SOL    HW280121   6.015   4.543   7.548 -1.3934  1.6237  0.1243
22715SOL     OW80122   1.874   4.796   8.560  0.0756  0.4327 -0.1796
22715SOL    HW180123   1.918   4.729   8.611  1.2904  0.4848 -1.1009
22715SOL    HW280124   1.815   4.748   8.501 -0.0221  0.2675  0.0533
22716SOL     OW80125   3.714   7.385   4.245  0.3300 -0.2963 -0.4590
22716SOL    HW180126   3.740   7.301   4.207  0.5555 -0.9261  0.9843
22716SOL    HW280127   3.791   7.441   4.235  0.7056 -0.7411 -0.1670
22717SOL     OW80128   6.737   3.681   6.609  0.8429 -0.2174  0.4243
22717SOL    HW180129   6.650   3.667   6.571  0.6950 -0.4788  0.8501
22717SOL    HW280130   6.783   3.734   6.544  0.3877 -0.1315  0.1631
22718SOL     OW80131   4.917   4.603   8.021  0.3495 -0.4571 -0.0677
22718SOL    HW180132   4.855   4.616   8.094  0.0619 -0.0816 -0.3765
22718SOL    HW280133   4.882   4.528   7.973  0.6001 -0.7769  0.2338
22719SOL     OW80134   2.731   0.935   0.831 -0.7329  0.0830  0.0779
22719SOL    HW180135   2.660   0.960   0.890  1.4586 -0.3598  3.1417
22719SOL    HW280136   2.746   0.842   0.850 -0.6737 -0.4057 -2.0996
22720SOL     OW80137   6.567   0.484   5.790 -0.1436  0.2346 -0.0502
22720SOL    HW180138   6.559   0.393   5.817  1.0682  0.0472 -0.2973
22720SOL    HW280139   6.487   0.500   5.739 -0.6573 -0.4963  0.5023
22721SOL     OW80140   8.655   5.844   3.340  0.0758  0.0952  0.3454
22721SOL    HW180141   8.724   5.802   3.289  0.1560  1.2441 -0.5341
22721SOL    HW280142   8.675   5.821   3.431  0.8636 -0.6489  0.0016
22722SOL     OW80143  10.333  10.265   1.570  0.1466  0.1548  0.0968
22722SOL    HW180144  10.322  10.170   1.574 -0.0511  0.1900  0.4259
22722SOL    HW280145  10.275  10.299   1.638 -0.8851  0.6014 -0.9604
22723SOL     OW80146   5.081   0.318   3.273  0.5399 -0.2667  0.1579
22723SOL    HW180147   5.053   0.373   3.346 -2.1085 -1.2439 -0.0191
22723SOL    HW280148   5.128   0.377   3.215  0.5897  1.0625  1.5029
22724SOL     OW80149   1.117   3.852  10.358 -0.0728 -0.6303  0.0051
22724SOL    HW180150   1.050   3.891  10.413  0.2082 -0.5153  0.2670
22724SOL    HW280151   1.071   3.829  10.277 -0.3452 -0.2104  0.0387
22725SOL     OW80152   5.571   9.411   1.931 -0.6224 -0.0627 -0.0160
22725SOL    HW180153   5.614   9.345   1.985 -3.6915 -1.3339  1.0661
22725SOL    HW280154   5.580   9.379   1.841  2.0967  0.6566 -0.1044
22726SOL     OW80155  10.255  10.095   6.519  0.2798 -0.2242  0.1375
22726SOL    HW180156  10.195  10.163   6.551  1.9225  1.4248 -0.0833
22726SOL    HW280157  10.216  10.013   6.548 -2.6434  0.6514 -0.8991
22727SOL     OW80158   1.443   2.044   8.969 -0.3855  0.5493 -0.0047
22727SOL    HW180159   1.451   2.067   9.062  0.3895 -0.5113  0.2142
22727SOL    HW280160   1.475   1.954   8.964 -1.6947  0.1203 -1.0931
22728SOL     OW80161   8.431   6.635   1.001 -0.4087  0.3723 -0.1947
22728SOL    HW180162   8.469   6.717   1.031  0.3824 -0.1858  0.3687
22728SOL    HW280163   8.380   6.603   1.076 -0.0796 -0.0281 -0.1378
22729SOL     OW80164   8.802   5.311   4.975  0.1418  0.1209  0.3540
22729SOL    HW180165   8.848   5.302   4.892  0.8580  2.7508  0.3920
22729SOL    HW280166   8.862   5.272   5.039 -0.3742 -1.8315 -0.2569
22730SOL     OW80167   0.942   0.499   1.483 -0.1404 -0.3420  0.1599
22730SOL    HW180168   0.867   0.444   1.508 -0.7844  0.3767 -0.1218
22730SOL    HW280169   0.978   0.456   1.406 -2.2276  0.9091 -1.6677
22731SOL     OW80170   7.924   7.956   1.699  0.1240  0.2407 -0.1838
22731SOL    HW180171   7.870   7.950   1.778 -1.0114  2.2155 -0.7493
22731SOL    HW280172   7.879   7.900   1.635  0.8620 -1.0907  0.4140
22732SOL     OW80173   4.108   8.270   8.362 -0.2845 -0.3835 -0.6283
22732SOL    HW180174   4.078   8.228   8.443  1.0781  0.0372  0.1398
22732SOL    HW280175   4.029   8.305   8.322 -0.9183  0.0526  0.9219
22733SOL     OW80176  10.055   6.475   4.689 -0.2256  0.0934 -0.0954
22733SOL    HW180177   9.967   6.478   4.728 -0.3680 -0.1088 -0.3929
22733SOL    HW280178  10.056   6.393   4.639 -0.8462  1.3754 -2.3693
22734SOL     OW80179   6.691   1.910   7.877  0.4487 -0.2121 -0.0485
22734SOL    HW180180   6.681   1.959   7.795 -0.8677  0.2985  0.3864
22734SOL    HW280181   6.722   1.824   7.851 -2.4030 -0.9677 -1.4047
22735SOL     OW80182   6.085   9.712   4.764  0.4064  0.2373  0.0873
22735SOL    HW180183   6.080   9.798   4.721  0.6011 -0.5184 -1.5108
22735SOL    HW280184   6.065   9.649   4.695 -0.3520 -0.9944  1.3749
22736SOL     OW80185   9.676  10.194   5.018 -0.1865  0.2705  0.1686
22736SOL    HW180186   9.734  10.186   5.094  1.1576 -0.1813 -0.8710
22736SOL    HW280187   9.668  10.289   5.004 -1.4442  0.4250  1.5568
22737SOL     OW80188   6.500   7.048   9.212 -0.0114 -0.1006 -0.3118
22737SOL    HW180189   6.553   7.026   9.289  0.5164 -0.9628 -0.9180
22737SOL    HW280190   6.502   7.144   9.209  1.3650 -0.1111 -0.2140
22738SOL     OW80191   1.738   7.436   1.937  0.0738 -0.6289 -0.1556
22738SOL    HW180192   1.770   7.507   1.992  1.2014 -2.5308  1.7582
22738SOL    HW280193   1.807   7.424   1.871  1.6792 -2.2872  1.7328
22739SOL     OW80194   1.463   9.466  10.181 -0.5748 -0.5389  0.4440
22739SOL    HW180195   1.404   9.392  10.191 -0.1537 -1.3872 -2.5590
22739SOL    HW280196   1.535   9.433  10.127  0.7964  1.4724  0.9015
22740SOL     OW80197  10.363   9.549   1.452  0.2613  0.5906 -0.3271
22740SOL    HW180198  10.395   9.595   1.374 -2.6300  1.4532 -1.1227
22740SOL    HW280199  10.296   9.490   1.418 -0.3862  0.2887  1.4228
22741SOL     OW80200   0.904   1.175   2.726  0.4132 -0.3677  0.4100
22741SOL    HW180201   0.953   1.146   2.649 -0.7482 -2.0245  0.2565
22741SOL    HW280202   0.874   1.263   2.702  2.3031  0.2466  0.0720
22742SOL     OW80203   7.716   9.833   2.991  0.2668 -0.2878  0.2597
22742SOL    HW180204   7.771   9.872   2.922  0.1907 -0.5743  0.0371
22742SOL    HW280205   7.637   9.805   2.946 -0.2236  0.4396  0.6430
22743SOL     OW80206   8.024   4.143   8.348 -0.3995  0.0083 -0.6891
22743SOL    HW180207   8.084   4.150   8.275  2.5505 -0.1345  1.5237
22743SOL    HW280208   8.051   4.063   8.394 -2.6534 -0.3586  0.1561
22744SOL     OW80209   4.513   7.066   4.720  0.2551 -0.0424 -0.0617
22744SOL    HW180210   4.455   7.009   4.669  1.4668 -1.4723  0.0943
22744SOL    HW280211   4.458   7.096   4.792 -1.2914  1.4668 -1.7583
22745SOL     OW80212   5.106   3.154   6.531 -0.7746  0.0245 -0.1948
22745SOL    HW180213   5.199   3.147   6.551 -0.8804  0.7493  0.6232
22745SOL    HW280214   5.067   3.193   6.609 -1.6161  0.6170 -0.8794
22746SOL     OW80215   6.302   7.368   8.164 -0.3048  0.5245 -0.4670
22746SOL    HW180216   6.218   7.386   8.122 -0.5880 -2.1069 -1.2067
22746SOL    HW280217   6.341   7.298   8.112  2.0058  1.0840  0.3554
22747SOL     OW80218   5.708   2.342   0.112  0.4311 -0.2966  0.6519
22747SOL    HW180219   5.766   2.405   0.070 -1.9508  2.1708  0.7112
22747SOL    HW280220   5.747   2.328   0.199  2.0527 -0.4776 -0.0758
22748SOL     OW80221   1.226   0.384   7.044  0.2305 -0.2999  0.7808
22748SOL    HW180222   1.313   0.423   7.060  0.6942 -1.4707  1.2515
22748SOL    HW280223   1.165   0.454   7.066  1.0444  0.2829  1.2903
22749SOL     OW80224   9.153   2.966   8.623  0.5021 -0.6303  0.6568
22749SOL    HW180225   9.102   3.024   8.566  0.8448 -1.9135 -1.0579
22749SOL    HW280226   9.217   3.024   8.664 -0.9899  0.6639  1.2826
22750SOL     OW80227   3.361   3.793   3.058  0.2996  0.5205 -0.0266
22750SOL    HW180228   3.400   3.747   3.132 -1.9612  1.1143  1.6461
22750SOL    HW280229   3.367   3.731   2.985 -1.5594 -2.0582  1.8239
22751SOL     OW80230   8.794   8.550   9.592 -0.0281  0.1529 -0.1282
22751SOL    HW180231   8.815   8.604   9.668  1.7231 -0.2080 -0.3140
22751SOL    HW280232   8.863   8.569   9.529 -1.4000  0.3890 -1.6366
22752SOL     OW80233   1.060  10.009   9.196 -0.0241 -0.0514  0.2130
22752SOL    HW180234   1.116  10.006   9.119  1.0201  0.2299  0.9500
22752SOL    HW280235   0.972  10.023   9.161  0.6166  1.4466 -0.8524
22753SOL     OW80236   0.754   4.828   6.179  0.3646 -0.4497  0.1710
22753SOL    HW180237   0.815   4.864   6.243  1.1532 -3.2584  1.1452
22753SOL    HW280238   0.679   4.799   6.231  1.1951 -3.1499 -0.0307
22754SOL     OW80239   3.430  10.286   1.627  0.4471 -0.1964  0.2892
22754SOL    HW180240   3.516  10.322   1.607  0.8954 -0.8645  0.9780
22754SOL    HW280241   3.369  10.340   1.577  1.1686  1.0162  0.6862
22755SOL     OW80242   0.362   2.721   3.248 -0.2733  0.3120 -0.2334
22755SOL    HW180243   0.381   2.664   3.322  0.1983  1.1499  0.3021
22755SOL    HW280244   0.398   2.806   3.273  0.7848  0.3881 -1.8195
22756SOL     OW80245   5.249   6.959   6.367 -0.2686 -0.1938  0.1443
22756SOL    HW180246   5.299   7.018   6.310 -0.1522 -0.3956  0.0371
22756SOL    HW280247   5.195   6.908   6.307  0.1208 -0.6601  0.1846
22757SOL     OW80248   1.896   7.348   9.254  0.1741  0.4727 -0.0790
22757SOL    HW180249   1.820   7.290   9.243  1.1607 -0.4938 -2.4538
22757SOL    HW280250   1.861   7.436   9.239 -0.9237  0.3380  1.4385
22758SOL     OW80251   4.773   0.877   6.937  0.2010  0.3852 -0.0152
22758SOL    HW180252   4.814   0.961   6.916  1.4172 -0.5951 -1.8475
22758SOL    HW280253   4.715   0.896   7.011  0.8984  2.6897  0.0097
22759SOL     OW80254   7.260   5.423   4.709  0.0061 -0.5006 -0.0030
22759SOL    HW180255   7.297   5.336   4.727 -0.8292 -0.6847  0.9501
22759SOL    HW280256   7.331   5.484   4.728 -0.3164 -0.7845  2.5648
22760SOL     OW80257   8.139   9.195   5.587 -0.4078 -0.5372 -0.1649
22760SOL    HW180258   8.228   9.162   5.597  0.3220  1.1716 -0.5532
22760SOL    HW280259   8.083   9.121   5.608  1.0879 -1.2258  1.6372
22761SOL     OW80260   1.604   6.137   1.317  0.3400  0.3289  0.4174
22761SOL    HW180261   1.690   6.172   1.336 -0.1496  1.7222  0.1897
22761SOL    HW280262   1.560   6.132   1.402  0.0317  1.3550  0.3284
22762SOL     OW80263   5.079   9.543   2.206  0.3087  0.0441 -0.3265
22762SOL    HW180264   5.048   9.623   2.250 -1.9164 -0.5851 -0.5949
22762SOL    HW280265   5.109   9.572   2.121 -0.2577  0.6428 -0.3313
22763SOL     OW80266   9.321   5.476   3.338  0.2410  0.2673  0.3784
22763SOL    HW180267   9.331   5.400   3.281  1.8442  1.3829 -0.9198
22763SOL    HW280268   9.266   5.536   3.289  0.1024  0.4982  0.8133
22764SOL     OW80269   7.084   0.557   3.446  1.2265 -0.7570  0.2214
22764SOL    HW180270   7.136   0.578   3.368  1.1407 -1.4116 -0.0195
22764SOL    HW280271   7.039   0.638   3.467  0.8981 -0.6957 -0.6883
22765SOL     OW80272   9.312   2.671   1.686 -0.5617  0.4158  0.0219
22765SOL    HW180273   9.360   2.624   1.754 -1.2899 -0.8983 -0.3266
22765SOL    HW280274   9.379   2.708   1.629  0.0440 -0.8859 -0.1322
22766SOL     OW80275   0.261   3.232   9.534  0.0507 -0.2150  0.2695
22766SOL    HW180276   0.325   3.160   9.536 -0.0920 -0.3355  1.2664
22766SOL    HW280277   0.185   3.197   9.579  0.2354  0.7843  1.4114
22767SOL     OW80278   3.560   2.606   2.702  0.0758  0.1915  0.5482
22767SOL    HW180279   3.640   2.562   2.674 -1.4497 -2.3930 -0.1092
22767SOL    HW280280   3.492   2.573   2.644 -1.4559  2.6222  0.7951
22768SOL     OW80281   5.965   9.260  10.086 -0.3444 -0.5475  0.3967
22768SOL    HW180282   5.925   9.181  10.122 -0.3356 -0.9301 -0.3994
22768SOL    HW280283   5.979   9.317  10.162 -3.7337  0.2559  0.5970
22769SOL     OW80284   8.087   8.024   3.882  0.5061 -0.0486  0.1168
22769SOL    HW180285   8.148   8.055   3.949  0.1925 -0.3297  0.5386
22769SOL    HW280286   8.075   8.099   3.824 -0.1102  0.5905  1.0322
22770SOL     OW80287   9.806   0.918   9.915  0.7053  0.2184  0.2359
22770SOL    HW180288   9.816   0.991   9.977  1.2646  0.1834  0.1973
22770SOL    HW280289   9.791   0.842   9.970 -1.3901  0.5739  0.2257
22771SOL     OW80290   9.435   5.835   3.529  0.0736 -0.3651 -0.1199
22771SOL    HW180291   9.426   5.913   3.583 -0.6759  1.1336 -2.2699
22771SOL    HW280292   9.371   5.774   3.564  0.5169  0.0324  1.4606
22772SOL     OW80293   3.069   8.028   1.493  0.1880 -0.7982  0.2726
22772SOL    HW180294   2.990   8.053   1.446  0.5179 -0.6806 -0.2242
22772SOL    HW280295   3.054   8.058   1.583  0.5710  1.2490 -0.2815
22773SOL     OW80296   4.678   9.239   0.836 -0.4284  0.8708 -0.0700
22773SOL    HW180297   4.622   9.162   0.828 -0.6932  0.9581  0.8234
22773SOL    HW280298   4.622   9.312   0.806 -1.0220  1.0393  1.3549
22774SOL     OW80299   0.390   4.749  10.041  0.4155  0.4220  0.0775
22774SOL    HW180300   0.478   4.745  10.003  0.4292  0.8703  0.0615
22774SOL    HW280301   0.400   4.804  10.119  0.3309 -0.2561  0.5822
22775SOL     OW80302   0.004   4.375   2.626 -0.2195 -0.2566  0.2137
22775SOL    HW180303  -0.058   4.435   2.584  0.4457 -0.4468 -1.0740
22775SOL    HW280304  -0.011   4.388   2.720  1.7980  4.0759  0.1903
22776SOL     OW80305   3.433   0.249   0.626  0.0224 -0.2397  0.2836
22776SOL    HW180306   3.421   0.268   0.719 -0.1332  1.3185 -0.0199
22776SOL    HW280307   3.344   0.241   0.592  0.0605 -0.1294  0.1570
22777SOL     OW80308   6.811  10.092   4.768  0.0983  0.0782 -0.1482
22777SOL    HW180309   6.779  10.160   4.709 -0.8429 -0.7608 -0.6431
22777SOL    HW280310   6.888  10.130   4.810  0.9289  0.6240 -2.0792
22778SOL     OW80311   7.701   0.385   0.787  0.3169  0.7538 -0.2043
22778SOL    HW180312   7.613   0.415   0.760 -0.0395  0.4658  0.6127
22778SOL    HW280313   7.737   0.459   0.837 -0.1662  0.2289  0.9557
22779SOL     OW80314   4.135   8.162   3.843  0.0315  0.4842  0.2050
22779SOL    HW180315   4.185   8.082   3.858 -0.8762  0.2247  2.2300
22779SOL    HW280316   4.055   8.132   3.800  0.4428  0.5447 -0.6111
22780SOL     OW80317   0.877   9.644   0.958  0.5577 -0.2145 -1.0743
22780SOL    HW180318   0.906   9.696   1.033  1.3745  0.5448 -1.9002
22780SOL    HW280319   0.875   9.554   0.992 -1.3600  0.3593  0.5093
22781SOL     OW80320   4.062   7.186   2.141  0.4579 -0.7250  0.3750
22781SOL    HW180321   4.096   7.112   2.090  0.3457 -0.7310  0.3080
22781SOL    HW280322   4.138   7.243   2.153  0.8327 -1.4242  1.4619
22782SOL     OW80323   0.035   9.884   9.405 -0.8453  0.9365  0.1707
22782SOL    HW180324   0.013   9.791   9.405 -2.1191  1.2016  1.1821
22782SOL    HW280325  -0.031   9.925   9.349  0.9175  1.0304 -1.9466
22783SOL     OW80326   2.724   5.873   0.706 -0.6145 -0.1228 -0.1924
22783SOL    HW180327   2.634   5.883   0.737  0.0223  0.0583  1.7077
22783SOL    HW280328   2.742   5.780   0.715 -0.3320 -0.0256  0.2943
22784SOL     OW80329   9.174   5.859   9.567 -0.3075 -0.2018  0.0101
22784SOL    HW180330   9.147   5.927   9.505 -1.8020 -1.0141 -0.2820
22784SOL    HW280331   9.253   5.821   9.528 -2.3746 -2.1577 -2.6519
22785SOL     OW80332   9.319   0.614   1.806 -0.0048 -0.1893 -0.1012
22785SOL    HW180333   9.351   0.526   1.826  2.1678  0.3077 -1.1283
22785SOL    HW280334   9.316   0.617   1.710 -0.6702  0.6498 -0.0610
22786SOL     OW80335   6.305   1.265   5.338 -0.5243 -0.6107  0.6455
22786SOL    HW180336   6.234   1.319   5.304  0.2157  0.4434  0.7278
22786SOL    HW280337   6.270   1.228   5.419 -0.1373  2.0264  2.1304
22787SOL     OW80338   3.183   5.256   7.215  0.2153  0.4215  0.5933
22787SOL    HW180339   3.226   5.252   7.301 -0.8360  0.6427  1.1396
22787SOL    HW280340   3.113   5.320   7.226  0.7403  1.2787 -0.7488
22788SOL     OW80341   2.440   2.887   9.095  0.1973  0.4326 -0.2316
22788SOL    HW180342   2.356   2.916   9.060 -0.8499 -1.5360  0.4868
22788SOL    HW280343   2.428   2.793   9.112  3.3714 -0.5606 -2.5252
22789SOL     OW80344   0.851   9.442   6.130 -0.6882  0.2659  0.1519
22789SOL    HW180345   0.907   9.386   6.183 -0.8216 -0.0160 -0.0040
22789SOL    HW280346   0.771   9.453   6.182 -0.8585 -0.0917 -0.0351
22790SOL     OW80347   8.254   6.906   8.172 -0.2146 -0.0192 -0.0018
22790SOL    HW180348   8.283   6.828   8.125  0.0413  0.0096  0.1029
22790SOL    HW280349   8.289   6.894   8.261  2.0250  1.3869 -0.6043
22791SOL     OW80350   0.459   3.310   5.119  0.1090 -0.1613 -0.1276
22791SOL    HW180351   0.498   3.229   5.087 -1.1637 -0.2253 -1.6259
22791SOL    HW280352   0.459   3.369   5.043 -1.1123  0.4162  0.2899
22792SOL     OW80353   6.587   3.306   4.938  0.1969 -0.2928  0.6983
22792SOL    HW180354   6.543   3.264   4.865 -1.8129  0.9083  1.1510
22792SOL    HW280355   6.541   3.389   4.951  1.1469  0.0144  2.6687
22793SOL     OW80356   0.201   1.998   9.792 -0.2435  0.6720  0.1993
22793SOL    HW180357   0.210   1.903   9.787 -1.6248  0.5268  0.2456
22793SOL    HW280358   0.148   2.022   9.717 -0.3818  1.3453  0.4976
22794SOL     OW80359   1.036  10.239   1.504 -0.3186  0.3180 -0.0465
22794SOL    HW180360   0.993  10.199   1.580  1.6064  0.4607  1.1828
22794SOL    HW280361   1.024  10.174   1.434 -2.1543  0.1996  0.3067
22795SOL     OW80362   0.393   3.472   8.021 -0.0542 -0.4518 -0.1194
22795SOL    HW180363   0.350   3.507   8.099  0.6633 -0.4421  0.2897
22795SOL    HW280364   0.325   3.470   7.954 -0.5389  0.0865  0.3450
22796SOL     OW80365   5.589   1.845   8.707  0.0101  0.5223  0.0382
22796SOL    HW180366   5.499   1.866   8.682  0.6476  1.0240 -2.0363
22796SOL    HW280367   5.597   1.876   8.797 -1.1787  2.9136 -0.5868
22797SOL     OW80368   5.528   9.214   0.624  0.5355  0.1589  0.4148
22797SOL    HW180369   5.506   9.197   0.715 -0.4681  2.4735  0.6537
22797SOL    HW280370   5.564   9.303   0.623 -0.4169  0.5805 -1.5705
22798SOL     OW80371   8.397   9.977   5.534  0.4649  0.0304 -0.0728
22798SOL    HW180372   8.386  10.012   5.622 -0.4296 -0.9943  0.2509
22798SOL    HW280373   8.355  10.041   5.477  0.0392  0.1507  0.3658
22799SOL     OW80374   2.086   0.828   0.279 -0.5121  0.3167 -0.1106
22799SOL    HW180375   2.025   0.837   0.353 -0.7598 -2.2156  0.1057
22799SOL    HW280376   2.046   0.761   0.224  0.0462  1.6303 -2.2038
22800SOL     OW80377   5.428   8.450   1.337  0.0007  0.5150 -0.0780
22800SOL    HW180378   5.506   8.500   1.362  0.4327 -0.1516 -0.0738
22800SOL    HW280379   5.419   8.466   1.243 -1.9188  3.4409  0.4740
22801SOL     OW80380   8.674   1.902   2.051  1.0099  0.7505 -0.7674
22801SOL    HW180381   8.750   1.887   1.996  0.1269  1.1901 -2.1593
22801SOL    HW280382   8.699   1.868   2.137  2.1248 -0.7344 -1.6341
22802SOL     OW80383   4.966   9.009   9.937 -0.0329  0.2064  0.1560
22802SOL    HW180384   4.898   9.072   9.962  0.5395  0.1843  1.9533
22802SOL    HW280385   5.048   9.059   9.940  0.1352  0.0683 -1.3269
22803SOL     OW80386   9.139   6.686   9.810 -0.1759 -0.1789  0.0638
22803SOL    HW180387   9.079   6.667   9.738 -1.6386  1.0458  0.8858
22803SOL    HW280388   9.214   6.628   9.795  0.2158  0.9410 -3.1881
22804SOL     OW80389   1.641   0.666   0.157  0.4035 -0.4087 -0.0305
22804SOL    HW180390   1.732   0.658   0.129  0.8083  0.9256  0.8230
22804SOL    HW280391   1.617   0.755   0.134 -0.3763 -0.4359  0.6587
22805SOL     OW80392   4.586   0.091   0.806  0.1301 -0.2775  0.5407
22805SOL    HW180393   4.674   0.071   0.837  0.5479  0.4798 -0.1123
22805SOL    HW280394   4.528   0.044   0.866  0.9671 -0.5261  1.1742
22806SOL     OW80395   2.159   0.646   9.695  0.2141  0.5813  0.2345
22806SOL    HW180396   2.073   0.612   9.717  0.5491 -0.8911 -0.5609
22806SOL    HW280397   2.158   0.737   9.725 -1.9361  0.8874 -0.6213
22807SOL     OW80398   3.751   4.667   3.694  0.0060  0.1996  0.0332
22807SOL    HW180399   3.733   4.575   3.713  0.7469 -0.0280 -0.3250
22807SOL    HW280400   3.845   4.671   3.677 -0.2260  0.7651 -1.3262
22808SOL     OW80401   8.265   8.435   8.570  0.4745 -0.1632  0.4495
22808SOL    HW180402   8.174   8.460   8.585  0.8701 -0.1363  3.3815
22808SOL    HW280403   8.275   8.438   8.475 -2.8354 -1.1378 -0.0644
22809SOL     OW80404   9.370   2.231   5.593 -0.1300  0.0301  0.6079
22809SOL    HW180405   9.287   2.249   5.549  0.2987  0.7783  0.0821
22809SOL    HW280406   9.437   2.264   5.533  0.7476 -2.9737 -0.2928
22810SOL     OW80407   6.896   1.705   6.708 -0.0413  0.3018  0.2162
22810SOL    HW180408   6.820   1.686   6.653  1.1851 -0.6920 -1.1877
22810SOL    HW280409   6.908   1.625   6.760  0.7392 -0.0090 -0.4275
22811SOL     OW80410   2.462   1.777   4.686  0.2399  0.3135  0.4785
22811SOL    HW180411   2.478   1.712   4.617 -0.5463  0.9117 -0.3019
22811SOL    HW280412   2.541   1.831   4.687 -0.2774  1.1706 -0.9735
22812SOL     OW80413   3.597   0.239   1.574  0.1390 -0.1068  0.3996
22812SOL    HW180414   3.606   0.143   1.571 -1.8445 -0.3306 -0.1877
22812SOL    HW280415   3.685   0.271   1.593  1.3908 -1.9232 -1.8346
22813SOL     OW80416   6.472   4.448   1.814  0.2144 -0.3142  0.2689
22813SOL    HW180417   6.493   4.538   1.789  1.5166 -0.4580  0.7724
22813SOL    HW280418   6.431   4.456   1.900 -2.5634  0.0218 -0.9759
22814SOL     OW80419   8.440   3.482   6.764 -0.4114 -0.1485  0.0845
22814SOL    HW180420   8.396   3.417   6.819  1.5582  0.0642  2.0763
22814SOL    HW280421   8.509   3.433   6.720 -0.7918  0.0595 -0.7696
22815SOL     OW80422   6.214   1.355   5.804  0.0912  0.2463 -0.3429
22815SOL    HW180423   6.300   1.391   5.828  0.1805  0.0124 -0.3089
22815SOL    HW280424   6.197   1.391   5.716  1.0756 -1.1753 -1.1489
22816SOL     OW80425   5.119   0.697   8.627  0.0849  0.0866  0.6741
22816SOL    HW180426   5.067   0.770   8.662  0.2669  0.0288  1.0813
22816SOL    HW280427   5.067   0.619   8.645 -0.3942  0.1652 -0.3219
22817SOL     OW80428   9.466   0.439   7.221  0.6452  0.0553  0.2748
22817SOL    HW180429   9.527   0.389   7.274  1.3108  0.4440 -0.1153
22817SOL    HW280430   9.520   0.503   7.174 -0.1954  1.2455  0.8686
22818SOL     OW80431   3.975   3.992   6.918  0.4707  0.2257  0.0457
22818SOL    HW180432   3.961   4.085   6.903  0.7252  0.2164 -0.2534
22818SOL    HW280433   3.976   3.983   7.013 -2.4852  0.0859  0.1411
22819SOL     OW80434   2.754   8.502  10.084 -0.1955 -0.1024  0.1886
22819SOL    HW180435   2.848   8.488  10.097 -0.2247  0.2909  0.8580
22819SOL    HW280436   2.729   8.439  10.016  0.6502  0.1470 -0.3635
22820SOL     OW80437   9.674   1.015   6.051  0.0422 -0.2112 -0.0328
22820SOL    HW180438   9.747   1.055   6.003  0.1035  0.5040  0.6410
22820SOL    HW280439   9.668   1.066   6.132 -2.9464  1.6083 -1.2054
22821SOL     OW80440   3.639   9.833   6.897  0.2741  0.3476 -0.3453
22821SOL    HW180441   3.626   9.738   6.890  1.0332  0.2655 -0.6817
22821SOL    HW280442   3.691   9.856   6.820  0.7134  0.9281  0.1130
22822SOL     OW80443   9.253   4.874   6.303  0.9601  0.3842 -0.0626
22822SOL    HW180444   9.236   4.866   6.209  1.8102 -0.5919 -0.1502
22822SOL    HW280445   9.173   4.911   6.339  0.6431  0.8159 -1.1833
22823SOL     OW80446   3.465   3.539   1.378  0.0194 -0.6681  0.2978
22823SOL    HW180447   3.516   3.521   1.299  1.0284  1.1329  0.4864
22823SOL    HW280448   3.436   3.630   1.367 -1.0526 -0.8715  1.3426
22824SOL     OW80449   9.696   5.079   9.889  0.4926  0.1835 -0.1403
22824SOL    HW180450   9.629   5.128   9.937 -0.4425 -0.1276 -1.0863
22824SOL    HW280451   9.667   4.988   9.891  3.0844 -0.7664  3.0775
22825SOL     OW80452   7.104   1.386   0.855 -0.1904  0.3271 -0.0658
22825SOL    HW180453   7.126   1.299   0.887  0.6022  0.7730  0.6321
22825SOL    HW280454   7.148   1.446   0.914 -0.2750  1.2047 -0.8611
22826SOL     OW80455   1.829   9.024   3.482  0.7935 -0.6667  0.5774
22826SOL    HW180456   1.851   9.066   3.564 -0.5504  0.8623  0.2101
22826SOL    HW280457   1.736   9.001   3.490  1.2929 -3.0185  0.4938
22827SOL     OW80458   6.313   9.431   8.139 -0.4264  0.0268  0.8950
22827SOL    HW180459   6.268   9.511   8.166 -0.3410  0.3613  0.0653
22827SOL    HW280460   6.251   9.386   8.082  0.1414  0.3063  0.0485
22828SOL     OW80461   4.592   6.906   7.969 -0.0120 -0.1571 -0.0150
22828SOL    HW180462   4.610   6.940   7.881 -0.0912  1.3334  0.5072
22828SOL    HW280463   4.633   6.970   8.027  1.2811 -1.8484  1.0477
22829SOL     OW80464   0.300   1.299   1.572  0.0444 -0.1231  0.1799
22829SOL    HW180465   0.300   1.312   1.477 -0.7815  0.1961  0.2186
22829SOL    HW280466   0.221   1.249   1.590  1.6951 -2.8793  0.3793
22830SOL     OW80467   5.358   1.042   6.289 -0.4388 -0.3338 -0.1023
22830SOL    HW180468   5.322   1.120   6.247  1.3123  2.1961  2.7283
22830SOL    HW280469   5.453   1.050   6.279 -0.1982 -3.0127 -1.0254
22831SOL     OW80470   9.242   7.988   6.533  0.2200  0.2792  0.0312
22831SOL    HW180471   9.182   7.921   6.567  0.2168  0.4198  0.3086
22831SOL    HW280472   9.185   8.062   6.513  0.1762  0.0807 -0.6033
22832SOL     OW80473   6.339   2.741   8.042  0.1286 -0.1108  0.2821
22832SOL    HW180474   6.262   2.714   8.092  0.2393 -0.1696  0.4209
22832SOL    HW280475   6.357   2.668   7.984 -0.7364  0.4426 -0.7234
22833SOL     OW80476   2.954   0.678   3.540 -0.5116  0.4347 -0.7060
22833SOL    HW180477   2.908   0.601   3.572  1.1848 -1.2215 -2.0287
22833SOL    HW280478   2.931   0.683   3.447 -0.6302  1.5671 -0.6303
22834SOL     OW80479   0.560   4.014   1.200  0.4459 -0.2049  0.0454
22834SOL    HW180480   0.640   3.968   1.172  1.5567  0.3887  2.0115
22834SOL    HW280481   0.568   4.019   1.295 -2.7081 -1.4411  0.4893
22835SOL     OW80482   8.587   1.273   2.475 -0.6574 -0.7292 -0.0387
22835SOL    HW180483   8.576   1.366   2.494  1.3492 -0.4988  0.1836
22835SOL    HW280484   8.556   1.228   2.553 -1.7424 -0.2805 -0.1896
22836SOL     OW80485   6.033   2.722   7.468 -0.1921 -0.2600 -0.1556
22836SOL    HW180486   6.033   2.786   7.397 -0.0950  0.1928  0.2511
22836SOL    HW280487   6.004   2.771   7.545 -0.8073 -0.8702  0.0099
22837SOL     OW80488   5.169   4.222   9.655  0.1781  0.4319 -0.3189
22837SOL    HW180489   5.081   4.216   9.618  0.0595 -0.3022  0.0548
22837SOL    HW280490   5.226   4.191   9.585 -0.0326 -0.7992  0.0308
22838SOL     OW80491   3.373   9.875   4.145 -0.5025 -0.1899 -0.1599
22838SOL    HW180492   3.377   9.921   4.062 -0.0651 -0.0888 -0.0872
22838SOL    HW280493   3.400   9.940   4.210  0.3984 -0.6162 -0.0918
22839SOL     OW80494   5.248  10.148   0.911 -0.3728  0.6822 -0.0228
22839SOL    HW180495   5.304  10.119   0.983 -1.2708 -0.5873  0.2121
22839SOL    HW280496   5.181  10.079   0.904 -0.1645  0.6353 -2.2354
22840SOL     OW80497   4.180   5.598   0.527  0.0634  0.0206  0.0629
22840SOL    HW180498   4.098   5.580   0.481 -0.1604  0.2460  0.3696
22840SOL    HW280499   4.241   5.532   0.493 -0.3824 -0.4696  0.1952
22841SOL     OW80500   6.486   6.723   6.251 -0.0562 -0.1709 -0.2056
22841SOL    HW180501   6.403   6.700   6.293  0.1835 -0.3526  0.1709
22841SOL    HW280502   6.473   6.699   6.159 -0.8314  0.8936 -0.3867
22842SOL     OW80503   7.339   6.401   4.829 -0.1915  0.2011  0.1618
22842SOL    HW180504   7.431   6.424   4.815 -0.6741  1.2119 -1.6564
22842SOL    HW280505   7.322   6.332   4.764 -0.9723  0.7136 -0.1847
22843SOL     OW80506   9.403   4.396   4.592  0.2419 -0.3046 -0.2527
22843SOL    HW180507   9.361   4.364   4.512 -1.0634 -0.9691  0.6480
22843SOL    HW280508   9.494   4.369   4.584  0.4450  0.7878 -2.0884
22844SOL     OW80509   1.793   7.330   8.936  0.8208  0.1997  0.3088
22844SOL    HW180510   1.735   7.402   8.909  1.1630  0.5309  0.4431
22844SOL    HW280511   1.740   7.251   8.926 -0.0877  0.6078  1.6414
22845SOL     OW80512   7.277   0.440   5.768  0.4204  0.4058 -0.5899
22845SOL    HW180513   7.196   0.491   5.774 -0.5557 -0.9986 -1.1601
22845SOL    HW280514   7.277   0.385   5.847  1.5607  1.4016  0.1225
22846SOL     OW80515   4.125   6.698   5.858  0.5618  0.3657 -0.1873
22846SOL    HW180516   4.168   6.622   5.818 -1.0214 -1.1321  0.8020
22846SOL    HW280517   4.189   6.733   5.920  1.3695 -0.0418 -0.7740
22847SOL     OW80518   6.327   7.346   4.858 -0.2328  0.2346 -0.3149
22847SOL    HW180519   6.420   7.365   4.870 -0.0666  0.9870 -2.4054
22847SOL    HW280520   6.282   7.422   4.894  0.1111  1.1398 -1.7236
22848SOL     OW80521   5.580   8.192   5.133 -0.8410 -0.1717  0.4166
22848SOL    HW180522   5.613   8.282   5.129 -2.2204  0.3117 -0.8974
22848SOL    HW280523   5.585   8.160   5.043  2.1228 -2.4188  1.2181
22849SOL     OW80524   8.163   7.220   2.084  0.2365  0.5254 -0.1252
22849SOL    HW180525   8.144   7.131   2.054  0.8821  0.3903 -0.1475
22849SOL    HW280526   8.097   7.236   2.152  0.0918  0.0427 -0.1437
22850SOL     OW80527   6.053   0.719   0.609 -0.3274 -0.5926 -0.2422
22850SOL    HW180528   5.966   0.733   0.569 -0.0205 -0.3802 -0.8484
22850SOL    HW280529   6.111   0.706   0.534  0.6269  1.7701  0.0286
22851SOL     OW80530   6.894   8.948   1.355 -0.6977 -0.2493  0.3092
22851SOL    HW180531   6.860   8.871   1.402  0.0300 -0.6514  0.1860
22851SOL    HW280532   6.870   8.932   1.263  0.5622 -0.9617  0.0848
22852SOL     OW80533   4.619   5.409   1.911  0.6752  0.2775 -0.3484
22852SOL    HW180534   4.568   5.490   1.921  0.1519  0.0223 -0.9020
22852SOL    HW280535   4.653   5.391   1.999  0.9029  1.1623 -0.2408
22853SOL     OW80536   3.049   3.337   6.199 -0.2096  0.3235 -0.1997
22853SOL    HW180537   3.038   3.345   6.294  0.4832  0.1490 -0.0993
22853SOL    HW280538   3.126   3.281   6.188  0.2919  1.1229 -0.8597
22854SOL     OW80539   6.728   1.031   4.548 -1.0985  0.2065 -0.3254
22854SOL    HW180540   6.780   1.111   4.550  0.8679 -0.9949 -0.9445
22854SOL    HW280541   6.741   0.995   4.461 -2.4153 -0.5195 -0.2528
22855SOL     OW80542   4.064   9.252   5.081  0.1142  0.0229 -0.1048
22855SOL    HW180543   4.125   9.305   5.030  0.6975  0.0078  0.5681
22855SOL    HW280544   4.014   9.204   5.015  1.7770 -1.0311 -0.6513
22856SOL     OW80545   8.793   6.910   9.022 -0.0981  0.7304 -0.4050
22856SOL    HW180546   8.881   6.895   8.987 -0.3819 -0.0521 -0.8223
22856SOL    HW280547   8.735   6.878   8.953 -0.6771 -1.0194  0.8190
22857SOL     OW80548   2.780   3.860   5.221 -0.1834  0.0180  0.0405
22857SOL    HW180549   2.757   3.947   5.189  0.0042 -0.0887 -0.3879
22857SOL    HW280550   2.737   3.800   5.160  1.1318 -0.1887 -0.7355
22858SOL     OW80551   1.622   8.518  10.166 -0.2922 -0.2139  0.0902
22858SOL    HW180552   1.706   8.538  10.207  0.6908 -0.9326 -1.4968
22858SOL    HW280553   1.595   8.435  10.205  0.9930 -1.2673 -1.1738
22859SOL     OW80554   3.042   0.054   9.579 -0.0000 -0.5491 -0.0840
22859SOL    HW180555   3.097   0.024   9.651 -0.0319 -1.1011 -0.2877
22859SOL    HW280556   2.953   0.054   9.615  0.1071  0.2315  0.2079
22860SOL     OW80557   4.626   2.042   8.455  0.5404  0.2396  0.2849
22860SOL    HW180558   4.531   2.034   8.450  0.5165  0.8204 -0.2126
22860SOL    HW280559   4.641   2.112   8.518  0.6784 -0.8225  1.4745
22861SOL     OW80560  10.022   1.652   4.141 -0.0278  0.0745  0.1479
22861SOL    HW180561   9.992   1.651   4.050  0.2672  0.2603  0.0491
22861SOL    HW280562   9.942   1.665   4.193 -0.4348 -1.6821  0.0116
22862SOL     OW80563   5.684   8.302   5.580  0.4265  0.1797  0.3390
22862SOL    HW180564   5.689   8.224   5.637  0.9407 -0.3875 -0.4699
22862SOL    HW280565   5.605   8.348   5.610  1.1166  0.3248  2.0495
22863SOL     OW80566   5.165   0.988   3.125 -0.1829  0.0904 -0.7428
22863SOL    HW180567   5.072   1.009   3.128 -0.1993 -0.1166  0.6440
22863SOL    HW280568   5.209   1.073   3.119 -0.3544  0.4708  2.1710
22864SOL     OW80569   8.279   0.924   0.142 -0.2001  0.6569 -0.1290
22864SOL    HW180570   8.331   0.862   0.090 -2.1922 -1.4149  0.2016
22864SOL    HW280571   8.302   0.904   0.233 -0.6031  0.6037 -0.0365
22865SOL     OW80572   5.329   7.872   0.576 -0.8109  0.0361  0.2487
22865SOL    HW180573   5.330   7.911   0.663 -1.0671 -0.3307  0.4172
22865SOL    HW280574   5.373   7.787   0.587 -2.3836 -0.7903  0.3974
22866SOL     OW80575   6.633   6.584   5.096  0.5198 -0.2371 -0.3646
22866SOL    HW180576   6.688   6.539   5.160  0.2133 -1.2273 -0.7812
22866SOL    HW280577   6.687   6.656   5.064  0.7539  0.1536  0.8469
22867SOL     OW80578   8.515   0.786   9.008 -0.3396  0.8481  0.6416
22867SOL    HW180579   8.427   0.751   8.993 -0.1621  0.4439  0.5504
22867SOL    HW280580   8.573   0.710   9.003 -0.0015  1.0886  0.8658
22868SOL     OW80581   6.171   7.970   9.513 -0.0457 -0.2375 -0.1297
22868SOL    HW180582   6.229   7.978   9.437  0.2438 -0.8532  0.0204
22868SOL    HW280583   6.119   7.892   9.495 -0.5186  0.0597 -0.0560
22869SOL     OW80584   7.132   8.426   0.550  0.3984 -0.7493  0.8699
22869SOL    HW180585   7.156   8.360   0.616 -0.4431 -1.9760  0.0036
22869SOL    HW280586   7.059   8.386   0.502  0.2075  0.6175 -0.0236
22870SOL     OW80587   8.818   3.074   7.798  0.1419 -0.2275  0.3383
22870SOL    HW180588   8.741   3.023   7.821 -1.9221  2.4841  0.0247
22870SOL    HW280589   8.864   3.022   7.732 -1.1628 -2.1151  0.8768
22871SOL     OW80590   8.721   9.612   0.709 -0.7109 -0.1522 -0.3535
22871SOL    HW180591   8.681   9.651   0.630 -1.5567  1.6573  0.8820
22871SOL    HW280592   8.665   9.643   0.781  2.4647  1.9379  1.4292
22872SOL     OW80593   2.534   8.728   6.048  0.0575 -0.3490  0.7332
22872SOL    HW180594   2.478   8.796   6.087 -0.4478 -0.7489  0.7105
22872SOL    HW280595   2.482   8.691   5.977  1.1407  0.6732 -0.6460
22873SOL     OW80596   0.837   7.886   9.424  0.4466 -0.0762 -0.1036
22873SOL    HW180597   0.862   7.977   9.441  1.3856 -0.4485  0.5810
22873SOL    HW280598   0.814   7.851   9.510  0.9788 -0.7412 -0.2227
22874SOL     OW80599   3.615   3.512   0.406 -0.3315 -0.4016 -0.0651
22874SOL    HW180600   3.675   3.523   0.332  0.1044  0.9917  0.4595
22874SOL    HW280601   3.562   3.592   0.404 -1.8929 -1.3957 -0.2483
22875SOL     OW80602   6.918   2.738   7.985  0.5291  0.1521 -0.1312
22875SOL    HW180603   6.972   2.797   7.931  0.6476  0.9228  0.8033
22875SOL    HW280604   6.968   2.657   7.988  1.1564  0.5295 -0.1021
22876SOL     OW80605   7.234   6.723   6.471  0.2616  0.2777 -0.6745
22876SOL    HW180606   7.187   6.756   6.394 -0.8806 -0.0953 -0.1669
22876SOL    HW280607   7.176   6.743   6.544  0.6113 -0.7692 -0.0920
22877SOL     OW80608  10.254   0.126   8.303  0.0830  0.6211 -0.5433
22877SOL    HW180609  10.283   0.197   8.247  1.5438 -0.2755 -0.9755
22877SOL    HW280610  10.209   0.066   8.244 -3.3061  2.2090  0.1838
22878SOL     OW80611   6.077   2.467   6.725  0.0338  0.4610  0.2142
22878SOL    HW180612   6.034   2.394   6.682  0.2765  0.1376  0.5129
22878SOL    HW280613   6.053   2.544   6.673  0.1264  0.1111 -0.3446
22879SOL     OW80614   5.724  10.062   3.543  0.0272  0.4152 -0.2245
22879SOL    HW180615   5.722  10.137   3.483 -1.0469 -0.8214 -1.8080
22879SOL    HW280616   5.814  10.030   3.537 -0.1118  0.1893 -1.3531
22880SOL     OW80617   8.658   4.070   6.056 -0.3261 -0.8774 -0.5131
22880SOL    HW180618   8.727   4.038   5.998  1.1638  0.5965  0.3648
22880SOL    HW280619   8.621   4.145   6.010  0.9010  0.3340  0.3881
22881SOL     OW80620   1.990   3.225   8.888  0.5534 -0.0839 -0.4562
22881SOL    HW180621   1.942   3.178   8.820 -0.5615  0.3822 -0.0129
22881SOL    HW280622   1.992   3.316   8.859  1.4322 -0.1491 -0.6090
22882SOL     OW80623   4.118  10.388   8.483 -0.6658 -0.3463 -0.1130
22882SOL    HW180624   4.063  10.381   8.561  1.3825  0.5630  1.4815
22882SOL    HW280625   4.164  10.304   8.478  0.0262  0.0088  0.2984
22883SOL     OW80626   9.099   2.357   8.771 -0.4361  0.0947 -0.2065
22883SOL    HW180627   9.097   2.296   8.844 -0.4179  1.9417  1.4413
22883SOL    HW280628   9.039   2.427   8.798  1.3259  1.9621 -0.8823
22884SOL     OW80629   4.072   5.121   7.344 -0.9540 -0.0334 -0.1840
22884SOL    HW180630   4.134   5.169   7.399 -1.4235 -1.7707  1.9728
22884SOL    HW280631   4.096   5.145   7.254  2.2227  0.0834  0.6043
22885SOL     OW80632   5.010   8.791   8.511 -0.1943  0.1447 -0.4551
22885SOL    HW180633   4.933   8.741   8.483  0.3941  0.2511 -2.4213
22885SOL    HW280634   4.980   8.882   8.515 -0.1169  0.2380 -1.5858
22886SOL     OW80635   5.047   4.530   1.626  0.0611 -0.2670  0.1738
22886SOL    HW180636   5.070   4.575   1.708  2.6547 -1.0721 -0.0042
22886SOL    HW280637   5.012   4.446   1.655  0.0813 -0.1779  0.4695
22887SOL     OW80638   0.610   9.433   5.352  0.0519  0.5510 -0.1460
22887SOL    HW180639   0.643   9.343   5.354 -0.3030  0.4193 -0.1576
22887SOL    HW280640   0.689   9.487   5.349  0.2855  0.1971 -2.3731
22888SOL     OW80641   0.380   2.915   0.618  0.3459  0.0384  0.4904
22888SOL    HW180642   0.342   2.842   0.569 -1.5339  1.5722 -0.4545
22888SOL    HW280643   0.471   2.919   0.589  0.6511 -2.1989  0.9483
22889SOL     OW80644   5.616   1.377   1.081  0.2386 -0.5729  0.3702
22889SOL    HW180645   5.637   1.332   0.998  1.0740 -0.7983  0.6975
22889SOL    HW280646   5.557   1.448   1.055 -2.2074 -2.5798 -0.0262
22890SOL     OW80647   0.568   6.437   9.008 -0.3771  0.4823  0.2930
22890SOL    HW180648   0.507   6.399   9.071 -0.8223 -0.5029 -0.6849
22890SOL    HW280649   0.526   6.520   8.981 -0.5158  0.5704  0.7796
22891SOL     OW80650   9.324   0.893   5.259 -0.0515 -0.1817  0.1186
22891SOL    HW180651   9.382   0.820   5.236  0.6503  0.0283  1.1506
22891SOL    HW280652   9.381   0.970   5.260 -0.7757  0.3798 -0.9020
22892SOL     OW80653   6.394   1.095   2.934  0.2217  0.7228  0.5684
22892SOL    HW180654   6.482   1.084   2.972  1.6921 -0.6803 -2.8859
22892SOL    HW280655   6.355   1.008   2.939  0.3179  0.5890 -0.7270
22893SOL     OW80656   9.510   4.836   1.002  0.3381 -0.1702 -0.1949
22893SOL    HW180657   9.564   4.850   0.924  0.2290 -0.3541 -0.3048
22893SOL    HW280658   9.447   4.907   1.001  0.3664 -0.1457 -0.2494
22894SOL     OW80659   5.996   8.135   8.970 -0.1968 -0.0968  0.0883
22894SOL    HW180660   5.978   8.043   8.991 -2.0390  0.1423 -0.2248
22894SOL    HW280661   6.090   8.145   8.983  0.0463 -2.0305  0.1096
22895SOL     OW80662   3.442   0.184   3.594  0.0787 -0.2609 -0.2565
22895SOL    HW180663   3.386   0.109   3.613 -1.2927  0.6123 -0.7605
22895SOL    HW280664   3.486   0.161   3.512 -0.1482 -0.6035 -0.2853
22896SOL     OW80665   3.797   7.448   2.231  0.6700 -0.1977 -0.4240
22896SOL    HW180666   3.758   7.535   2.233  1.0501 -0.0173 -0.6367
22896SOL    HW280667   3.801   7.421   2.323  1.3869  0.3965 -0.2608
22897SOL     OW80668   1.180   5.648   6.832  0.0541 -0.0751 -0.1233
22897SOL    HW180669   1.159   5.716   6.896 -2.7147  0.1005 -1.0824
22897SOL    HW280670   1.276   5.649   6.827  0.1939  3.5206  0.1704
22898SOL     OW80671   8.091  10.098   9.372 -0.1000  0.6924  0.2302
22898SOL    HW180672   8.055  10.083   9.459 -0.3747  0.4194  0.0729
22898SOL    HW280673   8.019  10.078   9.312  0.4584 -0.3838 -0.1129
22899SOL     OW80674   3.460   9.283   9.729  0.0033  0.2989  0.1904
22899SOL    HW180675   3.466   9.276   9.634 -0.7334  0.2236  0.1412
22899SOL    HW280676   3.475   9.375   9.748  0.9908  0.1713  0.0779
22900SOL     OW80677   7.287   2.469   7.744 -0.0849  0.6697 -0.4432
22900SOL    HW180678   7.250   2.385   7.715  0.7630  0.8111 -2.0803
22900SOL    HW280679   7.277   2.526   7.668 -2.2678  2.6466  1.2265
22901SOL     OW80680   0.996   9.815   1.144 -0.1880 -0.1941 -0.1004
22901SOL    HW180681   1.080   9.843   1.107  0.4363 -2.3536 -0.4258
22901SOL    HW280682   1.011   9.812   1.239 -0.1838  0.2207 -0.0825
22902SOL     OW80683   2.379   8.482   5.919  0.3708 -0.8187  0.1272
22902SOL    HW180684   2.465   8.482   5.877 -0.6300  4.0217 -2.6540
22902SOL    HW280685   2.317   8.475   5.846 -1.5925 -0.6758  1.6929
22903SOL     OW80686   3.295   9.503   1.512 -0.2479 -0.4347 -0.4449
22903SOL    HW180687   3.260   9.423   1.475  0.3895 -1.3684  0.8988
22903SOL    HW280688   3.272   9.500   1.605  3.4717 -1.2745  0.6385
22904SOL     OW80689   0.827   2.809   2.100 -0.4842 -0.0710 -0.0066
22904SOL    HW180690   0.807   2.717   2.083 -1.7526  0.3042 -0.6898
22904SOL    HW280691   0.898   2.807   2.164 -1.9837 -1.5391  1.7374
22905SOL     OW80692   5.361   9.329   0.236 -0.3951 -0.2652  0.0686
22905SOL    HW180693   5.412   9.396   0.192 -2.6626  1.6063  0.1019
22905SOL    HW280694   5.304   9.377   0.297 -1.0555 -2.3437  1.2119
22906SOL     OW80695   2.006   0.355   1.161 -0.2464  0.0034 -0.2310
22906SOL    HW180696   2.037   0.279   1.211 -0.6985 -0.1567 -0.1878
22906SOL    HW280697   1.973   0.318   1.079 -1.0592  0.0732  0.0517
22907SOL     OW80698   6.548   6.347   1.674  0.0022 -0.5415 -0.3301
22907SOL    HW180699   6.577   6.260   1.703 -0.7507 -0.9305 -0.7214
22907SOL    HW280700   6.461   6.333   1.639 -0.3646  0.4890  0.1349
22908SOL     OW80701   3.160   9.681   7.362  0.1108 -0.0240 -0.1735
22908SOL    HW180702   3.210   9.759   7.385  1.1967 -0.8080  0.2329
22908SOL    HW280703   3.099   9.670   7.434 -0.5326  0.8344 -0.5766
22909SOL     OW80704  10.247   5.016   8.891  0.2761  0.3091  0.2069
22909SOL    HW180705  10.174   4.961   8.863  0.7851  0.8875 -2.5425
22909SOL    HW280706  10.325   4.963   8.874  0.6079  0.5248  1.0199
22910SOL     OW80707   0.352   5.772   7.651  0.0486  0.3874 -0.0765
22910SOL    HW180708   0.402   5.789   7.731 -1.8720  0.1092  1.2699
22910SOL    HW280709   0.415   5.784   7.580  1.9845  0.0948  1.4879
22911SOL     OW80710   8.769   6.565   4.986  0.6973  0.0034 -0.2053
22911SOL    HW180711   8.826   6.500   5.027 -0.5827 -0.3747  1.0743
22911SOL    HW280712   8.828   6.624   4.940  2.0249 -0.9840  0.1809
22912SOL     OW80713   1.237   0.003   1.109 -0.1041 -0.6339 -0.1944
22912SOL    HW180714   1.170   0.012   1.177 -0.1172  2.8647 -0.4738
22912SOL    HW280715   1.315  -0.027   1.157 -0.1352  1.6640  1.5047
22913SOL     OW80716   6.421   3.018   5.005  0.5214  0.4728  0.7140
22913SOL    HW180717   6.416   2.927   5.033 -0.3629 -0.6155 -2.6220
22913SOL    HW280718   6.348   3.061   5.051 -0.5248 -1.0592  0.5605
22914SOL     OW80719   5.203   5.156   9.809  0.8133 -0.6966  0.2680
22914SOL    HW180720   5.258   5.229   9.779  1.7011 -0.3195  2.6269
22914SOL    HW280721   5.141   5.142   9.737  2.2863  0.6369 -1.3565
22915SOL     OW80722   2.967   2.090   3.752 -0.4731  0.1938  0.2317
22915SOL    HW180723   2.927   2.177   3.752  0.9875  0.8823  0.5126
22915SOL    HW280724   2.943   2.053   3.667  0.3305  1.5535 -0.6142
22916SOL     OW80725   2.326   4.369   2.086  0.6339  1.1389 -0.0745
22916SOL    HW180726   2.326   4.433   2.157  0.7577 -1.8528  2.9031
22916SOL    HW280727   2.410   4.381   2.043  1.1416  2.2050  1.1505
22917SOL     OW80728   4.939   6.956   4.849 -0.1050 -0.0322 -0.2733
22917SOL    HW180729   4.945   6.953   4.945  0.7913  4.1142 -0.0418
22917SOL    HW280730   4.941   7.049   4.827  0.5810 -0.8298 -4.4365
22918SOL     OW80731   0.994   7.026   0.209 -0.4573 -0.2455 -0.1590
22918SOL    HW180732   0.935   7.036   0.134 -2.4496  0.8826  1.4302
22918SOL    HW280733   1.064   7.089   0.193 -1.0378  0.2253 -0.9228
22919SOL     OW80734  10.024   5.179   5.441  0.1598  0.0774 -0.0177
22919SOL    HW180735  10.056   5.215   5.359  1.6886  0.7519  0.8401
22919SOL    HW280736  10.086   5.110   5.464 -0.3714 -0.2502  0.4739
22920SOL     OW80737   1.782   4.610   6.865  0.3255 -0.4131  0.3089
22920SOL    HW180738   1.837   4.540   6.897 -0.3433 -0.4560  1.4081
22920SOL    HW280739   1.743   4.575   6.785  1.1160 -0.7419  0.0592
22921SOL     OW80740   2.696   0.097   9.490 -0.3405  0.3360  0.6769
22921SOL    HW180741   2.757   0.113   9.561 -0.6132  0.7355  0.8279
22921SOL    HW280742   2.653   0.014   9.512 -0.0816  0.2180  0.7315
22922SOL     OW80743  10.317   7.252   7.946  0.9825 -0.6147  0.5425
22922SOL    HW180744  10.410   7.272   7.938  0.4534  1.4974 -1.9667
22922SOL    HW280745  10.301   7.186   7.878  0.9479 -2.5860  2.3719
22923SOL     OW80746   9.759   1.977   2.796  0.1583  0.0440 -0.1431
22923SOL    HW180747   9.756   2.042   2.866 -1.9799 -0.8921  0.7162
22923SOL    HW280748   9.834   1.921   2.819 -2.0042 -1.8823  3.0629
22924SOL     OW80749   6.573   1.065   0.570 -0.5487  0.0763  0.1271
22924SOL    HW180750   6.586   0.975   0.600  0.7978  0.0801 -0.4104
22924SOL    HW280751   6.636   1.116   0.620 -1.4523  0.7721  0.5807
22925SOL     OW80752   1.648   7.117   8.901 -0.3411 -0.2810  0.3149
22925SOL    HW180753   1.718   7.051   8.904  1.5658  1.6540  2.8950
22925SOL    HW280754   1.573   7.070   8.864  1.7610 -2.9808 -0.9402
22926SOL     OW80755   8.899   8.802   1.792 -0.4271  0.1448  0.7664
22926SOL    HW180756   8.943   8.793   1.877 -0.6853 -1.8026  0.7333
22926SOL    HW280757   8.901   8.896   1.775 -0.1242  0.5657  2.7937
22927SOL     OW80758   6.770   8.426   1.494  0.2150  0.3784  0.0702
22927SOL    HW180759   6.694   8.471   1.457  0.7569  1.1813 -0.0916
22927SOL    HW280760   6.759   8.436   1.589  0.7417  1.5555  0.0143
22928SOL     OW80761   6.608   1.139   5.732 -0.5341 -0.5169 -0.6568
22928SOL    HW180762   6.701   1.155   5.716 -0.8946 -0.2483 -2.7677
22928SOL    HW280763   6.575   1.223   5.764  0.0205 -0.7661  0.6395
22929SOL     OW80764   8.769   2.974   6.568  0.0185 -0.9425 -0.5326
22929SOL    HW180765   8.833   3.045   6.573 -1.6509  0.6296 -0.4752
22929SOL    HW280766   8.821   2.894   6.577  2.0583  0.2186 -1.2907
22930SOL     OW80767   7.487   8.508   5.919 -0.4713 -1.0500  0.3431
22930SOL    HW180768   7.453   8.451   5.988 -0.8085  0.6649  1.6744
22930SOL    HW280769   7.487   8.596   5.958 -1.8855  0.2318 -2.2622
22931SOL     OW80770   9.389   7.154   3.904  0.5511 -0.1837 -0.1643
22931SOL    HW180771   9.381   7.249   3.899  0.8048 -0.0952  0.8981
22931SOL    HW280772   9.300   7.123   3.924  0.5286 -0.1430 -0.2028
22932SOL     OW80773   9.428   2.026   9.202  0.1184 -0.3403  0.0281
22932SOL    HW180774   9.374   1.948   9.213  0.7308 -0.8710 -0.6070
22932SOL    HW280775   9.473   2.036   9.286 -1.0312  0.1838  0.6109
22933SOL     OW80776   5.132   4.195   7.656  0.3605 -0.2923 -0.3297
22933SOL    HW180777   5.095   4.118   7.698 -2.5901  0.8244 -0.6674
22933SOL    HW280778   5.161   4.165   7.570 -0.6782 -1.0703 -0.4261
22934SOL     OW80779   0.237   1.751   3.087 -0.8275  0.0734 -0.3877
22934SOL    HW180780   0.291   1.829   3.100  1.0693 -0.8443 -2.1378
22934SOL    HW280781   0.242   1.704   3.171 -0.9764  1.1980  0.2740
22935SOL     OW80782   9.080   9.530   9.542 -0.0944  0.0028  0.2799
22935SOL    HW180783   9.036   9.599   9.494 -1.4428 -1.3557 -0.5243
22935SOL    HW280784   9.077   9.558   9.633 -0.3509  1.1228 -0.0630
22936SOL     OW80785   7.039   8.476   3.490  0.3379 -0.1873 -0.5187
22936SOL    HW180786   7.101   8.458   3.560  2.2015 -0.3918 -2.1512
22936SOL    HW280787   7.052   8.405   3.427 -2.8271 -1.2524 -0.1632
22937SOL     OW80788   4.477   7.665   9.301  0.6469  0.2921  0.1380
22937SOL    HW180789   4.469   7.570   9.305  0.2886  0.2551 -1.0490
22937SOL    HW280790   4.392   7.697   9.333  1.0999  0.2567  1.4414
22938SOL     OW80791   3.308   8.092   6.442 -0.3941 -1.0280  0.2405
22938SOL    HW180792   3.389   8.138   6.465 -0.2122 -2.0786  1.9205
22938SOL    HW280793   3.239   8.157   6.456  0.0224 -0.6396  0.5379
22939SOL     OW80794   9.235   1.998   3.880 -0.7552 -0.1893  0.0762
22939SOL    HW180795   9.147   1.984   3.913 -0.6126  0.5301  0.7990
22939SOL    HW280796   9.261   2.084   3.915  0.1856 -0.3415 -0.2101
22940SOL     OW80797   7.861   2.943   6.890 -0.1574 -0.3993 -0.0311
22940SOL    HW180798   7.822   3.019   6.847 -0.4373 -0.3769  0.2607
22940SOL    HW280799   7.953   2.945   6.863 -0.3974 -0.5697 -0.8881
22941SOL     OW80800   9.175   8.854  10.088  0.1499 -0.1072  0.4576
22941SOL    HW180801   9.257   8.811  10.061 -0.3199 -1.5247  1.2009
22941SOL    HW280802   9.196   8.947  10.086  1.8718 -0.4411  0.8307
22942SOL     OW80803   6.018   8.286   3.614 -0.0124 -0.4772  0.1562
22942SOL    HW180804   5.943   8.338   3.583  0.1343 -1.2525 -1.6039
22942SOL    HW280805   6.052   8.244   3.536  3.5068  1.3017  0.5140
22943SOL     OW80806  10.090   3.125   3.280  0.0291 -0.0146 -0.1502
22943SOL    HW180807  10.092   3.031   3.300  0.4770  0.5519  3.1902
22943SOL    HW280808  10.173   3.142   3.235  1.1497 -0.8905  1.4852
22944SOL     OW80809   6.238   3.183   6.098  0.7524  0.3531  0.1951
22944SOL    HW180810   6.280   3.117   6.044  1.8506  2.0405 -1.1231
22944SOL    HW280811   6.308   3.217   6.154  0.2775  0.6162  0.6390
22945SOL     OW80812   4.963   0.733   7.078 -0.4386  0.2338  0.2148
22945SOL    HW180813   4.928   0.721   7.166 -1.0216  2.0105  0.2741
22945SOL    HW280814   4.904   0.797   7.037  0.9033  0.8698 -0.8044
22946SOL     OW80815  10.096   2.030   7.908  0.0514  0.1420 -0.2874
22946SOL    HW180816  10.049   1.963   7.859  0.0945  0.8018 -1.2617
22946SOL    HW280817  10.162   1.982   7.958 -0.9675 -0.6981  0.3239
22947SOL     OW80818   2.183  10.243   7.662 -0.2504 -0.0902 -0.1300
22947SOL    HW180819   2.218  10.322   7.620  0.3181 -0.5424 -0.5373
22947SOL    HW280820   2.208  10.251   7.754 -0.8088  0.5353 -0.0321
22948SOL     OW80821   0.748   9.956   9.193 -0.7876  0.1831  0.1793
22948SOL    HW180822   0.662   9.935   9.158 -1.0769 -0.6481  1.3470
22948SOL    HW280823   0.733   9.977   9.285  0.2779 -0.1346  0.4459
22949SOL     OW80824   7.087   9.919   9.130  0.1940 -0.5039 -0.1893
22949SOL    HW180825   7.045   9.834   9.145  1.9461 -1.5285 -0.7723
22949SOL    HW280826   7.094   9.958   9.217  0.0468 -1.3004  0.1864
22950SOL     OW80827   4.474   9.533   5.831 -0.2133 -0.6174 -0.0907
22950SOL    HW180828   4.408   9.546   5.899 -1.2761  0.4300 -1.2561
22950SOL    HW280829   4.543   9.482   5.873 -1.5108 -1.2646  1.3262
22951SOL     OW80830   4.895   0.021   8.908 -0.0521  0.0370 -0.3446
22951SOL    HW180831   4.945  -0.046   8.861  1.5106  1.4562 -0.7829
22951SOL    HW280832   4.915   0.007   9.000 -1.3720 -1.3487 -0.2196
22952SOL     OW80833   7.909   9.821   7.558  0.1322  0.6145  0.1218
22952SOL    HW180834   7.853   9.826   7.480  1.0399  0.4395 -0.5554
22952SOL    HW280835   7.963   9.744   7.544  1.0119  1.1583  0.4351
22953SOL     OW80836   0.751   2.568   4.012  0.0811  0.0147  0.2321
22953SOL    HW180837   0.761   2.567   3.917 -0.1826 -2.9238  0.1513
22953SOL    HW280838   0.838   2.547   4.046  0.0033  0.2985  0.6163
22954SOL     OW80839   0.579   0.632   7.611  0.0793  0.7957  0.5029
22954SOL    HW180840   0.661   0.585   7.600 -1.0325 -1.0040 -0.6138
22954SOL    HW280841   0.579   0.697   7.540 -0.6505 -1.1035 -1.3370
22955SOL     OW80842   9.388   8.951   2.605 -0.3434 -0.2946 -0.0898
22955SOL    HW180843   9.437   8.946   2.523 -0.6715 -0.6812 -0.2684
22955SOL    HW280844   9.363   9.044   2.612  1.6870  0.2287  0.7817
22956SOL     OW80845   8.662   9.984   8.153 -0.0227 -0.3237  0.1637
22956SOL    HW180846   8.610  10.024   8.223  1.1209  0.8051  0.4030
22956SOL    HW280847   8.747   9.965   8.193  0.8690  0.9091 -1.0511
22957SOL     OW80848   7.163   1.005   2.389 -0.6822  0.3236 -0.1088
22957SOL    HW180849   7.127   0.924   2.353 -1.1726 -0.0357  1.1303
22957SOL    HW280850   7.193   0.981   2.477 -1.0737  1.5453  0.3777
22958SOL     OW80851   0.357   1.653   0.376  0.0497  0.3402  0.0082
22958SOL    HW180852   0.437   1.655   0.325  1.2157  0.8352  1.7594
22958SOL    HW280853   0.380   1.605   0.456 -1.1705  1.1358  0.8776
22959SOL     OW80854   6.619   8.475   3.853  0.3311 -0.3793  0.6501
22959SOL    HW180855   6.653   8.511   3.935  0.4865 -0.3894  0.5892
22959SOL    HW280856   6.683   8.501   3.787 -0.2835  0.4661  0.3710
22960SOL     OW80857   6.699   1.471   3.417  0.2285 -0.6505  0.4841
22960SOL    HW180858   6.785   1.438   3.444  0.9100  0.1303 -0.6390
22960SOL    HW280859   6.679   1.423   3.337 -0.3294 -0.7424  0.6762
22961SOL     OW80860   6.876   5.101   9.848 -0.6610 -0.1717 -0.6762
22961SOL    HW180861   6.943   5.160   9.813 -0.5763  0.4883  0.5341
22961SOL    HW280862   6.924   5.041   9.904 -1.0695  0.3450  0.2488
22962SOL     OW80863   9.238   9.590   6.051  0.1943 -0.4490  0.0098
22962SOL    HW180864   9.212   9.505   6.015  0.6758 -0.4037 -0.4481
22962SOL    HW280865   9.168   9.650   6.022 -0.1926 -0.6985  0.4092
22963SOL     OW80866   7.438   3.291   9.233  0.5119 -0.5991 -0.0959
22963SOL    HW180867   7.405   3.233   9.164  0.5803  0.5109 -1.1002
22963SOL    HW280868   7.532   3.298   9.214  1.0076 -2.1250  1.5339
22964SOL     OW80869   7.386   6.670   0.838  0.1119 -0.0629  0.3767
22964SOL    HW180870   7.367   6.763   0.845  0.5920 -0.0045  1.0327
22964SOL    HW280871   7.318   6.628   0.892 -0.6683 -0.1700 -0.6682
22965SOL     OW80872   9.052   8.393   1.347  0.2241  0.0212  0.3619
22965SOL    HW180873   8.977   8.429   1.393 -0.6855 -0.6593 -0.5255
22965SOL    HW280874   9.127   8.442   1.380 -0.8532  2.2714 -0.3350
22966SOL     OW80875   4.451   7.190   7.699  0.3532  0.7070  0.3204
22966SOL    HW180876   4.439   7.249   7.774 -0.1197 -0.1462  0.9287
22966SOL    HW280877   4.538   7.211   7.666  0.7030  0.8810  1.3093
22967SOL     OW80878   3.113   1.555   9.133 -0.4158  0.5616 -0.7406
22967SOL    HW180879   3.185   1.493   9.146 -0.0277  1.3944  1.6293
22967SOL    HW280880   3.052   1.536   9.204 -1.0635  1.8361 -0.9189
22968SOL     OW80881   9.072   6.971   5.917 -0.4183  0.4024 -0.2956
22968SOL    HW180882   9.024   6.919   5.853  0.1508 -0.3731 -0.1069
22968SOL    HW280883   9.161   6.937   5.914  0.1501  1.8432 -0.6662
22969SOL     OW80884   1.294   0.450   1.355  0.1131  0.7797 -0.7060
22969SOL    HW180885   1.274   0.541   1.376 -0.4102  0.5329 -0.0850
22969SOL    HW280886   1.385   0.451   1.327 -0.1422  1.6218 -1.5651
22970SOL     OW80887   1.897   3.610   4.690 -0.0110  0.3344 -0.3464
22970SOL    HW180888   1.805   3.623   4.666 -0.8897  0.8218  2.7707
22970SOL    HW280889   1.944   3.611   4.607 -2.7124  0.9786 -2.0005
22971SOL     OW80890   4.942   0.480  10.001  0.3723 -0.2262  0.2590
22971SOL    HW180891   4.998   0.497  10.077 -0.1555  1.5448  0.2973
22971SOL    HW280892   4.994   0.420   9.947  1.0667 -0.9333  1.6485
22972SOL     OW80893   8.399   4.163   8.254  0.3900  0.5522  0.3748
22972SOL    HW180894   8.341   4.234   8.224  0.9027  0.7109 -0.2671
22972SOL    HW280895   8.485   4.186   8.219  1.0061  0.6912  1.9106
22973SOL     OW80896   0.681   9.292   0.271 -0.1656 -0.1092  0.1093
22973SOL    HW180897   0.706   9.208   0.310  1.1523 -0.0305 -0.5113
22973SOL    HW280898   0.763   9.328   0.237 -1.3213 -0.7198 -3.8112
22974SOL     OW80899   4.398   9.531   4.443  0.1986 -0.5957  0.0245
22974SOL    HW180900   4.469   9.475   4.409  0.6410 -1.1270  1.7215
22974SOL    HW280901   4.323   9.510   4.389  1.5324  0.7301 -2.5229
22975SOL     OW80902   8.691   8.002   1.670 -0.0379 -0.2017  0.1563
22975SOL    HW180903   8.676   8.075   1.610 -1.2927  1.8565  2.7408
22975SOL    HW280904   8.605   7.962   1.682  0.0871 -0.2592  0.9256
22976SOL     OW80905   5.631   3.264   4.692 -0.8911  0.1319 -0.3071
22976SOL    HW180906   5.709   3.312   4.722 -0.5352 -0.2504 -0.6090
22976SOL    HW280907   5.619   3.292   4.601  0.0941 -1.3097 -0.9100
22977SOL     OW80908   2.264   4.240   5.750 -0.4747 -0.5463 -0.4554
22977SOL    HW180909   2.340   4.294   5.728 -0.7958  0.3856  0.6663
22977SOL    HW280910   2.301   4.169   5.802 -0.4603  0.3799  0.8348
22978SOL     OW80911   4.802   4.742   2.431  0.1380 -0.6089 -0.0728
22978SOL    HW180912   4.729   4.798   2.458  0.8060 -0.0982  0.7457
22978SOL    HW280913   4.820   4.688   2.508  2.2887  1.0816  0.7428
22979SOL     OW80914   0.435   7.277   4.969 -0.1908 -0.0671  0.0536
22979SOL    HW180915   0.417   7.191   5.007 -0.0016  0.3400  1.1043
22979SOL    HW280916   0.369   7.335   5.008 -0.9490  0.0770 -1.4096
22980SOL     OW80917   2.183   6.023   9.510  0.0981 -0.0198  0.3001
22980SOL    HW180918   2.239   5.952   9.480  0.8023  0.9520 -0.7548
22980SOL    HW280919   2.209   6.038   9.601  0.1103 -0.9184  0.4582
22981SOL     OW80920   6.047   8.433   4.373 -0.5061 -0.1389  0.2718
22981SOL    HW180921   6.014   8.405   4.287  1.0427  0.7557 -0.6625
22981SOL    HW280922   6.139   8.410   4.371 -0.4205  0.0526  1.6576
22982SOL     OW80923   8.508   7.953   7.460 -0.2799  0.0109 -0.1626
22982SOL    HW180924   8.437   8.014   7.482 -0.4256  0.3942 -1.5701
22982SOL    HW280925   8.584   8.009   7.446 -0.1628 -0.2220 -0.4609
22983SOL     OW80926   4.105   1.104   1.704  0.7893 -0.1405 -0.2721
22983SOL    HW180927   4.072   1.148   1.625  1.9130 -0.5662 -0.9986
22983SOL    HW280928   4.169   1.165   1.740  1.7789 -0.8124 -0.8478
22984SOL     OW80929  10.383   5.989   6.877 -0.2680  0.1196 -0.0685
22984SOL    HW180930  10.461   5.950   6.916 -0.2329 -0.9668 -1.1644
22984SOL    HW280931  10.343   5.918   6.827 -2.4098  0.4320  1.0965
22985SOL     OW80932   2.289   1.961   7.186  0.3410 -0.1147 -0.1935
22985SOL    HW180933   2.378   1.967   7.151  0.7625  1.8205  1.0085
22985SOL    HW280934   2.301   1.966   7.281 -1.0669  0.3501 -0.0166
22986SOL     OW80935   5.279   6.974   3.994  0.1609 -0.5418 -0.1787
22986SOL    HW180936   5.196   7.004   3.957 -0.1202 -0.6621  0.3311
22986SOL    HW280937   5.254   6.905   4.056  0.4165  0.8187  1.5383
22987SOL     OW80938   1.054   9.199   6.768 -0.9728  0.4763 -0.3946
22987SOL    HW180939   1.027   9.201   6.677  0.1806 -1.5676 -0.8396
22987SOL    HW280940   1.134   9.252   6.771 -0.0803 -0.7938 -0.9542
22988SOL     OW80941   5.654   6.013   3.696  0.0445 -0.0375  0.2039
22988SOL    HW180942   5.695   6.015   3.610  0.2785  0.9808  0.3227
22988SOL    HW280943   5.629   5.922   3.709  0.5219 -0.3076 -0.6966
22989SOL     OW80944   3.014   1.335   8.662 -0.3059  0.0975 -0.2224
22989SOL    HW180945   3.069   1.328   8.739 -1.3070  0.5852  0.5677
22989SOL    HW280946   3.065   1.295   8.592  1.1449  0.7536  0.4109
22990SOL     OW80947   8.577   9.714   4.329  0.7030  0.3908 -0.5072
22990SOL    HW180948   8.485   9.708   4.303 -0.2372  1.0333  2.2687
22990SOL    HW280949   8.609   9.793   4.285 -0.2189  0.4107 -1.1697
22991SOL     OW80950   9.817   5.020   8.452  0.0361 -0.0900 -0.7048
22991SOL    HW180951   9.862   5.056   8.376  0.5236  1.4013  0.2492
22991SOL    HW280952   9.881   5.025   8.523 -0.6552 -0.7403 -0.0126
22992SOL     OW80953   0.471   7.136   8.645  0.0129  0.0678  0.1412
22992SOL    HW180954   0.383   7.173   8.657 -0.3409 -0.4896 -0.6691
22992SOL    HW280955   0.527   7.212   8.633 -0.5209  0.3980 -0.3236
22993SOL     OW80956   8.120   7.218  10.036  0.5284  0.1449  0.3949
22993SOL    HW180957   8.099   7.312  10.038 -1.4106 -0.2548  0.5610
22993SOL    HW280958   8.212   7.214  10.060  0.9477  2.0880 -0.6799
22994SOL     OW80959   1.630   0.402   0.689  0.9186  0.1716 -0.2537
22994SOL    HW180960   1.553   0.456   0.704  0.0813 -0.4793 -1.9852
22994SOL    HW280961   1.596   0.323   0.648  2.3861 -0.6712  0.0851
22995SOL     OW80962   8.569   1.062   3.687  0.0861  0.3202  0.1882
22995SOL    HW180963   8.589   1.155   3.674  0.1519  0.1746 -0.8813
22995SOL    HW280964   8.655   1.019   3.687  0.0786  0.3039  1.0858
22996SOL     OW80965   8.897   7.100   6.502 -0.0053  0.2290 -0.1435
22996SOL    HW180966   8.922   7.018   6.459 -1.4059 -0.0084 -0.5556
22996SOL    HW280967   8.829   7.137   6.446 -0.1648  1.1231  0.6192
22997SOL     OW80968   1.084   6.993  10.188 -0.2220 -0.1981  0.1795
22997SOL    HW180969   1.040   7.036  10.262  0.3318  0.4582  0.1285
22997SOL    HW280970   1.127   7.064  10.141 -0.3936 -0.6423 -0.6606
22998SOL     OW80971   4.810   9.736   1.317 -0.4741  0.1299 -0.4562
22998SOL    HW180972   4.833   9.718   1.226 -0.7473  0.4714 -0.5914
22998SOL    HW280973   4.763   9.658   1.346  1.6896 -1.0473  0.1357
22999SOL     OW80974   6.903   1.618   3.753 -0.0946  0.1828  0.1135
22999SOL    HW180975   6.875   1.584   3.668 -0.4250  1.2549 -0.2174
22999SOL    HW280976   6.959   1.693   3.732  0.8247 -0.2710  0.8281
23000SOL     OW80977   7.373   5.824   2.012 -0.1092  0.1424  0.2554
23000SOL    HW180978   7.404   5.733   2.010  1.4787  0.6561 -1.2996
23000SOL    HW280979   7.292   5.821   2.063  0.0902 -2.0778  0.5370
23001SOL     OW80980   8.355   6.812   2.659 -0.5651 -0.1156 -0.0787
23001SOL    HW180981   8.448   6.801   2.679 -0.0873 -0.2709 -2.1377
23001SOL    HW280982   8.319   6.854   2.737  1.5416  1.3965  0.2005
23002SOL     OW80983   8.763   1.037  10.229 -0.3767  0.0271  0.1194
23002SOL    HW180984   8.791   1.117  10.273 -1.3969  0.5958 -0.2305
23002SOL    HW280985   8.674   1.056  10.198  0.2551 -0.3720 -2.1386
23003SOL     OW80986   1.466   0.526   0.290  0.4079  0.1116 -0.2730
23003SOL    HW180987   1.519   0.580   0.231 -0.4407 -1.4117 -2.5624
23003SOL    HW280988   1.524   0.455   0.317  0.6835  0.6070  0.4756
23004SOL     OW80989   7.470   8.262   8.625 -0.1821  0.4679 -0.7294
23004SOL    HW180990   7.553   8.243   8.580 -0.3146 -0.2906 -0.6578
23004SOL    HW280991   7.488   8.244   8.717 -0.9512 -1.5604 -0.9320
23005SOL     OW80992   2.366   4.004   5.590 -0.2626 -0.1753 -0.1004
23005SOL    HW180993   2.371   4.050   5.506  1.2101 -1.6376 -0.8623
23005SOL    HW280994   2.279   3.963   5.589 -0.2359 -0.2410 -0.9486
23006SOL     OW80995   4.146   2.452   5.381  0.3810 -0.4261  0.0766
23006SOL    HW180996   4.116   2.395   5.452  1.7787 -1.1518  0.1255
23006SOL    HW280997   4.241   2.459   5.394  0.3677  1.1632 -0.4926
23007SOL     OW80998   2.673   8.885   7.679  0.0917  0.0765  0.2429
23007SOL    HW180999   2.617   8.811   7.704 -0.4320 -0.3321 -1.9266
23007SOL    HW281000   2.761   8.849   7.677  0.1020  0.0293  1.0393
23008SOL     OW81001   3.896   9.440   2.355  0.6051  0.2815  0.1770
23008SOL    HW181002   3.833   9.470   2.290  0.8672  0.8540  0.1802
23008SOL    HW281003   3.866   9.353   2.380  0.4762  0.0797 -0.6741
23009SOL     OW81004   0.050   9.158   0.352  0.2425 -0.3642 -0.4191
23009SOL    HW181005   0.140   9.131   0.333  0.2355 -0.3518 -0.4700
23009SOL    HW281006   0.023   9.101   0.424 -0.5725 -2.1406 -2.0279
23010SOL     OW81007   6.694   1.312   8.020  0.0334 -0.3318  0.1856
23010SOL    HW181008   6.732   1.242   8.073  0.6613 -0.6905 -0.7266
23010SOL    HW281009   6.719   1.291   7.930 -0.8101  0.4009 -0.2368
23011SOL     OW81010   9.995   4.080   0.046  0.5290  0.1206 -0.5769
23011SOL    HW181011  10.077   4.109   0.086  0.1706  0.7778 -0.3064
23011SOL    HW281012   9.990   3.987   0.069  1.8245 -0.2637 -1.7008
23012SOL     OW81013   0.601   6.504   1.344 -0.1563  0.3384 -0.5464
23012SOL    HW181014   0.534   6.539   1.285  0.4593  1.6673 -0.4902
23012SOL    HW281015   0.638   6.581   1.387  0.1796 -0.5216  0.7610
23013SOL     OW81016   5.400   2.044   6.144  0.1170  0.4669  0.2784
23013SOL    HW181017   5.420   2.026   6.052  1.3371 -1.3034  0.8542
23013SOL    HW281018   5.304   2.042   6.148  0.0440  0.5497 -0.9362
23014SOL     OW81019   4.049   2.797   7.199  0.5139 -0.5336  0.3135
23014SOL    HW181020   4.136   2.808   7.162  1.3504 -1.8673  1.7209
23014SOL    HW281021   3.995   2.765   7.127  1.0130  0.8898 -0.7216
23015SOL     OW81022   8.094   5.223   7.586 -0.5327  0.3210  0.1256
23015SOL    HW181023   8.109   5.133   7.617  0.2604  0.7477  1.0304
23015SOL    HW281024   8.180   5.254   7.559 -0.4264  1.4189  1.5572
23016SOL     OW81025   5.853   4.244   7.112  0.8054  0.8313 -0.3467
23016SOL    HW181026   5.894   4.157   7.111 -0.0105  0.4216  0.3626
23016SOL    HW281027   5.926   4.305   7.115  1.4320  0.2086 -1.8160
23017SOL     OW81028   6.254   6.088   2.647  0.3917  0.5179 -0.0231
23017SOL    HW181029   6.218   6.062   2.562 -0.8900 -0.3559  0.7562
23017SOL    HW281030   6.178   6.091   2.705  1.3241  0.5806  1.2180
23018SOL     OW81031   0.661  10.344   1.671 -0.2046  0.4504 -0.0485
23018SOL    HW181032   0.718  10.414   1.640 -0.4329  0.8932  0.5280
23018SOL    HW281033   0.573  10.381   1.667 -0.4623 -0.2113 -0.8765
23019SOL     OW81034   6.176   8.168   9.706 -0.1736 -0.2128 -0.2180
23019SOL    HW181035   6.188   8.121   9.624 -0.2496  0.3028 -0.5312
23019SOL    HW281036   6.089   8.209   9.697 -0.4857 -0.7242  0.4059
23020SOL     OW81037   0.379   7.023   5.111  0.1669 -0.3556 -0.3552
23020SOL    HW181038   0.441   6.952   5.094  0.8038 -0.2339  1.2528
23020SOL    HW281039   0.388   7.040   5.205 -0.7718  1.1131 -0.5045
23021SOL     OW81040   5.718   5.240   7.719  1.1454 -0.1304 -0.3435
23021SOL    HW181041   5.701   5.328   7.686 -2.2450  0.1640  1.6877
23021SOL    HW281042   5.813   5.229   7.712  1.4958  2.9766 -2.2074
23022SOL     OW81043   8.446   4.160   1.169 -0.1736  0.1240 -0.7508
23022SOL    HW181044   8.360   4.166   1.212  0.5877 -1.4297  1.1352
23022SOL    HW281045   8.426   4.140   1.078 -1.8330 -1.3300 -0.1211
23023SOL     OW81046   4.252   9.347   4.034 -0.1681  0.0372  0.7455
23023SOL    HW181047   4.323   9.371   3.974  0.9260 -1.4770  1.3649
23023SOL    HW281048   4.208   9.273   3.990 -0.2147 -0.2055  1.1977
23024SOL     OW81049   3.038   0.869   4.997  0.6641 -0.5889 -0.0231
23024SOL    HW181050   3.016   0.896   5.086  2.5317  1.7507 -0.1837
23024SOL    HW281051   2.954   0.867   4.951 -0.1989 -0.7236  1.4957
23025SOL     OW81052   1.127   1.226   6.616  0.0696  0.4762 -0.3345
23025SOL    HW181053   1.135   1.304   6.561 -1.2626  1.3164  0.5913
23025SOL    HW281054   1.033   1.208   6.619  0.2482 -0.4053  0.4975
23026SOL     OW81055   8.837   9.371   0.719 -0.6568 -0.4582  0.1837
23026SOL    HW181056   8.906   9.379   0.784  0.2987  1.5967 -0.9926
23026SOL    HW281057   8.784   9.450   0.730  0.2150  0.5482 -2.2119
23027SOL     OW81058   4.163   3.506   8.302  0.2179  0.6675  0.5905
23027SOL    HW181059   4.130   3.515   8.212  2.4569  0.1444 -0.3389
23027SOL    HW281060   4.238   3.565   8.306  0.8672 -0.1942  1.7474
23028SOL     OW81061   9.650   8.474  10.317 -0.0381 -0.3310  0.5827
23028SOL    HW181062   9.624   8.394  10.363  0.3954  0.6287  2.6032
23028SOL    HW281063   9.673   8.535  10.387 -0.8756  1.7533 -0.8858
23029SOL     OW81064   2.007   2.792   9.038  0.3803  0.5818  0.0951
23029SOL    HW181065   1.980   2.774   8.948 -0.6520  0.8694  0.3355
23029SOL    HW281066   1.927   2.782   9.090  0.9235  0.5899  0.9600
23030SOL     OW81067   3.202   1.055  10.313  0.3607 -1.0193  0.2509
23030SOL    HW181068   3.269   1.024  10.253 -0.5611  0.2013 -1.4864
23030SOL    HW281069   3.248   1.066  10.397  1.8548 -1.9911 -0.4056
23031SOL     OW81070   7.030   6.898   9.219 -0.4482  0.2456  0.1945
23031SOL    HW181071   7.079   6.825   9.181 -1.5799 -0.3584 -0.1679
23031SOL    HW281072   7.096   6.950   9.264  0.5038 -0.5926 -0.1755
23032SOL     OW81073   2.530   5.664   2.530 -0.4200  0.0042 -0.4300
23032SOL    HW181074   2.622   5.659   2.556 -0.4484 -2.4085 -0.5362
23032SOL    HW281075   2.533   5.699   2.440  0.4771 -0.7609 -0.7232
23033SOL     OW81076   4.055   1.794   6.754 -0.0203 -0.2646  0.0921
23033SOL    HW181077   3.997   1.870   6.762  0.9632  0.6715 -1.2391
23033SOL    HW281078   4.136   1.821   6.796  0.9750  0.1700 -1.9880
23034SOL     OW81079   8.742   5.253   9.652  0.4362  0.4195  0.4956
23034SOL    HW181080   8.824   5.232   9.608 -0.3733  1.4703 -1.6622
23034SOL    HW281081   8.748   5.208   9.737  2.7568 -0.3890 -0.0176
23035SOL     OW81082   5.494   2.066   0.771 -0.2242  0.0575  0.0108
23035SOL    HW181083   5.420   2.049   0.829  0.2286  0.2931  0.6711
23035SOL    HW281084   5.571   2.056   0.826  0.1644  1.7592 -0.1508
23036SOL     OW81085  10.294   3.973   9.158 -0.4186 -0.4199  0.2938
23036SOL    HW181086  10.379   3.970   9.202  0.3017 -0.8404 -1.0597
23036SOL    HW281087  10.293   3.894   9.104 -0.7807  0.6185 -1.2707
23037SOL     OW81088   2.528   2.992   6.421  0.5026  0.3751  0.1935
23037SOL    HW181089   2.587   2.921   6.397  1.7917  1.5781 -0.3524
23037SOL    HW281090   2.485   3.017   6.339  0.1326  0.2988  0.3623
23038SOL     OW81091   1.355   5.414   5.374  0.7734 -0.6680  0.4046
23038SOL    HW181092   1.400   5.479   5.320  2.0529 -2.0253 -0.2581
23038SOL    HW281093   1.303   5.465   5.435 -0.2599  0.9541 -1.7059
23039SOL     OW81094  10.012   6.300   0.294 -0.2170 -0.3798 -0.2998
23039SOL    HW181095   9.963   6.248   0.229 -2.9398  1.7650 -0.1385
23039SOL    HW281096   9.987   6.262   0.378 -1.5675  0.5931 -0.2294
23040SOL     OW81097   5.120   5.463   6.460  0.4231  0.3255  0.0773
23040SOL    HW181098   5.086   5.398   6.521  1.3485 -0.0268  0.2321
23040SOL    HW281099   5.209   5.435   6.442  1.7928  2.8773  2.1418
23041SOL     OW81100   4.873   1.690   5.639 -0.3900 -0.0983  0.4818
23041SOL    HW181101   4.792   1.639   5.637 -0.5838  0.2335 -0.7379
23041SOL    HW281102   4.866   1.749   5.564  0.4037  0.8352  1.1158
23042SOL     OW81103  10.121   8.836   2.773  0.3925  0.5104 -0.6931
23042SOL    HW181104  10.090   8.882   2.850 -0.7208 -0.4811 -0.5240
23042SOL    HW281105  10.172   8.762   2.807  1.0686  0.8494 -0.9418
23043SOL     OW81106   8.153   9.149   9.521  0.1876  0.0372  0.0199
23043SOL    HW181107   8.120   9.108   9.441 -0.5710  1.3522 -0.3816
23043SOL    HW281108   8.235   9.191   9.494 -1.2931  2.6771 -0.8323
23044SOL     OW81109   1.826   8.799   5.036 -0.4894  0.0188 -0.6128
23044SOL    HW181110   1.824   8.869   5.100  0.8465  1.0720 -1.6704
23044SOL    HW281111   1.919   8.774   5.029 -0.5057  0.2782 -2.4509
23045SOL     OW81112   9.201   5.711   3.244 -0.0785 -0.2792  0.7219
23045SOL    HW181113   9.143   5.753   3.180  0.9076  0.7976  0.5121
23045SOL    HW281114   9.167   5.739   3.329  0.3478  0.6604  0.5911
23046SOL     OW81115   2.915   9.204   6.995  0.1554  0.0946 -0.6376
23046SOL    HW181116   3.010   9.199   7.003  0.0966 -1.0261 -0.4688
23046SOL    HW281117   2.893   9.141   6.926 -0.3753  1.1628 -1.4734
23047SOL     OW81118   0.092   9.596   3.406  0.3581 -0.4635 -0.7122
23047SOL    HW181119   0.147   9.639   3.341  1.1041  0.7100  0.6259
23047SOL    HW281120   0.141   9.518   3.431  0.6068 -0.3259 -0.7626
23048SOL     OW81121   2.038   8.102   1.018 -0.4906 -0.2660 -0.1412
23048SOL    HW181122   2.119   8.093   0.967  1.1556  0.6624  2.1728
23048SOL    HW281123   1.989   8.021   1.000  0.6430 -0.5823 -2.0410
23049SOL     OW81124   2.250   1.840   9.075  0.1180  0.6258  0.6734
23049SOL    HW181125   2.220   1.850   9.165  1.5086 -0.8073  1.3551
23049SOL    HW281126   2.184   1.885   9.022 -1.2054  0.7250  2.3278
23050SOL     OW81127   0.819   6.125   4.491  0.6184 -0.8181 -0.0272
23050SOL    HW181128   0.807   6.170   4.407  2.2907 -0.2465 -0.0011
23050SOL    HW281129   0.914   6.113   4.498  0.4171 -1.8562  1.2795
23051SOL     OW81130   4.182  10.306   7.543 -0.0072 -0.1097 -0.0438
23051SOL    HW181131   4.195  10.355   7.461  2.0638  0.5933  0.6566
23051SOL    HW281132   4.160  10.217   7.514  1.1703  0.0094 -1.3814
23052SOL     OW81133   0.049   6.854   4.286  0.5901  0.3406  0.5075
23052SOL    HW181134  -0.008   6.880   4.359 -0.5213 -2.4051  0.7387
23052SOL    HW281135   0.103   6.784   4.323  1.4120  0.2703 -0.7934
23053SOL     OW81136   5.121   5.487   5.697  0.6763 -0.3738  0.1436
23053SOL    HW181137   5.160   5.512   5.781 -1.6461 -0.8142  1.4498
23053SOL    HW281138   5.173   5.413   5.667  1.9412  0.1992  0.8602
23054SOL     OW81139   5.075   9.509   0.038 -0.0234 -0.1708 -0.4284
23054SOL    HW181140   5.132   9.555   0.100 -4.6976  3.4165  1.9091
23054SOL    HW281141   5.035   9.439   0.089 -1.5672  0.8206 -0.1861
23055SOL     OW81142   4.452   1.467   8.031  0.5667 -0.0640  0.7587
23055SOL    HW181143   4.524   1.525   8.056 -0.8534  1.4151  1.6499
23055SOL    HW281144   4.437   1.412   8.108  0.0087  0.4353  1.0137
23056SOL     OW81145   6.462   8.674   4.914  0.0946 -0.5302  0.9624
23056SOL    HW181146   6.497   8.762   4.928  0.5942 -0.2769 -1.4342
23056SOL    HW281147   6.531   8.629   4.864  0.2438 -2.6269  2.8571
23057SOL     OW81148   1.310   0.457   8.712 -0.3554  0.0204  0.0889
23057SOL    HW181149   1.240   0.513   8.679 -0.5386 -0.6400 -0.6616
23057SOL    HW281150   1.370   0.518   8.756 -1.5365  0.5541  1.0131
23058SOL     OW81151   3.408  10.201   6.352 -0.1249  0.5598  0.1908
23058SOL    HW181152   3.326  10.181   6.398  0.4550  1.1797  1.5335
23058SOL    HW281153   3.475  10.200   6.420  1.2255 -1.1801 -1.0761
23059SOL     OW81154   5.984   9.518   7.401 -0.1013 -0.0612 -0.2777
23059SOL    HW181155   6.020   9.584   7.459 -0.9992 -0.5672  0.9109
23059SOL    HW281156   6.018   9.540   7.315 -0.3208  1.8957  0.0974
23060SOL     OW81157   4.898   3.935   7.998  0.1821 -0.4723 -0.4205
23060SOL    HW181158   4.903   3.846   8.032  0.2540 -0.3135 -0.0034
23060SOL    HW281159   4.989   3.964   7.993  0.0999  0.9715  3.2606
23061SOL     OW81160   4.952   5.270   6.634  0.3722  0.3508 -0.0115
23061SOL    HW181161   4.925   5.185   6.668  0.5842 -0.3587 -1.5350
23061SOL    HW281162   4.910   5.276   6.548  0.7733  1.5624 -0.1460
23062SOL     OW81163   1.703   0.836   0.770  0.0041 -0.4684 -0.0080
23062SOL    HW181164   1.774   0.885   0.730 -1.2138  0.1589 -1.4908
23062SOL    HW281165   1.729   0.744   0.760 -0.7879 -0.4311 -3.5034
23063SOL     OW81166   7.980   0.930   5.946  0.5675 -0.6563 -0.3071
23063SOL    HW181167   8.074   0.916   5.933  0.7433 -1.4198  1.4207
23063SOL    HW281168   7.970   1.025   5.949  1.5346 -0.5657  0.8532
23064SOL     OW81169   9.236   0.354   7.710  0.0617 -0.0603  0.3410
23064SOL    HW181170   9.291   0.395   7.643 -0.5080  1.3851  0.7208
23064SOL    HW281171   9.224   0.265   7.679  0.7921  0.2342 -0.8759
23065SOL     OW81172   7.413   5.787   5.792 -0.2993 -0.8124 -0.0282
23065SOL    HW181173   7.508   5.791   5.798 -0.2857  1.6058 -0.7404
23065SOL    HW281174   7.387   5.729   5.864  1.6597 -0.9122  0.6567
23066SOL     OW81175   2.061   2.043   5.921 -0.0084 -0.4124 -0.0445
23066SOL    HW181176   2.101   2.071   6.003 -2.2451  0.7457  0.7051
23066SOL    HW281177   2.003   2.115   5.896  0.1988 -0.9833 -2.3650
23067SOL     OW81178   9.027   0.946   6.502  0.1640  0.4121 -0.4497
23067SOL    HW181179   8.937   0.977   6.510  0.1288  1.4328 -3.5395
23067SOL    HW281180   9.027   0.862   6.547 -2.4653  0.1691 -0.7284
23068SOL     OW81181   8.199   9.987   6.432  0.1792 -0.4817  0.5980
23068SOL    HW181182   8.145   9.949   6.363 -0.5825  0.3169  0.7322
23068SOL    HW281183   8.160   9.954   6.513  0.0259 -0.0646  0.6925
23069SOL     OW81184   9.164   5.024   2.422  0.3363 -0.4465 -0.1928
23069SOL    HW181185   9.195   5.074   2.346 -1.3911  0.7427 -0.1823
23069SOL    HW281186   9.068   5.024   2.413  0.1098 -0.5706  1.7772
23070SOL     OW81187   0.975   2.875   8.196 -0.8128 -0.1551 -0.2934
23070SOL    HW181188   1.037   2.915   8.135  0.3332  0.9399  1.5019
23070SOL    HW281189   0.910   2.943   8.213 -0.5822 -0.1053  0.4250
23071SOL     OW81190   8.609   6.312  10.084  0.0298 -0.5231  0.2191
23071SOL    HW181191   8.628   6.335  10.175 -0.3505  0.5889  0.0370
23071SOL    HW281192   8.547   6.378  10.055  3.3713  1.9420 -2.1643
23072SOL     OW81193   6.173   1.360   4.987 -0.1826  0.3217  0.2677
23072SOL    HW181194   6.132   1.276   4.968 -0.0057  0.2724  0.1065
23072SOL    HW281195   6.149   1.379   5.078  0.4131 -0.2606  0.5511
23073SOL     OW81196   3.263   6.589   8.449 -0.1959  0.8310  0.0137
23073SOL    HW181197   3.227   6.676   8.429 -3.0355 -0.2786 -0.2870
23073SOL    HW281198   3.310   6.564   8.370  0.8177  2.1090  0.1640
23074SOL     OW81199   2.605   2.913   1.774 -0.1558 -0.2802  0.4295
23074SOL    HW181200   2.569   2.994   1.809 -0.6255 -0.5451  0.5659
23074SOL    HW281201   2.699   2.931   1.763  0.1544 -0.3818  2.4576
23075SOL     OW81202   0.832   1.691   6.132 -0.1003  0.6753  0.3064
23075SOL    HW181203   0.820   1.663   6.222 -1.4662  0.3444  0.0451
23075SOL    HW281204   0.827   1.787   6.136  2.1561  0.8269  0.8621
23076SOL     OW81205   4.763   0.516   9.618  0.0701 -0.8252 -0.2855
23076SOL    HW181206   4.847   0.558   9.635 -0.1237 -0.0733 -1.1292
23076SOL    HW281207   4.773   0.428   9.655  0.3717  0.0094  1.7859
23077SOL     OW81208  10.146   0.363   0.611  0.2758 -0.4923  0.1906
23077SOL    HW181209  10.087   0.337   0.541  2.2371 -1.8698 -1.0367
23077SOL    HW281210  10.173   0.281   0.652  1.4269  0.0872  0.6435
23078SOL     OW81211   6.881   0.717   7.327  0.3324  0.2019 -0.5603
23078SOL    HW181212   6.812   0.652   7.337  2.5219 -2.0641  0.8156
23078SOL    HW281213   6.954   0.669   7.288  1.7821  2.0221 -0.2195
23079SOL     OW81214   1.201   0.896   8.836 -0.1153  0.0150  0.1798
23079SOL    HW181215   1.222   0.850   8.754 -1.1285 -2.3410  1.1465
23079SOL    HW281216   1.114   0.934   8.819  0.0326  0.2318 -0.1049
23080SOL     OW81217   9.591   6.215   5.925  0.1526 -0.4650  0.4439
23080SOL    HW181218   9.632   6.258   5.999  1.5002 -2.7412  1.1231
23080SOL    HW281219   9.590   6.122   5.949 -0.5366 -1.1175 -1.8548
23081SOL     OW81220   3.130   0.762   3.763  0.2598  0.4442 -0.4173
23081SOL    HW181221   3.092   0.712   3.690 -1.6559  1.5756 -0.2468
23081SOL    HW281222   3.210   0.799   3.726  1.3107 -1.9745 -0.8064
23082SOL     OW81223   1.442   9.006   9.375 -0.1107  0.5975  0.3929
23082SOL    HW181224   1.505   9.060   9.422  0.8302 -0.1130 -0.0276
23082SOL    HW281225   1.416   9.059   9.300  0.1402  0.8189  0.4608
23083SOL     OW81226   2.935   6.141   2.340  0.0428  0.4065  0.0972
23083SOL    HW181227   2.854   6.091   2.348 -0.7317  1.7127  0.7110
23083SOL    HW281228   2.936   6.199   2.416  1.1802  0.9502 -0.2992
23084SOL     OW81229   1.310   0.321   5.718 -0.5245 -0.3116  0.4453
23084SOL    HW181230   1.284   0.319   5.626 -0.7420 -2.3901  0.4923
23084SOL    HW281231   1.285   0.235   5.752  2.4290 -0.8336  1.6319
23085SOL     OW81232   6.856   1.747   8.067  0.0637  0.3504 -0.3309
23085SOL    HW181233   6.776   1.759   8.016  0.8728 -0.2511 -1.8147
23085SOL    HW281234   6.849   1.810   8.139 -2.0910 -0.2356  0.0426
23086SOL     OW81235   5.991   8.863   3.575 -0.0983 -0.8032  0.0709
23086SOL    HW181236   5.977   8.951   3.541  2.3249 -0.0892  0.6940
23086SOL    HW281237   5.956   8.865   3.663 -0.8823 -0.7681 -0.2355
23087SOL     OW81238   8.486   8.871   9.795 -0.0866  0.4277 -0.2758
23087SOL    HW181239   8.407   8.893   9.746  1.1665 -0.5647 -2.9452
23087SOL    HW281240   8.480   8.776   9.808  0.3634  0.4432  0.0685
23088SOL     OW81241   4.324   8.381   9.216 -0.1119 -0.2917  0.7091
23088SOL    HW181242   4.383   8.332   9.158 -1.3794  1.0029 -1.8401
23088SOL    HW281243   4.241   8.335   9.212 -1.3891  1.9638 -1.8959
23089SOL     OW81244   1.736   7.738   5.455  0.1950 -0.1703 -0.6463
23089SOL    HW181245   1.825   7.752   5.486 -0.3011 -0.2402  0.8958
23089SOL    HW281246   1.724   7.643   5.457 -0.4461 -0.0844  0.8171
23090SOL     OW81247   0.143   8.638   2.623 -0.3840  0.1053 -0.4937
23090SOL    HW181248   0.201   8.681   2.560  0.8917 -1.1809 -0.2588
23090SOL    HW281249   0.128   8.551   2.586  1.4964 -1.1813  1.5463
23091SOL     OW81250   4.460   9.617   8.990  0.1274  0.4466  0.0724
23091SOL    HW181251   4.513   9.657   8.921  1.1899 -0.3374  0.4116
23091SOL    HW281252   4.453   9.684   9.057  0.2501  0.7367 -0.2033
23092SOL     OW81253   2.973   6.018   3.312  0.4933  0.5078 -0.2290
23092SOL    HW181254   3.018   5.956   3.255  1.0469  1.0800 -0.4260
23092SOL    HW281255   2.892   5.973   3.337  1.1267 -0.4995  0.0592
23093SOL     OW81256   1.915   9.432   6.263 -0.2750  0.1662  0.1562
23093SOL    HW181257   1.902   9.463   6.352  2.2357 -0.9071  0.9836
23093SOL    HW281258   1.855   9.358   6.254 -1.2290  0.8711  0.5915
23094SOL     OW81259   6.301   0.441   0.630  0.5244 -0.2211 -0.0609
23094SOL    HW181260   6.361   0.381   0.674  0.4542 -0.6227 -0.5008
23094SOL    HW281261   6.357   0.513   0.600  0.7815 -0.5594 -0.4085
23095SOL     OW81262   9.192   8.697   3.859 -0.4401 -0.0698 -0.3845
23095SOL    HW181263   9.243   8.730   3.933  2.3394 -0.3780 -2.0228
23095SOL    HW281264   9.213   8.603   3.855 -0.7358 -0.1085 -1.4264
23096SOL     OW81265   7.689   1.686   5.033 -0.3523 -0.7151  0.2172
23096SOL    HW181266   7.780   1.659   5.041  0.6605  1.7179 -1.7225
23096SOL    HW281267   7.693   1.773   4.993 -3.4686  0.2873  1.7217
23097SOL     OW81268   7.089   3.418   1.014  0.2795  0.3132  0.6117
23097SOL    HW181269   7.175   3.376   1.022  1.0636  1.7436  0.2387
23097SOL    HW281270   7.050   3.409   1.100 -0.2277 -2.3851  0.1779
23098SOL     OW81271   9.761   3.005   0.831  0.1525 -0.1026  0.1552
23098SOL    HW181272   9.714   2.922   0.829  0.7040 -0.4058 -0.6564
23098SOL    HW281273   9.714   3.061   0.770  0.2276 -0.0657  0.1310
23099SOL     OW81274   6.828   0.684   6.271 -0.4696  0.0017 -0.3785
23099SOL    HW181275   6.811   0.643   6.186 -0.2572 -0.7430 -0.0633
23099SOL    HW281276   6.921   0.668   6.287 -0.4909  0.2099 -0.0385
23100SOL     OW81277   9.359   8.498   4.922  0.1288 -0.3783 -0.5282
23100SOL    HW181278   9.405   8.503   5.006  1.2041  5.6146 -1.0322
23100SOL    HW281279   9.428   8.479   4.858  0.1847 -0.2855 -0.4952
23101SOL     OW81280   4.317   4.471   2.006  0.6991 -0.5298 -0.4242
23101SOL    HW181281   4.248   4.428   2.058  1.5614 -0.8393  0.4943
23101SOL    HW281282   4.383   4.496   2.071  1.3687 -0.0630 -1.2720
23102SOL     OW81283   4.486   3.382   9.354 -0.1380 -0.0108 -0.1500
23102SOL    HW181284   4.475   3.319   9.426 -0.9377  0.3037  0.0133
23102SOL    HW281285   4.488   3.327   9.275  1.9168 -0.4686  0.1456
23103SOL     OW81286   2.207   1.921   5.246 -0.5121  0.6714 -0.1949
23103SOL    HW181287   2.194   1.828   5.265 -1.1172  0.5980 -0.9211
23103SOL    HW281288   2.272   1.949   5.310 -0.7152 -0.1254  0.3842
23104SOL     OW81289   3.935   1.071   7.768  0.3584 -0.2379  0.1447
23104SOL    HW181290   3.856   1.017   7.775 -0.7416  0.4261 -3.9891
23104SOL    HW281291   3.921   1.141   7.831 -2.9406  0.3735 -1.0246
23105SOL     OW81292   6.968   6.739   4.013  0.0283 -0.5131 -0.1267
23105SOL    HW181293   6.956   6.668   3.950 -0.0669 -0.7075  0.1102
23105SOL    HW281294   6.886   6.741   4.062 -0.7268  0.9777 -1.3469
23106SOL     OW81295   3.006   1.178   1.019  0.2478  0.3635  0.3515
23106SOL    HW181296   3.039   1.261   0.984  0.5103  0.4486  0.7985
23106SOL    HW281297   2.913   1.193   1.033 -0.4980 -0.5137 -2.8591
23107SOL     OW81298   4.729   2.392   7.785  0.2969 -0.3049  0.3002
23107SOL    HW181299   4.724   2.469   7.842  1.6638 -0.5219  0.7457
23107SOL    HW281300   4.815   2.397   7.745  1.0133 -2.3527  1.4487
23108SOL     OW81301   1.375   8.835   0.906 -0.3376  0.4594 -0.6087
23108SOL    HW181302   1.437   8.857   0.837  1.5579  1.1049  1.2078
23108SOL    HW281303   1.331   8.918   0.926  0.0393  0.5646 -0.1940
23109SOL     OW81304   6.268   6.002   8.783 -0.1004 -0.1665  0.0548
23109SOL    HW181305   6.327   5.987   8.709 -0.1560 -1.0066  0.1702
23109SOL    HW281306   6.205   5.930   8.778 -0.1061 -0.2331  0.9097
23110SOL     OW81307   9.829   0.076   5.280 -0.4714  0.3594 -0.4591
23110SOL    HW181308   9.796   0.144   5.339 -0.6962 -0.3081  0.2069
23110SOL    HW281309   9.923   0.072   5.298 -0.4127  0.6625 -0.6843
23111SOL     OW81310   2.298   5.780   8.077  0.4418 -0.1788 -0.2036
23111SOL    HW181311   2.268   5.734   7.999  2.0963 -1.4379 -0.1660
23111SOL    HW281312   2.362   5.843   8.044 -0.4800  0.8457 -0.0662
23112SOL     OW81313   7.355   3.138   5.989  0.0464 -0.1498 -0.0430
23112SOL    HW181314   7.284   3.077   5.967 -0.3286 -0.0014  0.7277
23112SOL    HW281315   7.311   3.223   5.999  0.4690  0.1196 -0.4390
23113SOL     OW81316   0.164   5.158   9.626  0.3891  0.0438 -0.1032
23113SOL    HW181317   0.102   5.215   9.672  1.6339  2.5098 -1.2915
23113SOL    HW281318   0.212   5.114   9.696  0.3915  1.5972  0.9262
23114SOL     OW81319   0.173   4.191   4.568  0.1077  0.5345  0.1619
23114SOL    HW181320   0.220   4.109   4.550 -1.6264 -0.9961  2.0284
23114SOL    HW281321   0.103   4.193   4.503  0.1970  0.5695  0.0667
23115SOL     OW81322   8.194   0.062   8.310 -0.3994  0.4774 -0.4340
23115SOL    HW181323   8.130   0.131   8.294 -1.2655  0.0763  1.1460
23115SOL    HW281324   8.272   0.108   8.340 -0.7639  0.8154  0.0036
23116SOL     OW81325  10.322   9.527   5.882  0.1270 -0.1223 -0.0263
23116SOL    HW181326  10.360   9.579   5.812 -0.4500  0.8168  0.3362
23116SOL    HW281327  10.286   9.592   5.944 -0.7994 -0.9388  0.3272
23117SOL     OW81328   4.471   0.767   8.534  0.2452 -0.3887  1.0601
23117SOL    HW181329   4.511   0.805   8.612  0.3881  0.0910  0.7576
23117SOL    HW281330   4.457   0.841   8.476  0.8071 -0.8357  0.3391
23118SOL     OW81331   7.425   9.513   7.558  0.1470 -0.0816  0.0704
23118SOL    HW181332   7.441   9.550   7.471 -0.8444 -1.9463 -0.9840
23118SOL    HW281333   7.502   9.536   7.609  1.7780 -0.7803 -1.9568
23119SOL     OW81334   0.857   9.734   4.307  0.1653  0.1394 -0.0756
23119SOL    HW181335   0.920   9.694   4.366  0.2408 -0.4470 -0.5440
23119SOL    HW281336   0.899   9.731   4.221 -1.2438 -2.0378 -0.7712
23120SOL     OW81337   5.704   6.881   6.833 -0.0087 -1.1056 -0.6913
23120SOL    HW181338   5.791   6.852   6.804  0.4304 -1.9568  1.2600
23120SOL    HW281339   5.713   6.974   6.850 -0.1749 -0.6715 -2.7568
23121SOL     OW81340   2.536   6.564   0.975 -0.2520 -0.5675  0.4884
23121SOL    HW181341   2.490   6.527   0.900  0.3172 -2.2525  0.9331
23121SOL    HW281342   2.467   6.593   1.034 -0.7269  1.6575 -1.0310
23122SOL     OW81343   0.056   7.139   3.111 -0.2128 -0.1112 -0.3693
23122SOL    HW181344   0.141   7.176   3.088 -0.3380  0.1216 -0.4649
23122SOL    HW281345   0.006   7.213   3.148 -0.2853 -0.3043 -0.0795
23123SOL     OW81346   4.933   0.099   7.754  0.0608 -0.1943 -0.5508
23123SOL    HW181347   5.000   0.074   7.818 -0.2552  0.9804  0.2682
23123SOL    HW281348   4.983   0.117   7.674  0.3594 -2.7265 -1.0114
23124SOL     OW81349   2.641   2.634   7.848 -0.0448 -0.2051 -0.0564
23124SOL    HW181350   2.570   2.594   7.797 -0.2618  0.0297  0.0599
23124SOL    HW281351   2.651   2.722   7.811  1.4588 -0.8627 -1.3293
23125SOL     OW81352   5.487  10.032   0.763  0.1018  0.4341  0.3434
23125SOL    HW181353   5.457  10.065   0.848 -3.3462  1.6670 -1.1634
23125SOL    HW281354   5.473   9.938   0.767 -2.9163  0.7704  0.2896
23126SOL     OW81355   7.603   2.624   0.383 -0.2243 -0.2288  0.2369
23126SOL    HW181356   7.655   2.545   0.374  2.3356  1.1747  1.5883
23126SOL    HW281357   7.593   2.636   0.478 -0.1725  1.2506  0.0848
23127SOL     OW81358   6.837   0.029   5.539 -0.8249 -0.2600  0.6539
23127SOL    HW181359   6.780  -0.003   5.609 -1.5496 -1.3561 -0.3902
23127SOL    HW281360   6.922  -0.011   5.557 -1.3383 -1.6015  0.2143
23128SOL     OW81361   2.011  10.196   3.799 -0.3562 -0.1170 -0.1727
23128SOL    HW181362   2.033  10.271   3.854 -2.2055  0.6340 -0.3671
23128SOL    HW281363   2.056  10.212   3.716 -0.0092  0.3119  0.0979
23129SOL     OW81364   2.967   5.899   6.487 -0.1582 -0.2970 -0.3140
23129SOL    HW181365   2.942   5.981   6.529 -0.1432 -0.6474  0.4106
23129SOL    HW281366   2.891   5.841   6.500 -0.2062 -0.3696 -0.8980
23130SOL     OW81367   8.655   5.970   9.966 -0.4880  0.4104 -0.1079
23130SOL    HW181368   8.646   5.944  10.057  0.0313  0.3036 -0.0888
23130SOL    HW281369   8.576   5.935   9.923 -1.2243  1.2886  0.4800
23131SOL     OW81370   3.994   8.941   9.718 -0.6546  0.4255  0.2933
23131SOL    HW181371   3.974   8.945   9.812  0.8878  0.9491  0.6255
23131SOL    HW281372   3.947   8.864   9.687  1.2427 -1.6233  2.1566
23132SOL     OW81373   7.666   2.459   7.463 -0.0733 -0.4292 -0.2734
23132SOL    HW181374   7.599   2.391   7.465  1.3066 -1.8410  0.9139
23132SOL    HW281375   7.655   2.507   7.545 -0.5250  0.2651 -0.7337
23133SOL     OW81376   5.965   2.159   7.828 -0.4817  0.3125 -0.3709
23133SOL    HW181377   5.970   2.158   7.732 -0.0641  1.7718 -0.4023
23133SOL    HW281378   6.027   2.092   7.856  0.6706  1.0060 -1.1320
23134SOL     OW81379   3.697  10.295   1.305  0.0376 -0.4047 -0.4307
23134SOL    HW181380   3.618  10.298   1.252 -1.1119 -0.9048  1.1876
23134SOL    HW281381   3.768  10.310   1.243 -1.3960  1.4324 -1.7339
23135SOL     OW81382   8.558   1.388   1.588  0.0904 -0.0784 -0.1094
23135SOL    HW181383   8.481   1.402   1.644 -0.7850 -1.8253 -0.7871
23135SOL    HW281384   8.594   1.305   1.617 -0.0552 -0.7515 -1.7122
23136SOL     OW81385   7.550   6.729   2.239 -0.2204 -0.3586 -0.7254
23136SOL    HW181386   7.553   6.795   2.308  0.3351 -0.8008 -0.3187
23136SOL    HW281387   7.543   6.780   2.158  0.6278  0.2215 -0.4491
23137SOL     OW81388   7.317  10.158   6.714  0.6396 -0.0805 -0.0289
23137SOL    HW181389   7.261  10.119   6.648  1.1053 -2.3766  0.8484
23137SOL    HW281390   7.405  10.154   6.676  0.5028  1.8712 -0.6670
23138SOL     OW81391   4.898  10.033   4.263 -0.0075  0.2185 -0.5242
23138SOL    HW181392   4.879  10.068   4.351  0.3768 -2.1595  0.5941
23138SOL    HW281393   4.984  10.070   4.241 -0.7910  2.0724 -0.6197
23139SOL     OW81394   7.762   8.045   8.002 -0.2273 -0.0856  0.7271
23139SOL    HW181395   7.753   7.984   7.929 -0.1138 -0.4365  1.0060
23139SOL    HW281396   7.773   8.131   7.960 -2.6106  0.0883  0.3372
23140SOL     OW81397  10.275   7.450   0.872  0.0941 -0.1400 -0.2144
23140SOL    HW181398  10.212   7.388   0.911  3.0480 -2.3432  1.4746
23140SOL    HW281399  10.292   7.415   0.785 -0.0922 -0.2622 -0.2024
23141SOL     OW81400   5.335   6.180   7.205 -0.6126  0.0212  0.2032
23141SOL    HW181401   5.274   6.131   7.149  0.2843 -2.4019  1.1719
23141SOL    HW281402   5.422   6.151   7.177 -0.0420  0.9447  0.9626
23142SOL     OW81403   6.367   4.871   8.708  0.3575  0.2548 -0.1397
23142SOL    HW181404   6.411   4.808   8.765 -0.0927 -0.8561 -0.9932
23142SOL    HW281405   6.396   4.957   8.741 -1.4787 -0.2093  3.1313
23143SOL     OW81406   6.907   1.541   2.310 -0.2697  0.0135  0.5202
23143SOL    HW181407   6.964   1.528   2.385 -0.5105 -0.0796  0.6872
23143SOL    HW281408   6.949   1.611   2.260 -0.5118  0.6144  1.1454
23144SOL     OW81409   0.197   1.670   2.811 -0.9619 -0.4459 -0.3614
23144SOL    HW181410   0.239   1.585   2.797 -2.4726 -1.2080 -0.5200
23144SOL    HW281411   0.237   1.704   2.891 -0.5524 -1.4610 -0.1234
23145SOL     OW81412   8.369   5.512   9.825 -0.0372  0.0177  0.1886
23145SOL    HW181413   8.456   5.514   9.783  0.5655  1.0399  1.4091
23145SOL    HW281414   8.380   5.453   9.899 -1.3233 -2.4301 -1.4495
23146SOL     OW81415   7.815   5.848   7.867  0.5941  0.2777  0.0783
23146SOL    HW181416   7.796   5.888   7.782  0.4046 -1.9063 -0.9746
23146SOL    HW281417   7.890   5.792   7.851 -0.4968 -1.5070  0.8916
23147SOL     OW81418  10.222   3.618   7.334 -0.2304 -0.0095 -0.6220
23147SOL    HW181419  10.264   3.690   7.286 -0.8094  0.6839 -0.1001
23147SOL    HW281420  10.130   3.625   7.312 -0.1726 -1.1482 -1.2677
23148SOL     OW81421   9.249   0.628   3.769  0.1294 -0.4534  0.0476
23148SOL    HW181422   9.307   0.693   3.809  0.3339 -0.4454 -0.2573
23148SOL    HW281423   9.288   0.611   3.683 -0.4018 -0.3379 -0.2189
23149SOL     OW81424   3.274   0.889   3.363 -0.7305  0.2823 -0.3064
23149SOL    HW181425   3.356   0.843   3.379 -0.7320  0.7860  1.4348
23149SOL    HW281426   3.234   0.844   3.289 -0.5189 -2.2695  1.0188
23150SOL     OW81427   5.777   9.483   2.884 -0.2043 -0.4193  0.2718
23150SOL    HW181428   5.696   9.462   2.838 -0.0457  0.0334 -0.2214
23150SOL    HW281429   5.830   9.403   2.876 -1.0577 -1.1720  1.6523
23151SOL     OW81430   6.046   9.415   2.301  0.0793  0.3436  0.3733
23151SOL    HW181431   6.049   9.493   2.357  0.0195  0.1299  0.6788
23151SOL    HW281432   5.983   9.357   2.345 -0.1087  0.2517 -0.0173
23152SOL     OW81433   3.635   6.435   9.049  0.2349  0.0278  0.6011
23152SOL    HW181434   3.573   6.485   9.102  0.5017 -0.2674  1.2043
23152SOL    HW281435   3.661   6.362   9.105  0.2751 -0.4791 -0.0603
23153SOL     OW81436   0.014   0.099   5.857  0.4389 -0.5918  0.2329
23153SOL    HW181437   0.068   0.085   5.779  1.4808  1.2143  0.5665
23153SOL    HW281438   0.053   0.041   5.924  1.6271  0.2289  0.2937
23154SOL     OW81439   9.709   2.348   5.974 -0.1224  0.0981  0.1267
23154SOL    HW181440   9.615   2.346   5.952 -0.1879 -0.7343  0.4435
23154SOL    HW281441   9.726   2.439   5.998 -0.7259  0.3796 -0.4712
23155SOL     OW81442   5.281   0.508   3.199  0.0117 -0.2770 -0.1651
23155SOL    HW181443   5.268   0.603   3.193 -0.3015 -0.4087 -1.8956
23155SOL    HW281444   5.341   0.488   3.127  3.3925 -0.8762  2.5129
23156SOL     OW81445   0.380  10.321   9.351  0.3800 -0.0897 -0.1181
23156SOL    HW181446   0.372  10.279   9.436 -1.1048 -1.4921 -0.9070
23156SOL    HW281447   0.338  10.261   9.290 -0.0368  1.6228 -1.6097
23157SOL     OW81448  10.304   5.595   3.662  0.0398  0.0045 -0.9512
23157SOL    HW181449  10.229   5.538   3.644 -0.9171  0.3466  1.5501
23157SOL    HW281450  10.302   5.660   3.593 -0.6703 -1.2300 -2.1392
23158SOL     OW81451   7.154  10.225   6.370 -0.2617  0.2053 -0.5097
23158SOL    HW181452   7.176  10.316   6.347 -0.6380  0.5405  0.3793
23158SOL    HW281453   7.079  10.234   6.430  0.2765 -0.6359  0.3136
23159SOL     OW81454  10.034   0.425   1.078 -0.3449  0.6514  0.0129
23159SOL    HW181455  10.017   0.483   1.153 -0.1909  0.2211  0.3877
23159SOL    HW281456  10.017   0.480   1.001 -1.1200  0.9201  0.3612
23160SOL     OW81457   9.827   5.503   6.574  0.1462 -0.2163 -0.1621
23160SOL    HW181458   9.858   5.551   6.497  1.4346  0.7862  0.9423
23160SOL    HW281459   9.755   5.449   6.540 -0.6661  1.6898 -1.6705
23161SOL     OW81460   9.829   8.570   7.507  0.8416 -0.3203 -0.2594
23161SOL    HW181461   9.747   8.569   7.557 -0.6696 -1.5060 -2.5733
23161SOL    HW281462   9.886   8.510   7.555  0.2526  0.2590  1.2183
23162SOL     OW81463   7.885   8.398   6.467  0.2551  0.1195 -0.2548
23162SOL    HW181464   7.812   8.432   6.520 -0.6280 -0.8017 -0.8326
23162SOL    HW281465   7.890   8.305   6.491  0.4608 -0.0882 -1.0899
23163SOL     OW81466   6.846   8.587   0.006  0.8463 -0.3989  0.0306
23163SOL    HW181467   6.828   8.508  -0.045  1.2186 -2.0467  2.2672
23163SOL    HW281468   6.767   8.640  -0.004 -1.5352 -3.1947  2.0798
23164SOL     OW81469   6.384   6.692   5.172 -0.2871  0.0600 -0.3370
23164SOL    HW181470   6.390   6.663   5.262 -0.4241  0.8363 -0.0673
23164SOL    HW281471   6.468   6.667   5.133  0.1083  0.4770  0.2368
23165SOL     OW81472   8.728   8.834   9.067  0.4997 -0.0438 -0.4577
23165SOL    HW181473   8.745   8.868   9.155 -1.5586 -0.3207  0.0909
23165SOL    HW281474   8.814   8.835   9.025  1.3820  0.9896  1.2229
23166SOL     OW81475   4.838   4.217   1.852 -0.4833  0.2369 -0.1588
23166SOL    HW181476   4.853   4.231   1.759  0.1490  2.1575  0.1914
23166SOL    HW281477   4.794   4.296   1.882  2.0330  1.0781  1.7145
23167SOL     OW81478   9.137   4.674   5.815  0.4893  0.4660 -0.1061
23167SOL    HW181479   9.117   4.648   5.905 -0.6276 -2.0684 -0.9938
23167SOL    HW281480   9.137   4.770   5.817  0.7993  0.4805  2.6216
23168SOL     OW81481   8.225   1.862   9.304 -0.2532 -0.2096 -0.0336
23168SOL    HW181482   8.173   1.785   9.330  0.9548 -1.2320 -0.5456
23168SOL    HW281483   8.287   1.873   9.376  1.5706 -1.6219 -1.3047
23169SOL     OW81484   0.333   1.061   5.445  0.4811  0.2130 -0.3667
23169SOL    HW181485   0.286   1.101   5.518  0.1897 -0.4410 -0.1923
23169SOL    HW281486   0.290   0.976   5.432  0.4321  0.3799 -1.3893
23170SOL     OW81487   6.484   1.855   9.874  0.6455 -0.3012 -0.1646
23170SOL    HW181488   6.557   1.912   9.896 -0.7889  1.8758 -0.7418
23170SOL    HW281489   6.482   1.790   9.944  2.2111  0.4808  0.6500
23171SOL     OW81490   9.297   9.051   5.503  0.5102 -0.3009 -0.1479
23171SOL    HW181491   9.289   8.967   5.550  1.2718  0.0708  0.6687
23171SOL    HW281492   9.389   9.075   5.513  0.2396  0.7672 -0.1449
23172SOL     OW81493   1.649   3.658   0.855 -0.0397  0.1311 -0.1564
23172SOL    HW181494   1.699   3.664   0.936 -1.3526 -1.8845  0.8946
23172SOL    HW281495   1.651   3.565   0.832  2.1248  0.8324 -3.7479
23173SOL     OW81496   5.424   8.597   1.775 -0.0110  0.7923 -0.0600
23173SOL    HW181497   5.446   8.523   1.831 -0.7687  1.7058  1.5319
23173SOL    HW281498   5.410   8.559   1.688  1.0635 -0.6928  0.3853
23174SOL     OW81499   7.865   3.927   8.982 -0.2696 -0.6874  0.1933
23174SOL    HW181500   7.869   3.907   8.889 -1.0094 -0.1553  0.0456
23174SOL    HW281501   7.957   3.925   9.010 -0.0874 -1.4500 -0.4078
23175SOL     OW81502   9.475   9.948   3.297 -0.9242 -0.5543  0.3446
23175SOL    HW181503   9.530   9.900   3.235  1.1064  1.9717  0.0034
23175SOL    HW281504   9.462   9.888   3.370  0.1046 -2.1689 -0.7413
23176SOL     OW81505   0.876   9.434   9.674  0.2001  0.0349  0.2406
23176SOL    HW181506   0.821   9.493   9.725 -0.0847  0.5501 -0.6342
23176SOL    HW281507   0.844   9.443   9.584  0.1954 -1.4172  0.0827
23177SOL     OW81508   9.958   9.983   6.476 -0.1237 -0.1866  0.1156
23177SOL    HW181509   9.920  10.044   6.538 -1.3466 -1.4875  0.7075
23177SOL    HW281510   9.985   9.908   6.529  1.8159  0.0219 -0.5153
23178SOL     OW81511   7.073  10.131   0.789  0.8023 -0.1591  0.3356
23178SOL    HW181512   7.075  10.062   0.723  2.0637 -2.2924  2.4462
23178SOL    HW281513   6.994  10.181   0.769  1.3017 -0.4072 -2.9487
23179SOL     OW81514   0.622   6.393   5.564  0.0605 -0.0203  0.2091
23179SOL    HW181515   0.658   6.377   5.476 -0.8728  1.7350 -0.5375
23179SOL    HW281516   0.666   6.473   5.593  0.8838 -0.9729  1.6732
23180SOL     OW81517   7.684   1.918   6.738  0.2006  0.2014  0.1212
23180SOL    HW181518   7.774   1.884   6.730  0.7768  0.9696  2.5962
23180SOL    HW281519   7.691   2.010   6.714  0.2144  0.4077  0.8948
23181SOL     OW81520   1.919   6.923   8.500 -0.1099  0.1286  0.4882
23181SOL    HW181521   1.884   6.840   8.469 -2.0045  1.0354  0.0122
23181SOL    HW281522   2.014   6.913   8.497 -0.2936 -2.1160  0.7772
23182SOL     OW81523   1.008   8.078   2.995 -0.0991  0.0468 -0.2085
23182SOL    HW181524   0.956   8.101   3.071 -1.7799 -1.9456 -0.6742
23182SOL    HW281525   1.098   8.075   3.028 -0.4849  1.4535  1.1062
23183SOL     OW81526   0.667   1.499   4.528  0.8727 -0.2442 -0.0005
23183SOL    HW181527   0.690   1.552   4.604  0.8119  0.9018 -0.7677
23183SOL    HW281528   0.581   1.530   4.501  1.1009 -0.3023 -0.8314
23184SOL     OW81529   4.938   1.321   7.050  0.5049  0.4600 -0.2995
23184SOL    HW181530   4.989   1.362   7.119 -0.6466  0.2798  0.6902
23184SOL    HW281531   5.002   1.277   6.995  1.4568  0.7632  0.5530
23185SOL     OW81532   3.776   3.157   7.101  0.1071 -0.5109 -0.1918
23185SOL    HW181533   3.774   3.117   7.188  0.2809 -0.5219 -0.1917
23185SOL    HW281534   3.753   3.249   7.117  0.0446 -0.5338 -0.1474
23186SOL     OW81535   3.143   8.359   2.917 -0.5227 -0.3943 -0.4021
23186SOL    HW181536   3.136   8.300   2.842  1.5174 -0.4677 -0.6148
23186SOL    HW281537   3.237   8.357   2.939 -0.3455  2.7578 -0.4304
23187SOL     OW81538   6.447   6.557   0.181 -0.1715  0.2156  0.4242
23187SOL    HW181539   6.430   6.633   0.236  0.5338  0.6615  0.0355
23187SOL    HW281540   6.533   6.526   0.209 -0.9052 -1.0998  1.3264
23188SOL     OW81541   5.584   2.214   5.803 -0.2713  0.0202  0.6639
23188SOL    HW181542   5.677   2.222   5.782 -0.1072 -1.5289  0.6774
23188SOL    HW281543   5.562   2.296   5.845  0.6906  1.0680 -0.7711
23189SOL     OW81544   8.118   8.051   9.420 -0.7826  0.1828 -0.3539
23189SOL    HW181545   8.056   8.105   9.371  0.2327  1.3031 -0.4426
23189SOL    HW281546   8.192   8.039   9.360 -0.8179 -1.0004 -0.1902
23190SOL     OW81547   2.180   8.207   1.565 -0.3164  0.3744  0.4021
23190SOL    HW181548   2.086   8.226   1.565 -0.1918  1.0319 -0.2348
23190SOL    HW281549   2.219   8.278   1.515  1.0161  2.4869  4.0699
23191SOL     OW81550   4.128   6.809   9.622 -0.5482  0.5080  0.2719
23191SOL    HW181551   4.206   6.768   9.659 -1.3809 -0.5292  0.9705
23191SOL    HW281552   4.123   6.776   9.532 -1.2463 -1.0623  0.8461
23192SOL     OW81553   6.039  10.037   5.989  0.0918  0.2872 -0.6582
23192SOL    HW181554   6.026  10.102   5.921  0.8280  1.7055  0.4996
23192SOL    HW281555   6.059   9.956   5.942  0.0507  1.1039 -2.1128
23193SOL     OW81556  10.007   7.692   6.739  0.2590 -0.0434 -0.3091
23193SOL    HW181557  10.016   7.774   6.788  0.6360 -0.0853 -0.3113
23193SOL    HW281558   9.927   7.653   6.774  1.1099 -0.6295  1.0863
23194SOL     OW81559   3.098   1.999   5.862 -0.1919  0.1677 -0.2422
23194SOL    HW181560   3.034   1.953   5.807 -0.7668  1.1545 -0.4189
23194SOL    HW281561   3.113   1.939   5.935  1.1453 -1.5077 -1.7966
23195SOL     OW81562   6.041   1.618  10.088 -0.2171  0.2635 -0.2626
23195SOL    HW181563   5.967   1.567  10.120 -0.8525  0.9890 -0.5379
23195SOL    HW281564   6.002   1.683  10.030  0.7371  0.0858 -1.1291
23196SOL     OW81565  10.347  10.130   2.993  0.0526 -0.0052 -0.0778
23196SOL    HW181566  10.271  10.150   2.939  1.6504  2.7352 -1.5764
23196SOL    HW281567  10.387  10.215   3.010  3.6541 -1.3681 -0.8028
23197SOL     OW81568   0.754   4.884   3.516  0.4200 -0.1097 -0.4027
23197SOL    HW181569   0.836   4.872   3.563 -0.0128  0.9573  0.6624
23197SOL    HW281570   0.727   4.795   3.492  1.9056 -0.4663 -0.8372
23198SOL     OW81571   6.651   5.470   8.023  0.0345 -0.2850 -0.6018
23198SOL    HW181572   6.584   5.458   7.956 -0.1890 -0.4651 -0.3459
23198SOL    HW281573   6.607   5.449   8.105 -0.6058  2.8118 -0.0038
23199SOL     OW81574   5.264   7.526   4.047  0.2410 -0.2563 -0.1179
23199SOL    HW181575   5.182   7.528   4.096  0.0523  1.4263 -0.4515
23199SOL    HW281576   5.241   7.553   3.959  0.9885 -0.8179 -0.5007
23200SOL     OW81577   6.943  10.047   7.555  0.2586  0.5953  0.1792
23200SOL    HW181578   7.030  10.017   7.529 -0.3245  0.1355 -1.3976
23200SOL    HW281579   6.944  10.141   7.536  0.3471  0.5483 -0.0569
23201SOL     OW81580   3.580   6.822   8.982  0.0587 -0.1248  0.2771
23201SOL    HW181581   3.567   6.870   8.900 -1.5917 -0.9427  0.0189
23201SOL    HW281582   3.591   6.890   9.048  0.6722  0.5605 -0.5004
23202SOL     OW81583   7.503   6.752   2.729  0.1933 -0.6623  0.5481
23202SOL    HW181584   7.543   6.764   2.643  0.6131 -0.8056  0.7233
23202SOL    HW281585   7.444   6.827   2.738  0.1753 -0.6248  0.1538
23203SOL     OW81586   2.032   1.778   5.813  0.0741  0.4303 -0.3739
23203SOL    HW181587   2.041   1.857   5.866  1.8889 -0.3259  0.4911
23203SOL    HW281588   2.062   1.804   5.726  1.7331  0.4391  0.1759
23204SOL     OW81589   3.003   3.493   9.408 -0.0150  0.0517 -0.2035
23204SOL    HW181590   3.093   3.464   9.401 -0.0285  0.0866 -0.5471
23204SOL    HW281591   2.980   3.522   9.319 -0.8237 -1.2894 -0.4475
23205SOL     OW81592  10.020   4.288   1.018  0.3635 -0.1885 -0.2087
23205SOL    HW181593  10.066   4.349   1.076  0.1697 -0.1495 -0.0952
23205SOL    HW281594   9.928   4.297   1.042  0.2600 -0.0332 -0.6589
23206SOL     OW81595   0.495   5.597   6.781  0.3127 -0.2256  0.3003
23206SOL    HW181596   0.406   5.616   6.751  0.4016 -0.2459  0.0219
23206SOL    HW281597   0.494   5.616   6.875  0.4843  1.5060 -0.0147
23207SOL     OW81598   0.342   6.172   4.501 -0.2970 -0.4051 -0.2461
23207SOL    HW181599   0.385   6.106   4.446  0.5271 -0.6632  0.6838
23207SOL    HW281600   0.256   6.183   4.461 -0.3319 -1.8061 -0.6208
23208SOL     OW81601   7.353   0.260   1.701  0.0322 -0.3013 -0.3900
23208SOL    HW181602   7.306   0.292   1.778 -0.4652 -0.6764 -0.5337
23208SOL    HW281603   7.359   0.165   1.713 -0.0611 -0.3670 -0.8121
23209SOL     OW81604   1.821   4.878   2.041  0.2319  0.4670  0.2896
23209SOL    HW181605   1.860   4.952   2.088  1.2973 -0.4418  0.8650
23209SOL    HW281606   1.734   4.868   2.081  0.2777  1.0749  0.5533
23210SOL     OW81607   3.798   5.729   5.056 -0.2520 -0.1249 -0.4613
23210SOL    HW181608   3.746   5.707   5.133  1.6509  2.1652  1.6584
23210SOL    HW281609   3.851   5.651   5.039 -0.1879 -0.4307  1.0385
23211SOL     OW81610   8.676   2.369   0.360  0.1515 -0.4540  0.1774
23211SOL    HW181611   8.748   2.388   0.421  0.3848  0.5834 -0.3972
23211SOL    HW281612   8.715   2.377   0.273 -0.8105  0.8382 -0.1582
23212SOL     OW81613   0.288   7.444   4.155  0.0868  0.0147  0.6702
23212SOL    HW181614   0.298   7.459   4.061 -0.7600 -1.7661  0.2707
23212SOL    HW281615   0.201   7.479   4.176  0.5538  1.0525  0.9657
23213SOL     OW81616   1.753   3.904   5.007 -0.0072 -0.2585 -0.6924
23213SOL    HW181617   1.808   3.833   5.042  0.4317 -0.5432 -1.9081
23213SOL    HW281618   1.695   3.861   4.944  0.3764  0.4742 -1.5713
23214SOL     OW81619   2.374   9.807   8.738  0.1660 -0.5765 -0.1569
23214SOL    HW181620   2.408   9.872   8.677 -1.6699  0.9707  0.3568
23214SOL    HW281621   2.450   9.779   8.788  1.4253 -0.6831 -2.0270
23215SOL     OW81622   7.216   6.471   6.270  0.2734  0.0579 -0.1932
23215SOL    HW181623   7.225   6.489   6.363  0.3757 -1.4180  0.0956
23215SOL    HW281624   7.167   6.389   6.265  0.9108 -0.2796 -1.4228
23216SOL     OW81625   9.017   5.690   8.378  0.0215 -0.4533  0.1676
23216SOL    HW181626   8.997   5.610   8.330 -0.5064 -0.4717  0.4091
23216SOL    HW281627   9.106   5.712   8.352  0.3946 -1.4436  0.5565
23217SOL     OW81628  10.240   5.553  10.293  0.0086 -0.3273  0.8017
23217SOL    HW181629  10.291   5.582  10.218  0.8244 -2.0647  0.6360
23217SOL    HW281630  10.157   5.521  10.256 -0.6496  1.1713  0.9272
23218SOL     OW81631   8.869   0.682   5.764 -0.3087 -0.2169  0.1397
23218SOL    HW181632   8.786   0.643   5.790 -1.0106  0.2183 -1.3149
23218SOL    HW281633   8.864   0.773   5.795 -0.4276 -0.1596 -0.0460
23219SOL     OW81634   7.261   7.052   9.699  0.1511  0.0212 -0.1278
23219SOL    HW181635   7.332   7.035   9.760  1.7638  2.0139 -1.3231
23219SOL    HW281636   7.303   7.058   9.613 -1.6639 -0.1091 -1.0900
23220SOL     OW81637   5.775   9.732   7.247 -0.2066  0.3241 -0.6111
23220SOL    HW181638   5.681   9.724   7.233 -0.1519 -1.1397 -0.2723
23220SOL    HW281639   5.799   9.655   7.299  0.9981  1.2352  0.2438
23221SOL     OW81640   5.367  10.062   5.170 -0.4344  0.0828 -1.0292
23221SOL    HW181641   5.376  10.035   5.262  0.3317  1.8221 -0.5452
23221SOL    HW281642   5.279  10.033   5.145 -0.9953  0.3372  0.5292
23222SOL     OW81643   8.768   9.386  10.392  0.0140  0.0820  0.4000
23222SOL    HW181644   8.707   9.365  10.321 -1.0178  0.8003  1.0270
23222SOL    HW281645   8.854   9.360  10.360 -0.6017 -0.7583 -0.6102
23223SOL     OW81646   7.592   3.510   8.427  0.0737 -0.0189  0.3204
23223SOL    HW181647   7.644   3.432   8.444 -0.1835  0.3174  3.1357
23223SOL    HW281648   7.511   3.497   8.477 -0.2237  1.7736  0.3889
23224SOL     OW81649   9.379  10.382  10.348  0.3280  0.6332  0.4443
23224SOL    HW181650   9.417  10.368  10.262 -0.1586  0.0041  0.3178
23224SOL    HW281651   9.453  10.377  10.409  0.6604  1.0075  0.0713
23225SOL     OW81652   6.751   5.168   8.258 -0.4347  0.3715  0.3685
23225SOL    HW181653   6.728   5.106   8.328 -0.0109  0.9182  1.0050
23225SOL    HW281654   6.839   5.142   8.231 -1.0746 -0.6268 -0.8547
23226SOL     OW81655   6.555   8.120   6.037 -0.1792 -0.1700  0.0140
23226SOL    HW181656   6.549   8.029   6.009 -0.8347 -0.0398 -0.2882
23226SOL    HW281657   6.492   8.166   5.982 -0.8947  0.2264  1.1404
23227SOL     OW81658   3.535  10.301   5.835 -0.0495  0.1963 -0.2190
23227SOL    HW181659   3.549  10.333   5.924 -0.9549  0.4252 -0.1464
23227SOL    HW281660   3.459  10.244   5.842 -0.1979  0.3092 -0.8619
23228SOL     OW81661   8.484   5.621   1.587 -0.3100 -0.5472 -1.2275
23228SOL    HW181662   8.527   5.584   1.665  0.6723  0.8209 -1.0844
23228SOL    HW281663   8.516   5.711   1.582 -2.0538  0.0777 -1.9848
23229SOL     OW81664   6.795   8.777   6.533 -0.4940  0.1167 -0.5365
23229SOL    HW181665   6.739   8.821   6.470 -2.7557 -0.6661  0.8087
23229SOL    HW281666   6.787   8.684   6.513  2.9104  0.0468 -2.2876
23230SOL     OW81667   2.626   8.325   1.191 -0.1509  0.6224  0.2241
23230SOL    HW181668   2.707   8.374   1.175  0.0757 -0.2110 -1.3972
23230SOL    HW281669   2.651   8.257   1.254  0.8277 -0.5589 -1.3714
23231SOL     OW81670   1.793   3.610   7.696 -0.6229 -0.1364  0.5693
23231SOL    HW181671   1.821   3.614   7.604  1.7244  1.4406  1.2573
23231SOL    HW281672   1.873   3.586   7.744 -0.7515  2.8573  2.5345
23232SOL     OW81673   4.254   9.001   7.708  0.2324 -0.4015 -0.3769
23232SOL    HW181674   4.320   8.951   7.659  0.8907 -2.6670  2.5594
23232SOL    HW281675   4.305   9.065   7.758 -0.1741  0.1846 -0.7047
23233SOL     OW81676   9.954   0.468   8.618 -0.4160 -0.1759  0.3970
23233SOL    HW181677  10.019   0.443   8.552  1.1791 -1.3229  2.2961
23233SOL    HW281678   9.939   0.561   8.601  0.8788 -0.1338 -0.8081
23234SOL     OW81679   4.404   0.685   8.154  0.3141  0.1622 -0.2331
23234SOL    HW181680   4.364   0.613   8.202 -0.1115 -0.1546 -1.0613
23234SOL    HW281681   4.497   0.682   8.179  0.0120  0.3407  0.9813
23235SOL     OW81682   9.641   4.645   0.389  0.1205 -0.2817 -0.4493
23235SOL    HW181683   9.581   4.577   0.419 -1.1519  0.7142 -0.6580
23235SOL    HW281684   9.642   4.637   0.294 -1.1128  0.8418 -0.5782
23236SOL     OW81685   7.264   6.615   7.063 -0.2948 -0.1496  0.0723
23236SOL    HW181686   7.330   6.557   7.025 -0.4023 -1.3905  1.6697
23236SOL    HW281687   7.313   6.679   7.114 -0.2223  0.6273 -0.9457
23237SOL     OW81688   5.536   0.187   9.589 -0.2318  0.0585 -0.1929
23237SOL    HW181689   5.619   0.209   9.547 -0.1304  0.3202  0.1455
23237SOL    HW281690   5.494   0.127   9.528  0.2697 -0.1899 -0.3017
23238SOL     OW81691   7.946   9.141   1.737  0.6878 -0.6701  0.2780
23238SOL    HW181692   7.852   9.149   1.757  0.5516 -0.4525 -0.4208
23238SOL    HW281693   7.980   9.230   1.748  0.4523 -0.3791 -1.2098
23239SOL     OW81694   8.958   4.066  10.334 -0.3551  0.8372 -0.4329
23239SOL    HW181695   9.021   3.994  10.339 -1.1028  0.2186  0.4112
23239SOL    HW281696   9.009   4.140  10.299  1.1472  0.6974  1.3119
23240SOL     OW81697   0.479   8.236   9.202 -0.6329  0.2094 -0.0627
23240SOL    HW181698   0.541   8.262   9.134  0.6717 -2.1530  0.0794
23240SOL    HW281699   0.477   8.310   9.262  1.0459  0.9080 -0.7843
23241SOL     OW81700   8.986   2.707   4.915 -0.1731  0.0267  0.2382
23241SOL    HW181701   8.911   2.686   4.859  0.5042  0.4762 -0.8871
23241SOL    HW281702   8.948   2.733   4.998 -1.3868  2.1673 -0.9031
23242SOL     OW81703   2.875   8.755   7.465  0.0451 -0.1955 -0.0647
23242SOL    HW181704   2.786   8.742   7.431 -0.0735 -0.6684  0.4060
23242SOL    HW281705   2.925   8.682   7.430  0.0893 -0.2900  0.1915
23243SOL     OW81706   9.262   1.406   4.724 -0.0274 -0.0473 -0.1795
23243SOL    HW181707   9.301   1.481   4.678  1.2783 -0.5228  0.1193
23243SOL    HW281708   9.323   1.387   4.796 -1.1673 -0.3918  0.7326
23244SOL     OW81709   7.097   8.225   9.254 -0.2106  0.1636 -0.4311
23244SOL    HW181710   7.159   8.172   9.203  0.6552 -0.7071  1.4355
23244SOL    HW281711   7.132   8.223   9.343 -1.6708  1.6367  0.2125
23245SOL     OW81712   1.739   5.011  10.279 -0.0441 -0.0124 -0.2456
23245SOL    HW181713   1.822   5.007  10.231 -0.3137 -0.0259 -0.7246
23245SOL    HW281714   1.673   5.026  10.211 -0.4380 -0.0370  0.1249
23246SOL     OW81715   3.725   9.965   9.097 -0.0403  0.0777 -0.6595
23246SOL    HW181716   3.726   9.961   9.001 -1.5219 -0.6424 -0.6794
23246SOL    HW281717   3.812   9.998   9.121  0.0838  1.0267 -2.2741
23247SOL     OW81718   0.106   9.849   8.765  0.4415 -0.2209 -0.3861
23247SOL    HW181719   0.147   9.908   8.701 -0.6747 -0.0073 -0.9391
23247SOL    HW281720   0.128   9.761   8.733  0.6747 -0.1131 -0.5288
23248SOL     OW81721   8.847   3.578   9.943  0.2211  0.1331  0.4789
23248SOL    HW181722   8.880   3.526  10.017  0.7734 -0.8939 -0.4670
23248SOL    HW281723   8.760   3.541   9.925  0.8788 -0.9578 -0.6153
23249SOL     OW81724   3.833   4.088  10.105 -0.0532 -0.2114  0.3707
23249SOL    HW181725   3.780   4.038  10.166  0.0642 -0.5374  0.2104
23249SOL    HW281726   3.846   4.028  10.031 -1.4156  0.6759 -0.6356
23250SOL     OW81727   8.608   9.603   0.956  0.5176  0.0571  0.0711
23250SOL    HW181728   8.571   9.623   1.042 -0.8447  0.4031 -0.5787
23250SOL    HW281729   8.571   9.517   0.933 -0.3424  0.6489 -0.8199
23251SOL     OW81730  10.077   2.759   6.769 -0.4522  0.4980 -0.4010
23251SOL    HW181731  10.085   2.707   6.849  0.4792  0.3833 -0.5605
23251SOL    HW281732  10.003   2.719   6.722 -0.4404  0.0143 -0.0143
23252SOL     OW81733   5.150   4.769   8.186  0.2187 -0.4361  0.3146
23252SOL    HW181734   5.128   4.733   8.272 -0.1812  0.5143  0.6198
23252SOL    HW281735   5.090   4.724   8.126  0.5581 -1.1645  0.5081
23253SOL     OW81736   1.526   0.107   0.896  0.1066 -0.1502  0.2581
23253SOL    HW181737   1.436   0.092   0.868 -0.0259  1.7611 -0.4741
23253SOL    HW281738   1.518   0.163   0.973  0.6731 -0.1052  0.2901
23254SOL     OW81739   0.109   2.263   3.875  0.1032  0.2363 -0.2419
23254SOL    HW181740   0.052   2.189   3.895 -0.1897  0.8474  1.3713
23254SOL    HW281741   0.059   2.315   3.812 -1.2628  0.8461  1.2688
23255SOL     OW81742   5.440   4.940   5.507 -0.4670  0.5095 -0.3280
23255SOL    HW181743   5.455   4.862   5.453 -0.3808  1.1914 -1.3272
23255SOL    HW281744   5.505   5.003   5.475 -0.6944  1.0662  0.2981
23256SOL     OW81745  10.121   7.343   7.747 -0.0168 -0.0996  0.2625
23256SOL    HW181746  10.049   7.394   7.709 -0.6247  1.2755  2.9724
23256SOL    HW281747  10.200   7.375   7.702 -0.9505 -1.6925 -2.8190
23257SOL     OW81748   1.667   1.677   1.699 -0.0185 -0.1983 -0.2892
23257SOL    HW181749   1.599   1.742   1.718  1.6203  0.9893  2.0012
23257SOL    HW281750   1.654   1.609   1.765  0.6459 -0.2482 -0.2046
23258SOL     OW81751   9.922   8.589   7.013 -0.5549 -0.1466 -0.3162
23258SOL    HW181752   9.933   8.497   7.039 -1.2730 -0.2643 -0.3994
23258SOL    HW281753   9.861   8.625   7.077  0.5148  0.5652  0.3303
23259SOL     OW81754   2.346   3.372   9.052 -0.1816  0.4902  0.0557
23259SOL    HW181755   2.317   3.433   8.984 -0.0869  0.2487 -0.2010
23259SOL    HW281756   2.389   3.302   9.004  0.3831  0.5955  0.4041
23260SOL     OW81757   1.832   0.460   7.155 -0.8646 -0.2196 -0.1261
23260SOL    HW181758   1.806   0.371   7.131  0.0393 -0.8348  1.0783
23260SOL    HW281759   1.764   0.490   7.215 -1.5938  0.2339 -1.1418
23261SOL     OW81760   7.974   5.021   7.302  0.1088 -0.2959 -0.3095
23261SOL    HW181761   7.986   4.988   7.391 -1.0441 -1.0972 -0.4246
23261SOL    HW281762   8.063   5.041   7.272  0.4518  0.8665  1.3210
23262SOL     OW81763   9.460   9.742   3.495 -0.4090 -0.8765 -0.1407
23262SOL    HW181764   9.489   9.726   3.585 -0.7229  0.2026  0.1647
23262SOL    HW281765   9.396   9.672   3.478 -1.2803 -0.3619  0.9197
23263SOL     OW81766   5.442   8.709   8.087 -0.3672  0.0019 -0.1689
23263SOL    HW181767   5.466   8.793   8.049 -1.3531  0.7398  0.7591
23263SOL    HW281768   5.412   8.656   8.013  1.9069 -0.2001 -1.0260
23264SOL     OW81769   4.292   4.401   5.645  0.1771 -0.1301  0.3925
23264SOL    HW181770   4.269   4.464   5.714 -0.3202  0.1178  0.0053
23264SOL    HW281771   4.212   4.392   5.593  0.7179  0.1144 -0.4926
23265SOL     OW81772   8.070  10.020   5.339 -0.1313  0.6755 -0.4773
23265SOL    HW181773   8.038  10.049   5.254 -0.4347 -1.9213 -1.3564
23265SOL    HW281774   8.156   9.982   5.321 -0.3324 -0.1980  0.2705
23266SOL     OW81775   5.475   7.846   7.186 -0.1097 -0.5227 -0.0659
23266SOL    HW181776   5.516   7.893   7.259  0.5369 -0.7835 -0.2518
23266SOL    HW281777   5.466   7.913   7.118  1.8372 -0.8643 -0.7384
23267SOL     OW81778   4.025   5.648   6.846  0.0194 -0.2108  0.3388
23267SOL    HW181779   4.094   5.611   6.791 -1.7517 -2.2914 -0.6597
23267SOL    HW281780   4.046   5.741   6.853  1.5505 -0.3020 -1.9992
23268SOL     OW81781   1.487   7.607   6.487  0.4128  0.0858 -0.0182
23268SOL    HW181782   1.477   7.595   6.393  2.8275  1.1035 -0.4684
23268SOL    HW281783   1.398   7.597   6.522 -0.8940  1.6494 -2.5978
23269SOL     OW81784   4.283   6.909   5.175  0.1012  0.0649  0.4159
23269SOL    HW181785   4.304   6.965   5.249  1.3589  1.0674 -0.6413
23269SOL    HW281786   4.226   6.841   5.211 -0.2539  1.1660  2.0461
23270SOL     OW81787   5.831   7.186   7.893  0.2881 -0.4777  0.9343
23270SOL    HW181788   5.883   7.236   7.830 -0.9926  2.5632  2.1365
23270SOL    HW281789   5.751   7.164   7.845  0.3923 -0.4414  0.7419
23271SOL     OW81790   8.162   1.320   0.873 -0.3051  0.2587 -0.0593
23271SOL    HW181791   8.252   1.296   0.851  0.2061  2.1959 -0.2927
23271SOL    HW281792   8.115   1.237   0.876  2.0024 -1.1133  2.6237
23272SOL     OW81793   6.538   6.245   9.462 -0.3828  0.2091  0.3892
23272SOL    HW181794   6.526   6.205   9.548  0.3867  0.7218  0.7535
23272SOL    HW281795   6.577   6.330   9.480 -1.6357  0.9758 -0.3964
23273SOL     OW81796   6.917   0.297   7.861  0.3541  0.1502  1.1557
23273SOL    HW181797   6.924   0.381   7.907 -0.0590  0.4991  0.5900
23273SOL    HW281798   6.829   0.266   7.882 -0.3931  0.9944 -0.5075
23274SOL     OW81799  10.145   9.616   9.441 -0.4620 -0.3704  0.0595
23274SOL    HW181800  10.191   9.661   9.370  1.2347 -2.8990 -0.5470
23274SOL    HW281801  10.174   9.661   9.521 -2.1046  2.2541 -0.6836
23275SOL     OW81802   8.930   1.640   4.029 -0.5117 -0.3858 -0.1034
23275SOL    HW181803   8.915   1.717   4.084 -0.2739 -0.4582  0.0612
23275SOL    HW281804   8.877   1.571   4.070  0.6440 -0.7742  0.7663
23276SOL     OW81805   0.062   5.826   3.618 -0.4292 -0.1332 -0.1836
23276SOL    HW181806   0.067   5.848   3.525 -0.1903  3.1024  0.4629
23276SOL    HW281807   0.151   5.838   3.651 -0.8662  0.5620  0.7785
23277SOL     OW81808   4.377  10.344   0.957 -0.1517  0.4089  0.4009
23277SOL    HW181809   4.398  10.286   1.031 -1.2108 -0.9427 -0.3023
23277SOL    HW281810   4.363  10.284   0.883  0.5176  1.7053 -0.8213
23278SOL     OW81811   6.871   8.751   2.506  0.2700 -0.4514 -0.5690
23278SOL    HW181812   6.899   8.831   2.461 -1.5584  0.4845 -0.1399
23278SOL    HW281813   6.950   8.720   2.550  0.9990  1.2095 -0.6178
23279SOL     OW81814   4.733   7.420   7.384 -0.2470 -0.4541 -1.0811
23279SOL    HW181815   4.678   7.488   7.345  0.6561  0.1558 -1.3005
23279SOL    HW281816   4.811   7.418   7.330  1.9586  1.7809  1.6680
23280SOL     OW81817   5.582   5.241   6.342  0.1158  0.9928  0.1244
23280SOL    HW181818   5.593   5.221   6.249  0.3984 -0.4950  0.4507
23280SOL    HW281819   5.666   5.218   6.382 -0.3874  0.4404  0.9196
23281SOL     OW81820   9.546   5.695   6.486 -0.2025 -0.2404  0.1694
23281SOL    HW181821   9.537   5.716   6.579 -1.1546  0.6401 -0.0935
23281SOL    HW281822   9.455   5.687   6.455  0.1079 -1.0141 -0.5882
23282SOL     OW81823   3.688  10.383   8.611  0.2955 -0.6724  0.1194
23282SOL    HW181824   3.754  10.370   8.679  0.5345  0.4134  0.1045
23282SOL    HW281825   3.736  10.370   8.529  0.9542  1.8019  0.0365
23283SOL     OW81826   7.826   2.231   8.647  0.3889  0.4813  0.5061
23283SOL    HW181827   7.846   2.191   8.563  0.9612 -1.0665  1.3344
23283SOL    HW281828   7.796   2.319   8.625 -0.1967 -0.1356 -1.3474
23284SOL     OW81829  10.373   3.962   0.391 -0.1672 -0.4962 -0.1060
23284SOL    HW181830  10.447   3.945   0.333 -1.1133 -1.4023 -1.1130
23284SOL    HW281831  10.306   4.000   0.333 -0.7711 -0.4443  0.6140
23285SOL     OW81832   3.646   6.574  10.085 -0.1607  0.3544 -0.3657
23285SOL    HW181833   3.636   6.652  10.139  0.1951  1.3947 -1.7388
23285SOL    HW281834   3.563   6.569  10.036 -1.0212 -1.3269  1.1525
23286SOL     OW81835   1.389   7.595   1.522 -0.1050  0.4439 -0.5754
23286SOL    HW181836   1.313   7.548   1.485 -1.6968  1.5547  1.1137
23286SOL    HW281837   1.372   7.687   1.500 -0.5115  0.9923  1.8383
23287SOL     OW81838   2.028   5.946   3.614  0.0991  0.4922  0.3824
23287SOL    HW181839   2.090   5.967   3.543 -0.0719  2.4124  0.7382
23287SOL    HW281840   1.942   5.964   3.576 -0.1037 -0.0368  0.5841
23288SOL     OW81841   5.299   5.663  10.227  0.6228  0.0870  0.2356
23288SOL    HW181842   5.355   5.609  10.172  1.4819  0.3246  0.8496
23288SOL    HW281843   5.221   5.610  10.244  0.9078 -0.4600 -0.1798
23289SOL     OW81844   3.887  10.003   4.323 -0.2827 -0.3311 -0.0549
23289SOL    HW181845   3.942   9.925   4.325  1.3639  0.7755  1.0867
23289SOL    HW281846   3.923  10.059   4.393  0.1317  2.4240 -2.2777
23290SOL     OW81847   1.569   4.844   2.156 -0.3109 -0.4509  0.7365
23290SOL    HW181848   1.486   4.796   2.165 -0.0158 -1.0235  0.4296
23290SOL    HW281849   1.543   4.928   2.119 -0.8984 -0.1568  1.7758
23291SOL     OW81850   6.912   9.469   0.360  0.3254  0.0223  0.1644
23291SOL    HW181851   6.919   9.375   0.344 -1.6597 -0.0664 -0.4470
23291SOL    HW281852   6.822   9.483   0.390  0.6127  1.7102  0.3862
23292SOL     OW81853   1.289   1.622   6.550 -0.1551 -0.4351  0.0950
23292SOL    HW181854   1.267   1.640   6.641 -0.5017 -1.3529  0.1987
23292SOL    HW281855   1.358   1.685   6.529  0.8535 -1.0713  1.3848
23293SOL     OW81856   2.939   8.841   7.721 -0.3329 -0.0299 -0.2428
23293SOL    HW181857   3.032   8.865   7.721 -0.3900  0.2227 -0.8588
23293SOL    HW281858   2.921   8.815   7.630 -0.2514 -2.5691  0.3949
23294SOL     OW81859   7.032  10.166   6.796  0.6212 -0.5639  0.3452
23294SOL    HW181860   7.034  10.248   6.845 -1.3068  0.0118 -0.4673
23294SOL    HW281861   6.994  10.103   6.857 -1.9141  0.1841 -0.3179
23295SOL     OW81862   3.729   9.937   5.819  0.6945 -0.2504  0.2258
23295SOL    HW181863   3.661   9.888   5.865 -0.2626 -0.0491 -0.9281
23295SOL    HW281864   3.696   9.946   5.730  1.8479  0.6092 -0.1385
23296SOL     OW81865   0.160   6.257   8.811 -0.3477  0.5101 -0.4473
23296SOL    HW181866   0.092   6.191   8.798 -0.1152  0.4330 -1.2909
23296SOL    HW281867   0.211   6.225   8.885 -2.0824  1.2695  1.1559
23297SOL     OW81868   1.877   2.654   0.966  0.0281  0.2924  0.3443
23297SOL    HW181869   1.959   2.685   0.929  0.2981  1.8693  2.1011
23297SOL    HW281870   1.885   2.558   0.966  0.5204  0.2809 -2.3225
23298SOL     OW81871   6.464  10.161   1.273  0.2293 -0.1063  0.4312
23298SOL    HW181872   6.374  10.191   1.282  0.4802  0.3604  1.4613
23298SOL    HW281873   6.515  10.215   1.334  1.7832  1.9905 -2.4689
23299SOL     OW81874   7.720   0.788   8.184 -0.0313  0.0134  0.0717
23299SOL    HW181875   7.722   0.792   8.088 -0.9704  0.2180  0.0563
23299SOL    HW281876   7.758   0.703   8.205 -0.9034 -0.5442 -0.5343
23300SOL     OW81877   9.173  10.060   0.366  0.1382 -0.3494  0.6301
23300SOL    HW181878   9.123  10.120   0.423 -1.2250 -0.7736 -0.0834
23300SOL    HW281879   9.226  10.118   0.312  0.1888  0.1280  1.1742
23301SOL     OW81880   4.140   9.274   5.661  0.0971  0.7790 -0.0599
23301SOL    HW181881   4.118   9.348   5.604  1.4065 -0.8383 -2.8947
23301SOL    HW281882   4.079   9.205   5.636  1.9305 -0.5905 -1.0099
23302SOL     OW81883   7.952   7.505   7.214 -0.5270  0.2203  0.4372
23302SOL    HW181884   7.966   7.599   7.210  0.0665  0.0900 -2.8390
23302SOL    HW281885   7.858   7.494   7.205 -0.3304  0.5017 -2.9131
23303SOL     OW81886   1.078   9.926   2.095  1.0391 -0.5848 -0.5479
23303SOL    HW181887   1.076   9.894   2.186  0.4088 -1.6616 -0.9246
23303SOL    HW281888   1.170   9.946   2.079  1.0886  0.0548  0.4763
23304SOL     OW81889   2.024   4.709   4.049  0.2878  0.2536 -0.1103
23304SOL    HW181890   2.104   4.754   4.076  0.9050 -0.9394  0.0811
23304SOL    HW281891   2.052   4.621   4.026 -1.0132 -0.2820  0.2603
23305SOL     OW81892   5.767   8.264   3.278  0.1115 -0.1266 -0.1991
23305SOL    HW181893   5.737   8.342   3.324  2.0001  1.9556 -2.2229
23305SOL    HW281894   5.688   8.228   3.237 -0.6233  1.5122 -0.2856
23306SOL     OW81895   7.957   1.663   8.231 -0.6344 -0.2414 -0.1267
23306SOL    HW181896   8.030   1.627   8.181 -1.8734  0.3816 -2.5090
23306SOL    HW281897   7.911   1.587   8.266  1.2668 -0.6399  1.7051
23307SOL     OW81898   2.409   6.340   5.401 -0.4197  0.6307 -0.0007
23307SOL    HW181899   2.498   6.308   5.417 -0.9531 -0.5892  0.6512
23307SOL    HW281900   2.386   6.306   5.315 -0.3562  0.7283 -0.0569
23308SOL     OW81901   2.215   1.361   6.068 -0.0073  0.0657  0.1196
23308SOL    HW181902   2.194   1.445   6.110 -0.4362  0.1941 -0.3407
23308SOL    HW281903   2.168   1.364   5.985 -0.7146 -0.9792  0.4609
23309SOL     OW81904   8.983   7.543   1.406  0.4543  0.3960  0.0293
23309SOL    HW181905   8.996   7.508   1.494 -0.0586 -0.1105 -0.0883
23309SOL    HW281906   9.054   7.606   1.394  0.8597  0.0512  0.5883
23310SOL     OW81907   8.574   1.619   7.927 -0.0917  0.8205  0.4176
23310SOL    HW181908   8.497   1.636   7.981  0.6410  1.8260  1.1813
23310SOL    HW281909   8.561   1.530   7.893 -1.0982  0.5983  1.3482
23311SOL     OW81910   6.560   1.550   8.093 -0.1763 -0.8386  0.1726
23311SOL    HW181911   6.581   1.513   8.178 -0.6669 -1.4244  0.0480
23311SOL    HW281912   6.594   1.487   8.029  2.9824  1.0505 -0.1863
23312SOL     OW81913   1.324   1.065   0.624 -0.5595 -0.6803  0.0961
23312SOL    HW181914   1.410   1.103   0.641 -1.8322  1.7281  1.8051
23312SOL    HW281915   1.289   1.045   0.711 -2.6192  0.7244 -0.3321
23313SOL     OW81916   5.375   2.316   0.715 -0.4574  0.0051  0.3441
23313SOL    HW181917   5.402   2.237   0.669  0.0556  0.3508  0.0369
23313SOL    HW281918   5.455   2.347   0.759 -1.0512 -0.6406  1.9778
23314SOL     OW81919   5.569   6.291   6.896  1.1248 -0.3094 -0.3736
23314SOL    HW181920   5.653   6.329   6.868  0.9342  0.9031  0.6291
23314SOL    HW281921   5.519   6.364   6.931 -0.7214 -0.8561 -1.7071
23315SOL     OW81922   6.102   7.969   9.946  0.5797 -0.1023 -0.1730
23315SOL    HW181923   6.176   7.928   9.902 -0.3678 -1.9119 -0.1802
23315SOL    HW281924   6.074   7.905  10.011  1.5461  2.2313  2.7574
23316SOL     OW81925   4.955   4.926   2.628  0.0868 -0.1453 -0.1947
23316SOL    HW181926   4.884   4.896   2.685  0.1304  0.8694  0.4312
23316SOL    HW281927   4.959   4.862   2.558 -0.9070 -0.6651  0.2085
23317SOL     OW81928   9.427   3.023   7.082 -0.0751  0.0554  0.3243
23317SOL    HW181929   9.445   3.113   7.108  1.0795  0.4072 -1.4953
23317SOL    HW281930   9.464   3.015   6.994  0.8051 -2.5083  0.8278
23318SOL     OW81931   2.385   3.392   7.010 -0.1602  0.1514  0.4045
23318SOL    HW181932   2.417   3.412   6.922  0.9865  2.4832  1.2693
23318SOL    HW281933   2.368   3.297   7.009  1.7411 -0.2348 -1.7040
23319SOL     OW81934   2.972   0.316   9.798 -0.0967  0.4397 -0.4874
23319SOL    HW181935   2.889   0.347   9.760 -1.0161 -0.6879  0.4984
23319SOL    HW281936   2.953   0.227   9.825  0.8415  0.8211  1.5747
23320SOL     OW81937   6.560   8.314   2.502 -0.0746  0.2634  0.8979
23320SOL    HW181938   6.568   8.239   2.561  0.1972  0.7783  1.5168
23320SOL    HW281939   6.607   8.385   2.546  0.5906  0.5133 -0.1711
23321SOL     OW81940   1.962   6.546   8.734 -0.4246  0.3736  0.5630
23321SOL    HW181941   1.883   6.598   8.749 -1.6791 -1.3109  0.0543
23321SOL    HW281942   1.950   6.467   8.786  0.0910 -0.7148 -0.9004
23322SOL     OW81943   7.833   6.132   2.076 -0.8632 -0.2887 -0.0868
23322SOL    HW181944   7.816   6.201   2.011 -1.2982 -1.4279 -1.2083
23322SOL    HW281945   7.754   6.078   2.075 -0.3548 -1.0579  0.4527
23323SOL     OW81946   2.774   2.696   6.852 -0.0691  0.2982  0.8751
23323SOL    HW181947   2.757   2.760   6.921 -0.6193  0.7775  0.3071
23323SOL    HW281948   2.784   2.749   6.772 -0.6733 -0.3217  0.3751
23324SOL     OW81949   5.034   8.927   0.838 -0.1797 -0.2163  0.2195
23324SOL    HW181950   5.091   8.994   0.876 -0.5486  0.6466 -0.6981
23324SOL    HW281951   4.947   8.949   0.871 -0.3401 -0.0801 -0.2793
23325SOL     OW81952   4.339   2.765   8.555 -0.2901  0.3760 -0.0972
23325SOL    HW181953   4.273   2.704   8.521  0.2138  0.2009 -0.7916
23325SOL    HW281954   4.330   2.761   8.650 -0.0750 -1.0005 -0.1240
23326SOL     OW81955   2.038   3.752   2.961  0.1990 -0.4175  0.0526
23326SOL    HW181956   2.028   3.721   3.051  0.2418 -1.9827 -0.4517
23326SOL    HW281957   2.015   3.677   2.907  0.3712  0.4327 -1.2565
23327SOL     OW81958   3.363  10.153   2.986 -0.2627  0.0961 -0.1474
23327SOL    HW181959   3.314  10.099   2.924 -1.0877  0.9252 -0.2373
23327SOL    HW281960   3.328  10.241   2.974  1.0627  0.6607  0.0002
23328SOL     OW81961   4.144  10.072   7.399 -0.5404 -0.4909  0.3326
23328SOL    HW181962   4.071  10.102   7.345  0.7431 -0.5187 -1.5373
23328SOL    HW281963   4.206  10.035   7.336  1.2938 -0.0278  1.7760
23329SOL     OW81964   8.109   6.630   8.412  0.5800 -0.1594 -0.0894
23329SOL    HW181965   8.148   6.617   8.326 -0.2404 -1.5949 -0.2830
23329SOL    HW281966   8.018   6.602   8.401  0.6663 -1.1333  1.4262
23330SOL     OW81967   6.791  10.177   8.975 -0.2576 -0.0328 -0.4928
23330SOL    HW181968   6.842  10.216   9.047 -0.3674 -0.6323 -0.0888
23330SOL    HW281969   6.710  10.146   9.016  0.0714 -1.2091 -0.6975
23331SOL     OW81970   6.627   4.417   4.246  0.0860  0.1389  0.7240
23331SOL    HW181971   6.703   4.407   4.189  0.1497 -1.3122  1.0247
23331SOL    HW281972   6.585   4.499   4.217  2.1666  1.3885  1.0669
23332SOL     OW81973   7.776   6.999  10.212 -0.2054  1.1675 -0.1115
23332SOL    HW181974   7.785   7.092  10.188 -1.6929  1.2391 -0.4611
23332SOL    HW281975   7.707   6.997  10.278  1.8526  0.6092  2.1559
23333SOL     OW81976   8.386   4.750   5.006 -0.2495 -0.0299  0.3010
23333SOL    HW181977   8.471   4.792   5.020 -0.1767 -0.5387  1.5200
23333SOL    HW281978   8.402   4.686   4.937  0.6371 -0.8558  1.2387
23334SOL     OW81979   3.856   1.046  10.251  0.6282  0.1857 -0.0966
23334SOL    HW181980   3.761   1.056  10.249  0.7647  1.5766 -1.6203
23334SOL    HW281981   3.890   1.134  10.262  1.7772 -0.4852  2.4201
23335SOL     OW81982   8.847   8.059   0.764 -0.1268  0.3383  0.0843
23335SOL    HW181983   8.806   8.128   0.816  1.1320  2.3738 -1.4734
23335SOL    HW281984   8.919   8.028   0.819 -2.1292 -1.5483  1.8073
23336SOL     OW81985   3.629   6.848   0.518  0.2160 -0.2302 -0.5332
23336SOL    HW181986   3.668   6.856   0.431 -0.7570  0.3641 -0.9278
23336SOL    HW281987   3.542   6.812   0.503 -1.0471  2.3971 -0.1221
23337SOL     OW81988   7.671   3.256   1.413 -0.2414 -0.6032  0.2486
23337SOL    HW181989   7.615   3.331   1.435 -0.4075 -0.9607  1.0510
23337SOL    HW281990   7.759   3.284   1.439  0.0873  0.1815 -1.5294
23338SOL     OW81991   7.095   8.993   8.402 -0.0645  0.2599  0.3552
23338SOL    HW181992   7.110   9.079   8.441  0.5529  0.2535  0.1465
23338SOL    HW281993   7.019   9.005   8.345  0.9492  1.0648 -0.8787
23339SOL     OW81994   1.308   4.859   0.708  0.0453  0.2798 -0.2460
23339SOL    HW181995   1.215   4.845   0.726  0.1227  1.1163  0.8419
23339SOL    HW281996   1.332   4.786   0.650 -1.4215  0.4008 -1.0398
23340SOL     OW81997   1.549   8.788   4.113 -0.2630 -0.1366  0.2877
23340SOL    HW181998   1.627   8.835   4.141 -1.5632  1.5743  1.2040
23340SOL    HW281999   1.517   8.836   4.037 -0.7535 -0.4555  0.2840
23341SOL     OW82000   7.745  10.174   2.202  0.0311  0.1932  0.1879
23341SOL    HW182001   7.715  10.265   2.192  1.6038  1.0709  2.4734
23341SOL    HW282002   7.807  10.162   2.130  0.1031  1.0861  0.0836
23342SOL     OW82003   2.345   1.528   5.681  0.4073 -0.1314 -0.3956
23342SOL    HW182004   2.407   1.469   5.724  1.0407  1.4382  0.9995
23342SOL    HW282005   2.396   1.570   5.612  0.7606  0.6904  0.3391
23343SOL     OW82006   5.273   3.938   3.776  0.2701  0.1889 -0.0316
23343SOL    HW182007   5.240   3.912   3.862  0.1310  0.3181 -0.0447
23343SOL    HW282008   5.360   3.974   3.794 -0.4740  1.9144  0.3098
23344SOL     OW82009   8.809   5.988   8.751 -0.2418  0.7379 -0.3638
23344SOL    HW182010   8.871   5.929   8.708 -1.1427  0.5542 -1.4902
23344SOL    HW282011   8.844   6.076   8.735  0.6596  0.5649  0.5801
23345SOL     OW82012   1.585   1.181   1.851  0.2757  0.0192  0.5274
23345SOL    HW182013   1.518   1.129   1.807 -0.0525  1.7457 -1.1606
23345SOL    HW282014   1.577   1.158   1.944  0.0260 -2.7097 -0.0901
23346SOL     OW82015   9.897   2.063   9.868 -0.2605 -0.2261 -0.2644
23346SOL    HW182016   9.804   2.038   9.876 -0.1351 -0.6892 -0.2024
23346SOL    HW282017   9.915   2.060   9.774  0.1052 -1.7231 -0.1691
23347SOL     OW82018   9.990   6.389   4.289 -0.2877  0.2170 -0.1256
23347SOL    HW182019   9.990   6.355   4.379  0.5838 -0.6570 -0.4478
23347SOL    HW282020  10.082   6.408   4.270 -0.4394  0.1824 -0.9207
23348SOL     OW82021   6.616  10.096   0.963 -0.0846 -0.1202  0.5512
23348SOL    HW182022   6.698  10.128   1.002 -0.2121 -0.6204  1.2377
23348SOL    HW282023   6.575  10.045   1.032 -0.8961 -0.0287  0.1462
23349SOL     OW82024   5.095   3.690   2.599 -0.1664  0.5195 -0.0277
23349SOL    HW182025   5.140   3.736   2.670  2.1776 -0.6392 -0.6807
23349SOL    HW282026   5.116   3.598   2.612 -2.0146 -0.0469 -0.6715
23350SOL     OW82027   2.476   2.449   6.053 -0.7333  0.0743 -0.1805
23350SOL    HW182028   2.462   2.514   5.984  1.7734  1.2704  0.3182
23350SOL    HW282029   2.498   2.501   6.131  2.3254 -1.2883  0.0068
23351SOL     OW82030   1.155   5.063   5.585  0.4276  0.3011  0.3034
23351SOL    HW182031   1.150   5.001   5.658  1.8855  0.2350  0.3827
23351SOL    HW282032   1.144   5.009   5.507 -0.6346  0.2972  0.4508
23352SOL     OW82033   3.917   9.380   9.103  0.1654  0.1460  0.1130
23352SOL    HW182034   3.908   9.356   9.011 -0.3133  1.7529 -0.2907
23352SOL    HW282035   3.992   9.330   9.134 -0.3550 -1.2773 -0.8346
23353SOL     OW82036   0.363   7.052   0.748 -0.1709  0.4710  0.1410
23353SOL    HW182037   0.398   7.122   0.803  1.5392  0.0855 -0.3831
23353SOL    HW282038   0.413   6.974   0.773  3.3379  0.9164 -4.2009
23354SOL     OW82039   9.974   9.465   3.835  0.5706 -0.1628  0.8091
23354SOL    HW182040   9.903   9.521   3.804  0.7069 -0.5419 -0.2289
23354SOL    HW282041  10.053   9.501   3.795  0.5791 -1.4395 -0.3661
23355SOL     OW82042   5.603   0.476   7.367  0.2463 -0.1366 -0.3184
23355SOL    HW182043   5.682   0.425   7.349  1.5756  1.3396  0.9463
23355SOL    HW282044   5.594   0.474   7.463 -0.4370  0.8400 -0.3440
23356SOL     OW82045   1.811   1.496   8.266 -0.5668  0.1565 -0.0207
23356SOL    HW182046   1.881   1.476   8.204 -0.2446 -0.2192  0.4585
23356SOL    HW282047   1.765   1.570   8.226 -1.2287 -0.9489 -1.3802
23357SOL     OW82048   4.962   7.221   4.779  0.3283  0.6858 -0.4576
23357SOL    HW182049   5.028   7.286   4.753  0.0811 -0.2516 -3.7499
23357SOL    HW282050   4.885   7.274   4.802  0.7444  1.6441 -1.1676
23358SOL     OW82051   0.093   7.598   8.409 -0.2115 -0.0335 -0.0544
23358SOL    HW182052   0.150   7.651   8.353 -0.7035  0.4431 -0.1184
23358SOL    HW282053   0.040   7.662   8.457 -0.0418 -0.4412  0.7051
23359SOL     OW82054   0.743   5.299   7.770  0.0585  0.2796 -0.0837
23359SOL    HW182055   0.703   5.285   7.856 -0.1888 -0.1765 -0.2688
23359SOL    HW282056   0.812   5.232   7.765 -0.0390  0.1954 -0.3072
23360SOL     OW82057   7.442   4.420   2.081 -0.8778  0.1046 -0.5608
23360SOL    HW182058   7.389   4.468   2.017 -1.0468 -1.8145 -1.9323
23360SOL    HW282059   7.464   4.338   2.038  1.2050 -0.1851  0.9017
23361SOL     OW82060   8.975   9.176   7.009  0.0937  0.0704  0.0486
23361SOL    HW182061   8.927   9.102   7.044  3.1467 -1.0610  2.1613
23361SOL    HW282062   9.052   9.138   6.968  0.1821  1.9288 -1.6873
23362SOL     OW82063   6.846   4.050   7.284 -0.2768 -0.0087  0.4701
23362SOL    HW182064   6.897   3.969   7.281 -1.7340 -0.9334 -2.3674
23362SOL    HW282065   6.912   4.119   7.290  1.0246 -1.3072  2.2318
23363SOL     OW82066   7.839   5.174   5.441 -0.6164 -0.2374  0.0024
23363SOL    HW182067   7.863   5.267   5.439 -1.9861  0.2340 -3.5769
23363SOL    HW282068   7.918   5.128   5.412 -0.2009 -0.1181  0.9222
23364SOL     OW82069   7.778   1.363   1.937  0.1572  0.9631  0.2171
23364SOL    HW182070   7.817   1.295   1.992 -0.3791  0.7632  0.3669
23364SOL    HW282071   7.694   1.325   1.909 -0.3214  1.6943  0.6039
23365SOL     OW82072   1.108   8.510   3.176  0.2601 -0.1890 -1.1305
23365SOL    HW182073   1.059   8.446   3.227  1.6049 -0.0821  0.3966
23365SOL    HW282074   1.042   8.575   3.150 -0.1545  1.5059  3.2670
23366SOL     OW82075   1.155   8.293   2.111  0.0533 -0.4383 -0.7857
23366SOL    HW182076   1.223   8.350   2.075  1.2983 -1.1395  0.3422
23366SOL    HW282077   1.137   8.329   2.198  0.6827 -1.5804 -0.1553
23367SOL     OW82078   9.383   4.965   4.913 -0.0238 -0.2748  0.2485
23367SOL    HW182079   9.397   4.912   4.991 -0.4076 -3.8008 -1.8663
23367SOL    HW282080   9.344   4.905   4.849  3.0139  1.4374 -3.6975
23368SOL     OW82081   1.484   9.819   4.883 -0.3660 -0.3762 -0.4960
23368SOL    HW182082   1.393   9.826   4.911 -0.0280  2.5761  0.2587
23368SOL    HW282083   1.533   9.868   4.950  1.7227 -1.5199 -1.1064
23369SOL     OW82084   2.767   5.269   7.394  0.3096 -0.1772  0.4565
23369SOL    HW182085   2.753   5.311   7.479  2.9043  0.2918  0.7490
23369SOL    HW282086   2.799   5.182   7.415 -0.6910 -0.6926 -0.0964
23370SOL     OW82087   5.959   8.612   3.277  0.3659 -0.3775 -0.3446
23370SOL    HW182088   5.890   8.585   3.337  1.1956  0.1585  0.8916
23370SOL    HW282089   5.950   8.554   3.201 -0.1775 -1.6443  0.6642
23371SOL     OW82090   4.142   3.687   8.784  0.1620 -0.0685  0.2865
23371SOL    HW182091   4.103   3.764   8.742  0.2432 -0.0163  0.3068
23371SOL    HW282092   4.069   3.626   8.794  0.3249 -0.4678 -0.8146
23372SOL     OW82093   6.966   8.996   6.527  0.5362 -0.1903  0.3307
23372SOL    HW182094   6.888   9.049   6.512  0.8922 -0.1584 -1.7503
23372SOL    HW282095   6.935   8.921   6.577 -0.5599  0.4614  0.6662
23373SOL     OW82096   2.955   8.218   7.048 -0.4673 -0.0283 -0.3316
23373SOL    HW182097   2.970   8.133   7.008  1.9309  0.5514 -0.8002
23373SOL    HW282098   2.996   8.280   6.989 -0.8383  1.3185  0.7647
23374SOL     OW82099   2.461   5.221   3.832  0.4181 -0.3277 -0.1247
23374SOL    HW182100   2.428   5.146   3.881  2.6007  0.1470  2.2634
23374SOL    HW282101   2.527   5.184   3.773  1.5893 -0.3332  1.1465
23375SOL     OW82102   4.994   5.773   9.120  0.1596 -0.2272 -0.3427
23375SOL    HW182103   4.973   5.854   9.168  0.1877 -0.3880 -0.0530
23375SOL    HW282104   4.974   5.793   9.029  0.5126  0.2312 -0.3260
23376SOL     OW82105   7.337   4.124   6.506  0.6728  0.2168  0.1256
23376SOL    HW182106   7.408   4.135   6.443  0.5811  0.2175  0.0215
23376SOL    HW282107   7.269   4.078   6.457  1.2583 -1.3460  0.7088
23377SOL     OW82108   7.679   3.573   5.535  0.2072 -0.7442 -0.0319
23377SOL    HW182109   7.677   3.517   5.613 -1.9988 -0.8117 -0.0598
23377SOL    HW282110   7.611   3.639   5.552  1.0303  0.4275 -1.0879
23378SOL     OW82111   4.231   7.471   8.105  0.1301 -0.6756  0.1338
23378SOL    HW182112   4.250   7.561   8.131  0.1251 -0.3237 -1.0276
23378SOL    HW282113   4.252   7.419   8.182  0.2278  0.3049  0.7908
23379SOL     OW82114   6.392   0.952   4.779 -0.2578 -0.2376  0.0333
23379SOL    HW182115   6.331   0.963   4.706  0.6992 -1.6952 -1.0429
23379SOL    HW282116   6.355   1.006   4.849 -1.7305  0.4405 -1.1973
23380SOL     OW82117   9.532   9.048   0.156 -0.3560 -0.2420  0.0946
23380SOL    HW182118   9.624   9.024   0.149 -0.4368 -0.5377  0.0233
23380SOL    HW282119   9.494   9.024   0.071 -0.9538 -2.1498  0.8496
23381SOL     OW82120  10.012   6.731   1.348  0.0759 -0.5525  0.2226
23381SOL    HW182121  10.035   6.683   1.427  0.5391 -0.1946  0.3115
23381SOL    HW282122  10.092   6.729   1.294  0.4104  0.8705  0.6172
23382SOL     OW82123   2.944   7.820   0.835  0.2301 -0.1652  0.3968
23382SOL    HW182124   2.888   7.744   0.855  1.7973 -1.9642 -1.5638
23382SOL    HW282125   2.890   7.874   0.777 -0.0816 -1.0793 -0.1997
23383SOL     OW82126   0.949   7.818   4.442 -0.6293  0.6163 -0.3515
23383SOL    HW182127   0.943   7.732   4.401  1.5862 -0.4838  1.4272
23383SOL    HW282128   1.012   7.866   4.388  0.4156  0.0369  0.3324
23384SOL     OW82129   8.730   9.834   3.308 -0.3606  0.0917  0.2825
23384SOL    HW182130   8.730   9.930   3.308  0.7356  0.1252 -1.0087
23384SOL    HW282131   8.638   9.810   3.304 -0.6399  1.1017  0.3500
23385SOL     OW82132   6.660   6.192   0.045 -0.2359 -0.6186  0.2882
23385SOL    HW182133   6.706   6.174  -0.037 -1.7468 -1.5678 -0.3927
23385SOL    HW282134   6.577   6.145   0.037 -0.6885 -0.2083  2.1066
23386SOL     OW82135   5.861   5.432   8.518 -0.1160 -0.0235 -0.5514
23386SOL    HW182136   5.899   5.518   8.535 -2.0264  1.4174 -2.8983
23386SOL    HW282137   5.802   5.417   8.592  1.0384  0.1500  0.4213
23387SOL     OW82138   0.993   6.389   1.836  0.5691 -0.8288 -0.3717
23387SOL    HW182139   0.939   6.433   1.770 -0.2203  0.0256  0.8034
23387SOL    HW282140   0.974   6.296   1.824  0.2704 -0.6731 -1.1943
23388SOL     OW82141   8.230   9.137   4.857  0.2964 -0.7182 -0.0561
23388SOL    HW182142   8.306   9.172   4.809 -2.3421  0.3642 -3.8981
23388SOL    HW282143   8.243   9.042   4.855  1.8592 -0.5321 -0.0162
23389SOL     OW82144   7.291   0.313   0.265  0.6747  0.5274 -0.4636
23389SOL    HW182145   7.219   0.321   0.202  0.8136  0.2800 -0.6556
23389SOL    HW282146   7.369   0.304   0.211  0.7154 -0.4306 -0.2673
23390SOL     OW82147   7.586   4.730   9.855  0.6094 -0.1617 -0.1520
23390SOL    HW182148   7.548   4.645   9.879  0.1316  0.4877  1.4628
23390SOL    HW282149   7.633   4.712   9.773 -1.2090 -1.5103 -0.9789
23391SOL     OW82150   5.389   8.163   9.483 -0.5102  0.6001  0.3061
23391SOL    HW182151   5.311   8.159   9.539 -0.1275  0.0083  0.8046
23391SOL    HW282152   5.438   8.239   9.517 -1.7174  2.1220 -1.1672
23392SOL     OW82153   3.260   3.355   9.349 -0.5881  0.2032 -0.2912
23392SOL    HW182154   3.264   3.418   9.420 -1.5168  3.2035 -2.7034
23392SOL    HW282155   3.351   3.331   9.332 -0.0061  2.3982 -0.4981
23393SOL     OW82156   6.778   1.561   5.533  0.3883 -0.6997 -0.6763
23393SOL    HW182157   6.830   1.615   5.473  1.1874  0.1242  0.7034
23393SOL    HW282158   6.842   1.524   5.594 -0.4896 -0.7867  0.2151
23394SOL     OW82159   5.573   4.603   3.464 -0.3865  0.2825  0.4180
23394SOL    HW182160   5.641   4.536   3.452 -1.2148 -0.6011  0.4620
23394SOL    HW282161   5.574   4.653   3.382 -1.1704 -1.1652 -0.5286
23395SOL     OW82162   7.009   0.161   7.640 -0.5571  0.4121 -0.0148
23395SOL    HW182163   6.968   0.075   7.650  0.0906  0.1759  0.6605
23395SOL    HW282164   7.012   0.196   7.728  2.7858 -0.5544  0.3833
23396SOL     OW82165   6.657   4.414  10.358 -0.3949 -0.0117  0.0481
23396SOL    HW182166   6.723   4.466  10.314 -1.2297 -0.2499 -1.5586
23396SOL    HW282167   6.706   4.358  10.418  0.7652  0.4328 -0.4589
23397SOL     OW82168   7.175   2.784   6.543 -0.6134 -0.2255  0.0614
23397SOL    HW182169   7.260   2.825   6.559 -1.0471  2.0813 -2.7825
23397SOL    HW282170   7.196   2.693   6.525  1.5171  0.5588 -1.9790
23398SOL     OW82171   3.338   4.743   6.771 -0.0505  0.1446 -0.2090
23398SOL    HW182172   3.401   4.693   6.719 -0.6747 -1.6418  0.6675
23398SOL    HW282173   3.375   4.743   6.859 -0.1553  1.0989 -0.1559
23399SOL     OW82174   8.997   6.759   6.950 -0.4811  0.1482  0.3465
23399SOL    HW182175   8.924   6.809   6.985 -1.3044 -0.8403  0.0840
23399SOL    HW282176   8.990   6.771   6.855 -1.5638 -1.5826  0.1636
23400SOL     OW82177   2.949   5.845   6.212  1.2927  0.4668 -0.0645
23400SOL    HW182178   2.890   5.770   6.206  1.4973  0.3889 -1.6338
23400SOL    HW282179   2.931   5.883   6.298 -0.7178  0.1567 -0.2914
23401SOL     OW82180   9.223   9.603   8.066  0.2384 -0.0191  0.1914
23401SOL    HW182181   9.246   9.625   7.976  0.0462 -0.5243  0.0166
23401SOL    HW282182   9.137   9.643   8.079  0.9497  1.4278  0.6797
23402SOL     OW82183   3.631   0.751   4.134  0.2646 -0.2664 -0.2420
23402SOL    HW182184   3.660   0.660   4.131  1.3725  0.0733 -0.7191
23402SOL    HW282185   3.650   0.785   4.046 -0.3694  0.3569 -0.1520
23403SOL     OW82186   3.886   2.920   6.291 -0.0942  0.2713  0.0673
23403SOL    HW182187   3.906   2.831   6.264 -1.2011  0.1280 -0.3535
23403SOL    HW282188   3.971   2.961   6.304  0.4661 -0.3624 -1.3485
23404SOL     OW82189   0.149   3.970   5.197 -0.5861 -0.0967  0.4281
23404SOL    HW182190   0.204   3.893   5.212 -0.8378 -0.5716 -0.9483
23404SOL    HW282191   0.060   3.934   5.189 -1.2985  0.7127  3.2698
23405SOL     OW82192   9.375   7.814   9.155  0.1418 -0.2811  0.0414
23405SOL    HW182193   9.387   7.727   9.116 -0.9835  0.0017 -0.9688
23405SOL    HW282194   9.371   7.873   9.081 -0.7105  0.4401  0.6480
23406SOL     OW82195   1.028   8.250   8.554 -0.4253 -0.1246  0.6752
23406SOL    HW182196   1.111   8.242   8.603 -0.4840 -2.2572  0.5443
23406SOL    HW282197   0.976   8.311   8.606 -0.8725 -2.9822  4.0387
23407SOL     OW82198   8.988   4.061   5.304 -0.3911 -0.6434  0.1921
23407SOL    HW182199   8.910   4.009   5.323 -0.0276 -1.3140 -0.0808
23407SOL    HW282200   9.058   4.017   5.353 -0.3062  0.3578  0.9961
23408SOL     OW82201   3.380   6.399   7.314  0.6737 -0.0142 -0.1420
23408SOL    HW182202   3.345   6.487   7.326 -0.4465 -0.4419 -0.1952
23408SOL    HW282203   3.455   6.411   7.255 -1.2829  0.5789 -2.6943
23409SOL     OW82204   3.390   1.104   7.096  0.0283 -0.3861 -0.1563
23409SOL    HW182205   3.455   1.074   7.160  0.6170 -0.4283 -0.7613
23409SOL    HW282206   3.306   1.077   7.132  0.4728 -2.1015 -0.3134
23410SOL     OW82207   5.371   8.363   5.271 -0.5974 -0.3710  0.9571
23410SOL    HW182208   5.391   8.295   5.206 -1.1392 -0.2104  0.6148
23410SOL    HW282209   5.285   8.338   5.304 -1.3952  0.8411 -0.0994
23411SOL     OW82210   2.643   1.595   0.511  0.7312 -0.1405 -0.1615
23411SOL    HW182211   2.570   1.596   0.572 -0.2169  0.8994 -1.2732
23411SOL    HW282212   2.637   1.510   0.468 -0.8371  0.5293 -1.3752
23412SOL     OW82213  10.278   2.422   6.900  0.3142 -0.1519 -0.2533
23412SOL    HW182214  10.194   2.467   6.902 -0.2741 -1.2366  1.0463
23412SOL    HW282215  10.272   2.360   6.828  1.3669  2.1737 -2.4841
23413SOL     OW82216   6.793   1.312   2.378 -0.4683 -0.0327 -0.3916
23413SOL    HW182217   6.855   1.263   2.432 -0.2691 -2.1026 -2.3510
23413SOL    HW282218   6.837   1.395   2.359  1.3248 -1.0616 -0.9426
23414SOL     OW82219   7.704   8.908   8.514 -0.4081  0.0257 -0.0976
23414SOL    HW182220   7.615   8.876   8.532 -0.6939  1.2833  0.8884
23414SOL    HW282221   7.739   8.846   8.450 -1.3865 -1.4814  0.7482
23415SOL     OW82222   2.985   4.991   6.429 -0.5253  0.4881 -0.1108
23415SOL    HW182223   2.893   5.015   6.435 -1.0879 -1.7765  2.1761
23415SOL    HW282224   2.984   4.901   6.396  0.8269  0.2704  0.3639
23416SOL     OW82225   9.538   2.707   4.354 -0.0376  0.3693  0.2118
23416SOL    HW182226   9.536   2.623   4.399  3.6208 -0.4872 -0.8788
23416SOL    HW282227   9.506   2.689   4.266  1.4146 -0.1093 -0.2418
23417SOL     OW82228   9.081   2.882   6.948  0.3764 -0.0987  0.1056
23417SOL    HW182229   9.176   2.878   6.941  0.2694 -1.9232 -1.0524
23417SOL    HW282230   9.063   2.968   6.985  2.4687  0.2516  0.4407
23418SOL     OW82231   0.699   1.946   9.932  0.5910 -0.3208  0.9332
23418SOL    HW182232   0.654   1.863   9.919 -0.6443  0.3015  1.0797
23418SOL    HW282233   0.629   2.012   9.932  1.6539  0.9012 -0.7105
23419SOL     OW82234   8.325   0.280   0.098  0.0027 -0.0733 -0.3749
23419SOL    HW182235   8.312   0.346   0.166 -0.4029  0.3760 -0.8789
23419SOL    HW282236   8.242   0.235   0.092  0.0064 -0.0461 -0.6383
23420SOL     OW82237   0.643   1.092   9.511 -0.1778  0.2179 -0.5630
23420SOL    HW182238   0.584   1.018   9.500 -1.2671  0.7636  1.2289
23420SOL    HW282239   0.604   1.143   9.582  2.4248  0.6047  0.7006
23421SOL     OW82240   1.022   9.519   1.743 -0.0520 -0.1159 -0.0596
23421SOL    HW182241   1.021   9.569   1.825  1.9318  1.0921 -0.6880
23421SOL    HW282242   1.081   9.446   1.760  2.0872  1.2902 -0.9213
23422SOL     OW82243   1.016   2.560   9.848 -0.1703 -0.6431  0.1591
23422SOL    HW182244   1.068   2.573   9.769 -2.7885  1.4283 -1.4098
23422SOL    HW282245   1.070   2.596   9.919  1.7375 -1.4101 -0.8404
23423SOL     OW82246  10.310   6.007   4.901 -0.3586  0.5088  0.3073
23423SOL    HW182247  10.220   5.984   4.924 -0.1300 -0.3724  0.3315
23423SOL    HW282248  10.308   6.022   4.807 -0.2735 -0.8011  0.0806
23424SOL     OW82249   1.328   3.735   4.084  0.0859 -0.2954  0.0813
23424SOL    HW182250   1.336   3.723   4.178  0.5000  0.9366  0.2181
23424SOL    HW282251   1.238   3.765   4.071 -0.3757 -1.6590 -0.0735
23425SOL     OW82252   7.206   9.476   0.384  0.1751 -0.0429  0.1680
23425SOL    HW182253   7.174   9.392   0.349  1.0603 -1.3309  2.2904
23425SOL    HW282254   7.140   9.539   0.356 -1.2262 -1.6705 -0.4076
23426SOL     OW82255   0.175   9.549   5.279  0.3588  0.0463 -0.3304
23426SOL    HW182256   0.120   9.627   5.293  0.0582  0.0369 -1.3784
23426SOL    HW282257   0.242   9.555   5.347  0.2392  1.1359 -0.2867
23427SOL     OW82258   1.107   0.226   4.122  0.4120  0.2908 -0.2838
23427SOL    HW182259   1.130   0.144   4.166 -0.5825  0.2226  0.1381
23427SOL    HW282260   1.024   0.207   4.078  0.7186  0.7568 -1.0839
23428SOL     OW82261   1.484   9.718   1.077  0.2537 -0.6948  0.2517
23428SOL    HW182262   1.565   9.721   1.024  0.8473 -0.3381  1.1597
23428SOL    HW282263   1.506   9.765   1.157  0.1376 -3.1762  1.8510
23429SOL     OW82264   2.103   3.190   5.459  0.1571  0.1288 -0.0848
23429SOL    HW182265   2.023   3.215   5.413 -0.5103 -0.5410  0.6839
23429SOL    HW282266   2.114   3.097   5.440  1.8444  0.5990 -1.7649
23430SOL     OW82267   7.616   6.714   8.673  0.2360 -0.0501  0.3261
23430SOL    HW182268   7.657   6.629   8.692 -1.2226 -1.0607 -0.8389
23430SOL    HW282269   7.645   6.771   8.744  1.5784 -1.4070  0.9179
23431SOL     OW82270   3.932   4.382   3.535  0.0359  0.3910 -0.3036
23431SOL    HW182271   3.885   4.360   3.615  1.4425  0.2146  0.4840
23431SOL    HW282272   3.945   4.477   3.540 -1.7167  0.7483 -1.3716
23432SOL     OW82273   8.172   1.310   0.222 -0.5142 -0.5194  0.2784
23432SOL    HW182274   8.176   1.402   0.199 -2.2855 -0.1746  1.1705
23432SOL    HW282275   8.105   1.273   0.165  1.0063 -1.5866 -0.9269
23433SOL     OW82276   3.276   8.727   0.176 -0.4569  0.3396 -0.0757
23433SOL    HW182277   3.367   8.703   0.192 -0.1274  0.6529 -1.3497
23433SOL    HW282278   3.268   8.816   0.208 -0.8606 -0.3433  1.8340
23434SOL     OW82279   5.955  10.173  10.077  0.2954  0.3565  0.8936
23434SOL    HW182280   5.972  10.248  10.133  0.3411 -0.2925  1.7663
23434SOL    HW282281   6.010  10.187  10.000  0.3113  1.2030  1.0553
23435SOL     OW82282   3.499   2.564   6.358 -0.4448  0.3516  0.2994
23435SOL    HW182283   3.517   2.586   6.450 -0.2004 -2.3747  0.9746
23435SOL    HW282284   3.420   2.511   6.361  0.5325 -1.2504 -0.8257
23436SOL     OW82285   8.069   0.617   2.715 -0.0984  0.3793  0.4248
23436SOL    HW182286   8.163   0.635   2.719  0.0104  0.0701 -0.5363
23436SOL    HW282287   8.058   0.557   2.642 -0.9366 -0.3959  1.1556
23437SOL     OW82288   2.034   7.345   0.586  0.5358  0.2576 -0.1870
23437SOL    HW182289   1.963   7.321   0.646  0.1014  1.7577 -0.0694
23437SOL    HW282290   2.069   7.261   0.556  0.2748 -0.5211  1.5739
23438SOL     OW82291   1.354   8.184   8.176 -0.1404 -0.0771  0.3758
23438SOL    HW182292   1.268   8.142   8.173  0.4456 -1.3940  1.1319
23438SOL    HW282293   1.383   8.186   8.085 -1.3981  1.3549 -0.0273
23439SOL     OW82294  10.274   6.284   8.202 -0.2348  0.6840 -0.6527
23439SOL    HW182295  10.366   6.257   8.193 -0.7231 -1.5695  0.4978
23439SOL    HW282296  10.235   6.263   8.117 -0.2148 -0.7284 -0.3357
23440SOL     OW82297   5.089   3.663   4.456  0.4467  0.1555  0.5924
23440SOL    HW182298   5.069   3.643   4.548 -2.0343 -2.0067 -0.2902
23440SOL    HW282299   5.052   3.750   4.441 -0.6341 -0.1889  1.2235
23441SOL     OW82300   5.309   8.834   9.174  0.0920  0.0299 -0.0304
23441SOL    HW182301   5.377   8.767   9.179 -0.4328 -0.5328 -0.4948
23441SOL    HW282302   5.263   8.827   9.258 -0.5279 -0.7931 -0.4303
23442SOL     OW82303   0.255   0.298   8.203  0.0550 -0.3200  0.6256
23442SOL    HW182304   0.322   0.252   8.153 -0.2484  0.4016 -0.4776
23442SOL    HW282305   0.292   0.305   8.291  1.4472  0.0641  0.0442
23443SOL     OW82306  10.289   7.881   8.911  0.4541 -0.0132 -0.2004
23443SOL    HW182307  10.356   7.852   8.973 -0.8892 -0.6541  1.0102
23443SOL    HW282308  10.300   7.824   8.835  0.5912 -0.8560  0.4361
23444SOL     OW82309   9.767   1.315   6.469  0.5191 -0.2345 -0.8176
23444SOL    HW182310   9.703   1.382   6.492  1.6347  0.8172 -0.6663
23444SOL    HW282311   9.795   1.337   6.380  0.5406 -0.7917 -0.9540
23445SOL     OW82312   2.654   2.036   6.826  0.2207  0.8482  0.8869
23445SOL    HW182313   2.595   2.089   6.880 -0.4518 -2.1244  3.3579
23445SOL    HW282314   2.719   2.002   6.887  1.1148 -0.4720 -0.7229
23446SOL     OW82315   4.600   3.991   1.911  0.3524  0.7017  0.0370
23446SOL    HW182316   4.612   4.076   1.867 -1.4617  0.0657 -1.8679
23446SOL    HW282317   4.631   3.927   1.846  1.3249 -0.1521  1.2996
23447SOL     OW82318   9.485   2.054   8.088  0.3614 -0.6087 -0.0389
23447SOL    HW182319   9.399   2.020   8.111 -0.8068  2.2233  0.1910
23447SOL    HW282320   9.546   1.986   8.117 -1.7114 -2.2104  0.8244
23448SOL     OW82321   7.245   9.674   0.089  0.5296 -0.1415  0.3937
23448SOL    HW182322   7.162   9.700   0.126 -0.0833  0.1838 -1.1276
23448SOL    HW282323   7.305   9.746   0.109  0.1202  0.1926  0.4112
23449SOL     OW82324   8.794   7.525   1.857  0.3461 -0.1282 -0.2049
23449SOL    HW182325   8.776   7.610   1.818  0.0307  0.4829  1.1921
23449SOL    HW282326   8.732   7.518   1.929  1.0713 -1.0812  0.3600
23450SOL     OW82327   1.504   3.534   3.670 -0.1137  0.4802 -0.0472
23450SOL    HW182328   1.549   3.615   3.646 -0.4515  0.7641  0.2646
23450SOL    HW282329   1.451   3.558   3.746  2.0100 -0.7426  1.9331
23451SOL     OW82330   3.922   0.753   2.647  0.1127 -0.2545  0.1079
23451SOL    HW182331   3.852   0.751   2.582 -0.0805  0.7773  0.2716
23451SOL    HW282332   3.922   0.665   2.684 -0.9544 -0.3396 -0.0527
23452SOL     OW82333   1.530   6.651   7.480  0.1501 -0.4913 -0.1436
23452SOL    HW182334   1.625   6.664   7.481 -0.0897  1.8362 -1.3731
23452SOL    HW282335   1.496   6.713   7.545 -0.5879 -1.0695  0.0461
23453SOL     OW82336   4.301   2.131   0.004  0.1275  0.5333  0.0230
23453SOL    HW182337   4.218   2.178  -0.003  1.0278  2.2215  0.2013
23453SOL    HW282338   4.276   2.041   0.025 -1.6356  1.0938  0.4899
23454SOL     OW82339   9.445   5.997   3.929 -0.3409 -0.1791  0.2761
23454SOL    HW182340   9.423   6.055   4.002 -0.3918  0.6690 -0.3953
23454SOL    HW282341   9.498   5.928   3.969  0.9140  1.0753  0.8969
23455SOL     OW82342   4.654   3.016   1.592  0.2007  0.1929  0.5243
23455SOL    HW182343   4.577   2.966   1.566  0.6414  0.2401 -0.9515
23455SOL    HW282344   4.722   2.950   1.607  0.4753  0.2555 -0.3584
23456SOL     OW82345   5.180   6.080   2.723 -0.0652 -0.1150  1.0009
23456SOL    HW182346   5.099   6.118   2.689  1.0762  2.4087  0.9016
23456SOL    HW282347   5.214   6.146   2.783  1.8806 -1.1414  1.1125
23457SOL     OW82348   0.853   0.148   1.564  0.3742  0.0982  0.2908
23457SOL    HW182349   0.869   0.190   1.648  0.8460 -2.2903  1.4849
23457SOL    HW282350   0.939   0.139   1.524  0.1752  1.0291 -0.3786
23458SOL     OW82351   9.416   2.707   3.430  0.0913 -0.0507  0.5246
23458SOL    HW182352   9.361   2.783   3.448  0.5810 -0.0761  2.2645
23458SOL    HW282353   9.466   2.693   3.511 -0.4437 -2.6102  0.4970
23459SOL     OW82354   0.360   7.606   9.895  0.3696  0.7204  0.1204
23459SOL    HW182355   0.315   7.653   9.965  0.1648  0.3081  0.2730
23459SOL    HW282356   0.441   7.655   9.880  0.3671  0.8670  0.5764
23460SOL     OW82357   1.446   2.982   6.869  0.1864 -0.6151  0.3807
23460SOL    HW182358   1.370   3.010   6.920 -0.8130 -3.2618  0.5109
23460SOL    HW282359   1.517   2.976   6.932  0.0917  0.2686  0.5824
23461SOL     OW82360   9.778   9.732   3.513  0.2288 -0.3776  0.0602
23461SOL    HW182361   9.810   9.740   3.423 -0.4250  2.0053 -0.0418
23461SOL    HW282362   9.730   9.813   3.528  2.2671  0.4070  3.3277
23462SOL     OW82363   2.161   2.561   6.499  0.5677  0.2912 -0.3681
23462SOL    HW182364   2.209   2.534   6.578  1.3792  0.6875 -0.7075
23462SOL    HW282365   2.093   2.620   6.532  0.5111 -0.0229  0.0929
23463SOL     OW82366   1.468   8.319   7.093 -0.1307  0.4700  0.1810
23463SOL    HW182367   1.475   8.396   7.149  1.8887  0.9915 -0.7000
23463SOL    HW282368   1.460   8.354   7.004  1.1372 -0.2990 -0.2653
23464SOL     OW82369   7.535   9.279   2.175 -0.5985 -0.0769  0.6438
23464SOL    HW182370   7.612   9.328   2.203 -0.9791  1.5663 -0.9669
23464SOL    HW282371   7.503   9.235   2.254  0.0233  1.9523  2.0862
23465SOL     OW82372   9.875   6.934   2.339 -0.2311  0.1161  0.0835
23465SOL    HW182373   9.882   6.845   2.305  0.8467 -0.4661  1.7095
23465SOL    HW282374   9.795   6.934   2.391  0.0922 -0.0905  0.5850
23466SOL     OW82375   0.327   6.068   6.893  0.2523 -0.2588 -0.2496
23466SOL    HW182376   0.304   6.128   6.964  0.9911  0.0033 -0.2213
23466SOL    HW282377   0.414   6.035   6.917 -0.6122 -2.2827  0.3601
23467SOL     OW82378   5.080  10.371   9.507  0.0634  0.5803 -0.2707
23467SOL    HW182379   5.133  10.296   9.479 -1.3901 -0.0580 -1.4533
23467SOL    HW282380   5.080  10.430   9.431  0.0062  1.0979  0.1271
23468SOL     OW82381   3.706   4.384   5.898 -0.1842  0.0800 -0.5491
23468SOL    HW182382   3.689   4.380   5.992 -0.4915 -0.4680 -0.6237
23468SOL    HW282383   3.706   4.477   5.877 -1.8467  0.1564 -0.3196
23469SOL     OW82384   9.749   4.525   0.753 -1.0314 -0.0965  0.2162
23469SOL    HW182385   9.678   4.462   0.763  0.1146 -1.2848  1.1089
23469SOL    HW282386   9.800   4.493   0.679 -1.2558  0.6189 -0.2649
23470SOL     OW82387   1.707   2.177   2.619 -0.3513 -0.3262 -0.0865
23470SOL    HW182388   1.778   2.176   2.554 -0.2410 -0.0615  0.0266
23470SOL    HW282389   1.634   2.133   2.575  0.2877 -1.8231  0.2861
23471SOL     OW82390   8.015   2.368   4.071  0.1285  0.0001 -0.5565
23471SOL    HW182391   8.040   2.341   4.159  1.5282  0.0903 -0.8947
23471SOL    HW282392   7.990   2.460   4.080 -0.2669 -0.1410 -0.1695
23472SOL     OW82393   6.563   7.655   0.668 -0.0405 -0.0656  0.1546
23472SOL    HW182394   6.472   7.652   0.697 -0.1202 -0.9213 -0.1460
23472SOL    HW282395   6.562   7.614   0.581  0.7341 -0.7459  0.4482
23473SOL     OW82396   4.844   7.106   3.568 -0.3190 -0.3128 -0.1969
23473SOL    HW182397   4.809   7.150   3.490  0.4310  1.7242  0.5378
23473SOL    HW282398   4.768   7.063   3.607 -1.2160  0.6933 -0.7594
23474SOL     OW82399   4.456   3.256   0.816  0.6666 -0.2350 -0.1583
23474SOL    HW182400   4.365   3.276   0.794  0.8373  1.6518  0.5900
23474SOL    HW282401   4.459   3.161   0.825 -1.1758 -0.3503 -0.4256
23475SOL     OW82402   3.503   1.959   9.350 -0.1915  0.3530 -0.1648
23475SOL    HW182403   3.550   2.017   9.409  1.5637 -1.4966  0.3865
23475SOL    HW282404   3.424   1.935   9.397 -0.3940  1.4164  0.0475
23476SOL     OW82405   4.106   8.136   5.640 -0.2770  0.0166 -0.1651
23476SOL    HW182406   4.144   8.156   5.725 -0.4924  2.5050 -0.5784
23476SOL    HW282407   4.017   8.106   5.659 -0.6970  1.5888  0.4608
23477SOL     OW82408   6.627   4.154   2.342  0.3732 -0.4861 -0.5050
23477SOL    HW182409   6.579   4.072   2.350  0.8276 -0.9204 -1.8541
23477SOL    HW282410   6.560   4.222   2.345 -0.0123 -0.9000  0.5475
23478SOL     OW82411   5.408   9.190   9.711  0.0548 -0.0798 -0.1494
23478SOL    HW182412   5.324   9.236   9.714 -0.2461 -0.6572  1.3373
23478SOL    HW282413   5.473   9.259   9.712 -0.4029  0.3645 -0.5845
23479SOL     OW82414   9.927   7.929   7.425 -0.2491 -0.7110  0.1718
23479SOL    HW182415   9.955   7.956   7.512 -0.2219 -0.2795  0.0328
23479SOL    HW282416   9.948   7.836   7.420 -0.0006 -0.6738  0.5242
23480SOL     OW82417   5.021  10.072   0.695 -0.4305 -0.3643  0.3606
23480SOL    HW182418   5.100  10.024   0.670 -1.0295 -0.3428 -1.7771
23480SOL    HW282419   4.996  10.119   0.616 -1.5806  1.0851  1.5238
23481SOL     OW82420   5.097   3.888   0.819  0.2376 -0.3431  0.2324
23481SOL    HW182421   5.193   3.886   0.821  0.3074 -1.0997 -1.3645
23481SOL    HW282422   5.076   3.970   0.774  0.2401 -0.9235 -0.8885
23482SOL     OW82423   2.950   0.188   7.073 -0.2655 -0.2151 -0.2761
23482SOL    HW182424   3.026   0.141   7.106  0.1400  2.0981  2.4107
23482SOL    HW282425   2.876   0.130   7.091  0.2124  0.0284  2.9173
23483SOL     OW82426   9.481   6.744   4.832  0.1471  0.3503  0.3666
23483SOL    HW182427   9.401   6.774   4.789  1.8197  2.1706 -1.7855
23483SOL    HW282428   9.476   6.780   4.920 -0.0319  3.3625 -0.7402
23484SOL     OW82429   5.718   2.060   0.936 -0.5115  0.1395 -0.0657
23484SOL    HW182430   5.712   2.131   1.000  0.2831  0.2438 -0.0938
23484SOL    HW282431   5.773   1.994   0.978  1.1725  0.7940 -1.1289
23485SOL     OW82432   9.707   4.175   7.347  0.0648  0.0953 -0.4050
23485SOL    HW182433   9.765   4.243   7.314  0.3144  0.9206  1.5991
23485SOL    HW282434   9.648   4.157   7.274  0.9438  1.3685 -1.4908
23486SOL     OW82435   5.169   1.276   0.487 -0.7335  0.2972 -0.3495
23486SOL    HW182436   5.105   1.311   0.549 -0.7597  0.2709 -0.3613
23486SOL    HW282437   5.123   1.204   0.443  0.5995 -2.4973  2.4809
23487SOL     OW82438   9.409   0.911   6.243  0.0978  0.1271  0.3647
23487SOL    HW182439   9.346   0.955   6.185 -0.9894 -2.2096 -0.3598
23487SOL    HW282440   9.355   0.879   6.315  0.3199 -2.1156 -0.3844
23488SOL     OW82441   8.245   4.754   1.071  0.4148 -0.6679  0.0909
23488SOL    HW182442   8.336   4.731   1.055  0.9651  0.2744  1.6856
23488SOL    HW282443   8.205   4.673   1.103  1.5485 -0.3006  2.6146
23489SOL     OW82444   2.259   7.826   6.959 -0.4441  0.0226 -0.2403
23489SOL    HW182445   2.165   7.804   6.953 -0.1552 -0.9309 -3.1847
23489SOL    HW282446   2.267   7.909   6.913  0.0244  0.7416  1.1040
23490SOL     OW82447   0.911   6.829   3.746  0.8463  0.2750 -0.0991
23490SOL    HW182448   0.953   6.879   3.817  2.0719 -1.5389  0.5065
23490SOL    HW282449   0.836   6.884   3.720  1.2301  1.6892  1.5691
23491SOL     OW82450   7.290   6.402   9.184 -0.4779 -0.1769  0.7371
23491SOL    HW182451   7.377   6.419   9.148 -0.8568  1.5010  0.5210
23491SOL    HW282452   7.263   6.321   9.142  0.5666 -0.1772  0.0087
23492SOL     OW82453   2.964   3.320   3.803  0.3605  0.2551  0.5338
23492SOL    HW182454   2.925   3.243   3.763 -2.1206  1.4119  0.5077
23492SOL    HW282455   2.915   3.333   3.884  0.7175  1.7683  0.5439
23493SOL     OW82456   2.134   0.058   2.757 -0.1931 -0.0085  0.7402
23493SOL    HW182457   2.092   0.046   2.672 -0.8135 -0.2030  1.0695
23493SOL    HW282458   2.171  -0.027   2.779  0.9716  0.3214  0.1503
23494SOL     OW82459  10.244   4.510   2.462  0.5543 -0.2779  0.5489
23494SOL    HW182460  10.273   4.600   2.448 -0.0153 -0.0120  1.0082
23494SOL    HW282461  10.155   4.508   2.427  0.9417 -0.9546 -0.4227
23495SOL     OW82462   1.033  10.237   4.576 -0.1527  0.2246 -0.2374
23495SOL    HW182463   1.071  10.152   4.552 -1.2811 -1.1599  2.4288
23495SOL    HW282464   1.038  10.240   4.671 -0.4947  3.0449 -0.2195
23496SOL     OW82465   9.323   9.167   0.315 -0.1443  0.5495  0.1632
23496SOL    HW182466   9.404   9.130   0.281 -0.8572 -0.6668 -0.2697
23496SOL    HW282467   9.332   9.160   0.410 -0.6342 -1.7013  0.1078
23497SOL     OW82468   6.815   5.507   9.804 -0.6823  0.2405 -0.4258
23497SOL    HW182469   6.897   5.465   9.780 -0.6458 -0.0924  0.2518
23497SOL    HW282470   6.749   5.438   9.797 -0.4970 -0.1783  1.4582
23498SOL     OW82471   8.741   2.851   9.664  0.4001 -0.0373 -0.2545
23498SOL    HW182472   8.662   2.887   9.705  0.2421  0.2155 -0.7589
23498SOL    HW282473   8.788   2.808   9.735 -0.0176  0.1197  0.1247
23499SOL     OW82474   8.919   2.283   6.424 -0.2525 -0.2247  0.3922
23499SOL    HW182475   8.841   2.268   6.371  0.6488 -1.6004 -0.6267
23499SOL    HW282476   8.929   2.204   6.476  0.9039 -0.4444 -0.1172
23500SOL     OW82477   4.412   0.855   3.724 -0.0667 -0.0054  0.2588
23500SOL    HW182478   4.502   0.872   3.753 -0.2043  0.0618  0.6575
23500SOL    HW282479   4.376   0.797   3.791 -0.8138  1.2073  0.9426
23501SOL     OW82480   0.020   4.531   3.072 -0.3992 -0.2045  0.0778
23501SOL    HW182481   0.019   4.497   3.162 -1.8117 -0.2843  0.0547
23501SOL    HW282482   0.014   4.452   3.017  2.1635 -0.3023 -0.1910
23502SOL     OW82483   0.607   0.040   0.372 -0.1216  0.4749  0.2384
23502SOL    HW182484   0.625   0.131   0.349 -0.9647  0.4358 -0.6200
23502SOL    HW282485   0.624  -0.010   0.292 -0.0854 -0.0810  0.5795
23503SOL     OW82486   4.477   8.206   6.564  0.4315 -0.1509  0.2221
23503SOL    HW182487   4.506   8.117   6.542  2.2666  0.5717 -0.4220
23503SOL    HW282488   4.531   8.231   6.638  0.0554  0.5091  0.2761
23504SOL     OW82489   8.253   3.192   6.082  0.0475 -0.1279 -0.3388
23504SOL    HW182490   8.325   3.162   6.138 -1.4467 -0.0818  1.7205
23504SOL    HW282491   8.278   3.165   5.994  2.9467  0.5896  0.1485
23505SOL     OW82492   2.940   0.904   5.671  0.6346  0.3217  0.3991
23505SOL    HW182493   2.858   0.931   5.629 -0.7128 -2.6850  0.9035
23505SOL    HW282494   2.924   0.915   5.764  1.6615  1.7560  0.4471
23506SOL     OW82495   4.273   8.694   3.722  0.0020  0.6326 -0.0150
23506SOL    HW182496   4.321   8.632   3.668 -1.6732  0.1940 -1.0997
23506SOL    HW282497   4.185   8.695   3.684 -0.6427  1.9537  1.4015
23507SOL     OW82498   3.839   6.843   4.812  0.1628 -0.2119  0.2445
23507SOL    HW182499   3.768   6.818   4.753  0.8444  0.0162 -0.7037
23507SOL    HW282500   3.800   6.908   4.871 -0.9854 -1.7145  1.1878
23508SOL     OW82501   6.128   4.117   7.355  0.3557  0.0500 -0.0163
23508SOL    HW182502   6.119   4.210   7.375 -1.2371  0.1639 -1.0728
23508SOL    HW282503   6.042   4.079   7.375  0.9485 -1.1874  0.3057
23509SOL     OW82504   2.667   4.493   6.155  0.3231 -0.0859  0.1640
23509SOL    HW182505   2.584   4.494   6.107  1.0650  2.1472 -1.2212
23509SOL    HW282506   2.641   4.509   6.246 -0.7395  2.9374 -0.5290
23510SOL     OW82507   8.468   5.011   3.010 -0.2684 -0.5979  0.1549
23510SOL    HW182508   8.505   5.002   3.098  1.0053 -0.0811 -0.2994
23510SOL    HW282509   8.441   4.923   2.986 -0.5830 -0.7535  1.0452
23511SOL     OW82510   9.098   6.309   3.918  0.3312 -0.4860  0.6475
23511SOL    HW182511   9.146   6.317   4.000  0.5345 -2.6630  0.7722
23511SOL    HW282512   9.164   6.288   3.852  0.1553  1.1482 -0.1043
23512SOL     OW82513   7.996   4.956   9.638 -0.3006  0.0476 -0.4656
23512SOL    HW182514   7.919   5.012   9.655 -0.4520 -0.4876  0.6356
23512SOL    HW282515   7.976   4.874   9.681  0.3429 -0.5555 -1.2853
23513SOL     OW82516   2.395   6.041   9.271  0.0940 -0.5578  0.2102
23513SOL    HW182517   2.367   5.958   9.231 -0.8347 -0.1382 -0.0606
23513SOL    HW282518   2.488   6.048   9.250  0.2260 -1.6094  0.3880
23514SOL     OW82519   0.778   7.720   6.448 -0.5468  0.1794 -0.0661
23514SOL    HW182520   0.754   7.770   6.371  1.1351 -0.2498 -0.9317
23514SOL    HW282521   0.825   7.783   6.504  1.3203 -0.2714 -1.0281
23515SOL     OW82522   2.323   6.543   8.332  0.4013  0.1635  0.8319
23515SOL    HW182523   2.258   6.520   8.398 -0.9456 -0.4680 -0.6479
23515SOL    HW282524   2.310   6.636   8.317 -1.5858 -0.3017 -0.8269
23516SOL     OW82525   7.390   3.282   4.356 -0.0997  0.0744 -0.2572
23516SOL    HW182526   7.474   3.244   4.330 -0.5597 -1.4198  0.3186
23516SOL    HW282527   7.343   3.294   4.274  0.2792 -0.0523 -0.4968
23517SOL     OW82528   9.750   6.438   7.489  0.4389  0.4466  0.1930
23517SOL    HW182529   9.787   6.465   7.573  0.9882  0.0107  0.0955
23517SOL    HW282530   9.824   6.439   7.428  0.2996 -0.4227 -0.0075
23518SOL     OW82531   7.479   6.571   5.929 -0.0532 -0.0402 -0.5604
23518SOL    HW182532   7.479   6.662   5.899 -1.1352 -0.2273 -1.1954
23518SOL    HW282533   7.537   6.526   5.868 -0.4701  0.0049 -0.9945
23519SOL     OW82534   0.742   9.916   8.837  0.4211 -0.2966  0.2968
23519SOL    HW182535   0.805   9.852   8.803 -2.1675 -2.9929  0.2095
23519SOL    HW282536   0.664   9.905   8.783 -1.0924  0.9941  2.0825
23520SOL     OW82537   0.142   7.933   4.409  0.3016 -0.2950 -0.1408
23520SOL    HW182538   0.095   7.855   4.379 -0.8096 -0.0394  0.8076
23520SOL    HW282539   0.228   7.901   4.436  0.9279 -0.6985 -2.3977
23521SOL     OW82540   7.344   7.598   7.163 -0.0996  0.1193 -0.5984
23521SOL    HW182541   7.384   7.515   7.187  0.0702  1.0823  2.9810
23521SOL    HW282542   7.252   7.576   7.146 -0.1979 -0.7630  0.9113
23522SOL     OW82543   6.296   6.098   9.475  0.3245  0.6881 -0.0444
23522SOL    HW182544   6.352   6.161   9.430 -1.0377  0.9369 -1.4645
23522SOL    HW282545   6.266   6.146   9.553  0.4791  1.2728 -0.3347
23523SOL     OW82546   6.599   2.301   5.983  0.2844  0.1265 -0.7755
23523SOL    HW182547   6.530   2.366   5.974  1.1173  1.3130  0.7448
23523SOL    HW282548   6.671   2.349   6.025  1.1191 -1.6581 -0.0729
23524SOL     OW82549   0.758   6.691   0.933 -0.0272 -0.0253 -0.2784
23524SOL    HW182550   0.706   6.737   0.999 -1.2630 -0.4595 -0.9248
23524SOL    HW282551   0.835   6.659   0.982 -1.8149 -2.0162  1.4783
23525SOL     OW82552   7.922   8.537   7.049  0.2853  0.2709 -0.8139
23525SOL    HW182553   7.880   8.492   7.122 -0.5408  0.1907 -1.3206
23525SOL    HW282554   8.011   8.503   7.047  0.0292 -0.4407 -0.4385
23526SOL     OW82555   7.896   7.098   1.154  0.1749  0.3456  0.7043
23526SOL    HW182556   7.935   7.133   1.074 -0.1594  1.6895  1.0954
23526SOL    HW282557   7.955   7.127   1.224 -0.3458  0.5028  1.0864
23527SOL     OW82558   1.074   1.450   0.301  0.0251 -0.4214 -0.1852
23527SOL    HW182559   1.103   1.359   0.307 -0.3829 -0.6309 -1.1792
23527SOL    HW282560   1.017   1.462   0.378  1.5672 -0.4155  1.0077
23528SOL     OW82561   2.876   2.347   3.742 -0.1452  0.3208  0.1432
23528SOL    HW182562   2.806   2.379   3.799 -0.6456  2.1099 -1.3858
23528SOL    HW282563   2.913   2.426   3.703  1.9114 -0.6720 -0.0615
23529SOL     OW82564   4.743   3.283   6.729 -0.2503 -0.2602  0.4568
23529SOL    HW182565   4.675   3.348   6.710  0.8312  0.9024  0.5037
23529SOL    HW282566   4.761   3.242   6.645 -1.7311 -1.3344  0.6163
23530SOL     OW82567   7.674   6.221   0.546 -0.0528  0.1689  0.0202
23530SOL    HW182568   7.603   6.279   0.519 -0.0718 -0.1520 -0.6545
23530SOL    HW282569   7.631   6.138   0.567  0.0758  0.1099  0.0497
23531SOL     OW82570   3.281   4.692   6.121 -0.6879 -0.2213 -0.3861
23531SOL    HW182571   3.261   4.623   6.185 -1.3579  1.5639  1.4388
23531SOL    HW282572   3.369   4.720   6.144 -1.0505  0.6409 -0.0168
23532SOL     OW82573   5.053   1.293   0.075 -0.2447  0.2075  0.4793
23532SOL    HW182574   4.957   1.288   0.076 -0.2705 -0.2099  2.9382
23532SOL    HW282575   5.080   1.246   0.154  2.1303 -1.3880 -1.1428
23533SOL     OW82576   4.180   7.118   7.751 -0.4789 -0.3075 -0.0132
23533SOL    HW182577   4.231   7.197   7.739  1.1256 -1.2749  0.1401
23533SOL    HW282578   4.090   7.148   7.761  0.2302  1.5620  1.1372
23534SOL     OW82579   8.604   3.282   6.637 -0.2906  0.4700 -0.5497
23534SOL    HW182580   8.661   3.275   6.561  0.8541 -1.3497  0.4078
23534SOL    HW282581   8.530   3.226   6.617 -0.1289  0.2200 -0.4556
23535SOL     OW82582   8.214   9.790   1.255 -0.2898  0.1392 -0.2378
23535SOL    HW182583   8.164   9.840   1.320  2.3961  0.5185  1.7191
23535SOL    HW282584   8.166   9.707   1.246 -2.1972  1.1324  0.0968
23536SOL     OW82585   6.577   5.585   1.894  0.1735 -0.0116  0.0956
23536SOL    HW182586   6.613   5.497   1.903  1.2701  0.2366 -1.3064
23536SOL    HW282587   6.597   5.609   1.803  0.4909  1.9139  0.6266
23537SOL     OW82588   6.684   8.122   5.201  0.7305  0.2043 -0.0911
23537SOL    HW182589   6.724   8.153   5.120 -0.9709  0.2917 -0.9256
23537SOL    HW282590   6.606   8.074   5.173  1.0290 -1.2426  1.4050
23538SOL     OW82591   6.545   8.161   4.477  0.4229 -0.3350 -0.1774
23538SOL    HW182592   6.462   8.131   4.441  0.0181 -0.6638  0.9773
23538SOL    HW282593   6.562   8.245   4.434 -1.0287  0.2342  0.3019
23539SOL     OW82594   4.114   9.435   0.630  0.1393  0.1106 -0.3877
23539SOL    HW182595   4.094   9.375   0.558 -0.4147  0.0960 -0.2292
23539SOL    HW282596   4.083   9.389   0.708  0.7530  0.1189 -0.1396
23540SOL     OW82597   8.379   7.535   4.589  0.7799  0.4440 -0.9193
23540SOL    HW182598   8.368   7.612   4.532 -0.7991  1.9055  1.1764
23540SOL    HW282599   8.376   7.461   4.529 -1.6782  1.8326 -2.7156
23541SOL     OW82600   8.645   7.511   4.342 -0.1986  0.3742  0.0508
23541SOL    HW182601   8.571   7.451   4.351 -0.8880  1.3004  0.7331
23541SOL    HW282602   8.620   7.588   4.393  0.2356  1.6599 -1.5961
23542SOL     OW82603   1.787   6.514   3.778  0.4560  0.6776 -0.1237
23542SOL    HW182604   1.811   6.599   3.742  0.7534  0.6106 -0.0846
23542SOL    HW282605   1.863   6.458   3.761 -0.4785 -0.1290 -1.9402
23543SOL     OW82606   7.851   1.898   3.808 -0.1511 -0.6517  0.6855
23543SOL    HW182607   7.925   1.842   3.785  1.4626  2.0347 -1.2819
23543SOL    HW282608   7.890   1.968   3.861 -0.8484  1.6708 -1.6817
23544SOL     OW82609   9.117   5.928   0.335  0.1761  0.2636  0.4648
23544SOL    HW182610   9.090   5.881   0.414  0.9832  1.1603  1.2913
23544SOL    HW282611   9.170   6.000   0.367  2.2720 -0.5401 -1.0152
23545SOL     OW82612   6.507   2.396   8.489  0.3258 -0.1566  0.1592
23545SOL    HW182613   6.506   2.354   8.403  0.0352 -0.0907  0.1286
23545SOL    HW282614   6.415   2.419   8.506  0.2959 -0.6845  0.7456
23546SOL     OW82615   1.471   9.046   9.746  0.4540  0.4846 -0.3301
23546SOL    HW182616   1.385   9.084   9.728  1.3514  1.3137 -3.3553
23546SOL    HW282617   1.492   9.077   9.834 -1.4362  1.9966 -0.3403
23547SOL     OW82618   3.111   2.920   8.884 -0.3734 -0.6140 -0.8113
23547SOL    HW182619   3.098   3.009   8.850 -2.1662 -0.1042  0.9590
23547SOL    HW282620   3.031   2.874   8.859 -0.1790 -1.2310 -0.3074
23548SOL     OW82621   9.098   7.347   4.453 -0.5645 -0.1349 -0.1335
23548SOL    HW182622   9.031   7.406   4.418  0.8219  0.4550 -1.9793
23548SOL    HW282623   9.057   7.260   4.450 -1.2860  0.2161 -1.1757
23549SOL     OW82624  10.055   3.358   1.337 -0.1896 -0.2317  0.0918
23549SOL    HW182625   9.976   3.362   1.390  0.7762 -0.8824  1.6782
23549SOL    HW282626  10.058   3.267   1.306 -1.1343  0.3272 -1.7805
23550SOL     OW82627   3.152   6.925   4.601 -0.5563  0.4598  0.6965
23550SOL    HW182628   3.121   6.950   4.688  1.8828 -1.4599  2.2458
23550SOL    HW282629   3.246   6.913   4.611 -0.0754  0.7589 -2.4036
23551SOL     OW82630  10.109   4.213   9.009  0.1816 -0.4842 -0.2268
23551SOL    HW182631  10.163   4.157   9.065  0.0426 -1.1902 -0.7698
23551SOL    HW282632  10.130   4.302   9.035 -1.1070 -0.7706  2.1354
23552SOL     OW82633   1.726   5.646   9.520 -0.1844 -0.3195 -0.1193
23552SOL    HW182634   1.815   5.679   9.506  0.2357 -1.8499 -1.3544
23552SOL    HW282635   1.674   5.688   9.451 -0.6244  1.1176  1.0225
23553SOL     OW82636   7.599   2.196   4.619  0.5030 -0.2928 -0.7657
23553SOL    HW182637   7.624   2.268   4.561  1.2451  1.5529  1.6621
23553SOL    HW282638   7.682   2.167   4.658 -0.2062  0.7962  1.7728
23554SOL     OW82639   8.162   7.865   8.716  0.0165  0.4653 -0.4044
23554SOL    HW182640   8.081   7.825   8.748 -0.1252  1.4742  0.5654
23554SOL    HW282641   8.231   7.826   8.769 -0.0404  0.9374  0.0228
23555SOL     OW82642   2.971   5.609  10.254 -0.4299 -0.2185  0.0423
23555SOL    HW182643   2.892   5.608  10.200 -1.2657  0.4762  1.2182
23555SOL    HW282644   3.030   5.547  10.211 -2.1774 -1.9445 -0.0004
23556SOL     OW82645   6.795   5.210   0.700 -0.2781  0.0114  0.0606
23556SOL    HW182646   6.802   5.115   0.706 -1.3410  0.0246  3.0417
23556SOL    HW282647   6.768   5.238   0.788 -1.5785  2.9324 -1.1349
23557SOL     OW82648   0.333   0.161   0.377  0.1546 -0.0347  0.3821
23557SOL    HW182649   0.417   0.116   0.367 -0.3635 -0.9130 -0.2547
23557SOL    HW282650   0.269   0.090   0.385 -0.4966  0.6212  1.1806
23558SOL     OW82651   6.901   8.260   0.400 -0.1192  0.0445  0.3075
23558SOL    HW182652   6.947   8.193   0.451 -0.9500 -0.4112  0.4713
23558SOL    HW282653   6.933   8.247   0.311  0.7362  0.3226  0.5590
23559SOL     OW82654   8.466   0.850   7.228  0.2254 -0.2075  0.1632
23559SOL    HW182655   8.466   0.779   7.292 -1.1183 -1.1795 -0.8583
23559SOL    HW282656   8.505   0.812   7.149  0.9597  0.6795  0.0834
23560SOL     OW82657   8.892   0.967   1.078  0.1062 -0.2998  0.3885
23560SOL    HW182658   8.847   1.045   1.045  1.0167 -0.2365 -0.7490
23560SOL    HW282659   8.913   0.989   1.169 -1.0461  0.1450  0.5648
23561SOL     OW82660   9.397   1.918   5.025 -0.5176  0.1710  0.8288
23561SOL    HW182661   9.416   1.962   5.108  0.3558  0.0233  0.7074
23561SOL    HW282662   9.301   1.918   5.020 -0.6504 -1.1180  2.5412
23562SOL     OW82663   9.165   3.684   3.378 -0.2086  0.3037 -0.0574
23562SOL    HW182664   9.151   3.590   3.381 -0.6595  0.3788  0.2207
23562SOL    HW282665   9.177   3.704   3.285 -1.0542  0.1107 -0.2146
23563SOL     OW82666   9.585   3.775   3.127  0.1735 -1.0924 -0.4202
23563SOL    HW182667   9.545   3.802   3.045  0.1877  0.3230  0.0101
23563SOL    HW282668   9.678   3.795   3.116  0.2406 -1.2941 -0.2198
23564SOL     OW82669   3.236   5.874   5.374 -0.2471  0.3714 -0.0745
23564SOL    HW182670   3.185   5.837   5.446 -1.7194 -0.1458 -1.3208
23564SOL    HW282671   3.293   5.939   5.415 -0.0298 -0.8915  1.7228
23565SOL     OW82672  10.295   8.024   2.263 -0.1650  0.8430  0.3801
23565SOL    HW182673  10.282   7.958   2.195  0.3838  0.9462  0.1686
23565SOL    HW282674  10.383   8.058   2.247  0.0852  0.6590  1.3243
23566SOL     OW82675   7.065   7.580   8.631  0.2030  0.2664 -0.1917
23566SOL    HW182676   7.006   7.543   8.565 -0.1340 -0.2978  0.4177
23566SOL    HW282677   7.120   7.642   8.582 -1.3909  1.3887 -0.6408
23567SOL     OW82678   1.437   0.810   0.922  0.1463  0.2110  0.1499
23567SOL    HW182679   1.491   0.829   0.845  0.2623 -1.0329 -0.0931
23567SOL    HW282680   1.487   0.746   0.972 -0.7552 -0.4071  0.2903
23568SOL     OW82681   4.742   9.691   9.464  0.6722  0.2368 -0.1369
23568SOL    HW182682   4.693   9.658   9.539  0.4157 -0.3597 -0.5606
23568SOL    HW282683   4.716   9.634   9.391  1.7680  0.0892 -0.4362
23569SOL     OW82684  10.121  10.377   7.845  0.3203 -0.3523 -0.6104
23569SOL    HW182685  10.163  10.293   7.864  0.8610 -0.1593 -0.9052
23569SOL    HW282686  10.176  10.415   7.776 -0.5301 -0.2322 -1.2441
23570SOL     OW82687   5.916   8.347   4.156  0.3878 -0.3032  0.0456
23570SOL    HW182688   5.857   8.274   4.135 -0.0978 -0.0644  0.5564
23570SOL    HW282689   5.866   8.426   4.134  0.7992 -0.1095 -0.2229
23571SOL     OW82690   4.873   1.346   3.510 -0.1525 -0.2039 -0.1907
23571SOL    HW182691   4.864   1.392   3.427  1.5006 -2.2296 -1.5667
23571SOL    HW282692   4.789   1.303   3.523 -0.1166 -0.6339 -1.3107
23572SOL     OW82693   1.391   8.968   8.768  0.0283 -0.3758 -0.2317
23572SOL    HW182694   1.360   9.049   8.807  0.4827 -0.3802  0.1555
23572SOL    HW282695   1.317   8.908   8.774 -0.8201  0.4419 -1.8849
23573SOL     OW82696   9.458   4.785   6.059  0.2103 -0.2114 -0.0652
23573SOL    HW182697   9.428   4.701   6.023  2.3290 -0.8200 -0.5330
23573SOL    HW282698   9.472   4.840   5.982 -1.1972  0.6417  0.2427
23574SOL     OW82699   7.492   8.616   2.008  0.0066  0.1559  0.6963
23574SOL    HW182700   7.487   8.552   1.937  2.1525 -0.1596  0.7739
23574SOL    HW282701   7.525   8.566   2.083 -1.3517  0.6920  1.6939
23575SOL     OW82702   0.953   4.336   5.671  0.2620  0.2593  0.4308
23575SOL    HW182703   0.883   4.365   5.730 -0.5314  3.6362 -1.8786
23575SOL    HW282704   1.034   4.351   5.721 -0.4600  0.1193  1.6968
23576SOL     OW82705   6.841   0.030   2.608  0.2106 -0.2921 -0.3822
23576SOL    HW182706   6.909   0.003   2.670  0.7947 -0.5586 -1.1295
23576SOL    HW282707   6.889   0.065   2.533 -0.4956  2.6015  0.4020
23577SOL     OW82708   5.036   9.891   5.980 -0.0547  0.0694  0.1231
23577SOL    HW182709   4.981   9.850   5.913 -0.3360 -1.2475  1.1137
23577SOL    HW282710   5.092   9.819   6.012  0.2964  0.7404  1.0610
23578SOL     OW82711   9.661   5.213   8.564  0.2440  0.1672  0.1358
23578SOL    HW182712   9.739   5.226   8.618  0.0894  0.1190  0.3729
23578SOL    HW282713   9.686   5.147   8.500  0.6573  0.7421 -0.3113
23579SOL     OW82714  10.252   3.983   7.002 -0.0143 -0.2094 -0.0665
23579SOL    HW182715  10.172   4.034   7.012  0.3198  0.3309 -0.0849
23579SOL    HW282716  10.236   3.928   6.925  0.2688  1.1610 -1.1383
23580SOL     OW82717   7.158   0.974   9.260  0.7025 -0.6402 -0.0036
23580SOL    HW182718   7.224   1.024   9.308  1.9447  0.7137 -2.8716
23580SOL    HW282719   7.089   1.038   9.242  0.7149 -0.8470 -0.8064
23581SOL     OW82720   7.001   9.517   9.599 -0.6002  0.3438  0.0665
23581SOL    HW182721   6.938   9.520   9.672 -1.4838  0.8356 -0.6908
23581SOL    HW282722   7.086   9.509   9.641 -0.9227  2.3505  1.2576
23582SOL     OW82723   2.271   1.447   7.010 -0.0311 -0.4280 -0.2090
23582SOL    HW182724   2.294   1.539   7.022 -1.2162  0.2978 -2.7784
23582SOL    HW282725   2.182   1.440   7.045  0.0029 -0.5722 -0.1486
23583SOL     OW82726   8.703   3.860   4.583  0.1800 -0.5130  0.2671
23583SOL    HW182727   8.791   3.892   4.562 -0.1970  0.1192 -0.3878
23583SOL    HW282728   8.681   3.801   4.511 -0.1740 -0.1894  0.1043
23584SOL     OW82729   2.171   9.876   5.286 -1.1590  0.3818 -0.4080
23584SOL    HW182730   2.140   9.877   5.377 -1.0902  1.4613 -0.3824
23584SOL    HW282731   2.190   9.784   5.269 -0.8072  0.2071  0.7949
23585SOL     OW82732   2.306   1.653   2.402 -0.8078 -0.1185  0.0628
23585SOL    HW182733   2.247   1.727   2.387  0.0824  0.4071 -1.0706
23585SOL    HW282734   2.330   1.660   2.495 -0.8495  0.9545  0.0098
23586SOL     OW82735   2.600  10.054   6.081  0.1806 -0.0616 -0.4640
23586SOL    HW182736   2.667  10.114   6.115 -0.0278  0.3088 -0.7017
23586SOL    HW282737   2.535  10.111   6.041  0.1233 -0.4665 -0.9534
23587SOL     OW82738   3.197   8.438   8.722 -0.0063 -0.2336 -0.6344
23587SOL    HW182739   3.117   8.387   8.707  0.1005 -0.5199 -0.2428
23587SOL    HW282740   3.166   8.527   8.737 -0.4563 -0.7338  1.8039
23588SOL     OW82741  10.029   3.727   0.919  0.1203 -0.2213 -0.2747
23588SOL    HW182742  10.101   3.683   0.963  2.4654  1.6223 -2.0276
23588SOL    HW282743  10.011   3.804   0.973 -1.3789 -1.2325  0.7472
23589SOL     OW82744   1.122   1.266   9.736 -0.2621 -0.6008  0.4704
23589SOL    HW182745   1.170   1.214   9.672 -0.4504 -0.6277  0.3486
23589SOL    HW282746   1.041   1.290   9.690  0.0444  0.2169  0.3454
23590SOL     OW82747   1.786   6.210   3.828 -0.6112 -0.1678 -0.3561
23590SOL    HW182748   1.825   6.162   3.900 -0.8773 -0.2149 -0.2421
23590SOL    HW282749   1.693   6.216   3.851 -0.7461 -0.4131 -0.8152
23591SOL     OW82750   7.229   2.260   9.733  0.4651  0.4268 -0.0818
23591SOL    HW182751   7.263   2.247   9.644  1.7702  2.1431  0.1104
23591SOL    HW282752   7.265   2.187   9.783 -1.1007 -1.1260 -1.1288
23592SOL     OW82753   6.662   9.204   2.732  0.1704  0.3824 -0.0401
23592SOL    HW182754   6.589   9.201   2.670 -2.0624 -0.0055  2.4354
23592SOL    HW282755   6.693   9.295   2.728 -0.3590  0.5317 -1.2116
23593SOL     OW82756   0.431   0.741   9.169  0.2070 -0.4424  0.0563
23593SOL    HW182757   0.376   0.663   9.161  0.2540 -0.3421 -1.8190
23593SOL    HW282758   0.513   0.709   9.205  0.2653 -1.3046 -0.7994
23594SOL     OW82759   9.338   1.650   8.178  0.1873  0.6954 -0.2548
23594SOL    HW182760   9.331   1.583   8.110 -1.5764  0.6996 -0.1333
23594SOL    HW282761   9.338   1.733   8.131  1.8415  0.6553 -0.3752
23595SOL     OW82762   0.257   3.975   3.338 -0.1874 -0.3902 -0.1488
23595SOL    HW182763   0.324   3.922   3.381 -0.8487  0.2793  1.8444
23595SOL    HW282764   0.290   4.064   3.342 -0.6451 -0.2141 -0.2378
23596SOL     OW82765   2.222   3.221  10.293 -0.4052 -0.1819  0.6275
23596SOL    HW182766   2.299   3.175  10.326  1.2785  2.0809  0.1285
23596SOL    HW282767   2.157   3.212  10.362 -0.4036 -3.5931  0.3627
23597SOL     OW82768   5.298   4.572   3.445 -0.1997 -0.0528  0.0388
23597SOL    HW182769   5.362   4.538   3.383  1.2842  2.3133  0.1247
23597SOL    HW282770   5.315   4.666   3.448 -0.7527  0.0766  3.3824
23598SOL     OW82771   6.923   3.031   0.755 -0.1582  0.3690 -0.1814
23598SOL    HW182772   6.880   3.116   0.746  1.0448  0.8785 -1.6177
23598SOL    HW282773   6.919   3.011   0.848 -1.1334  1.6390  0.0668
23599SOL     OW82774   8.679   9.058   4.911  0.2835 -0.2097 -0.5209
23599SOL    HW182775   8.744   9.071   4.841  2.0460  1.5409  1.3136
23599SOL    HW282776   8.684   8.965   4.930  0.7263 -0.4888 -1.8386
23600SOL     OW82777   7.741   9.433   4.844  0.3643  0.4721  0.8859
23600SOL    HW182778   7.808   9.369   4.818  1.2588  1.6741  0.1182
23600SOL    HW282779   7.746   9.437   4.939 -0.0287 -0.9226  0.9823
23601SOL     OW82780   8.718   2.743   4.303 -0.2641 -0.3434  0.0323
23601SOL    HW182781   8.723   2.721   4.396 -1.0789 -0.9517 -0.0511
23601SOL    HW282782   8.639   2.795   4.295 -0.6646 -0.9966 -0.4373
23602SOL     OW82783   5.081   5.425   6.881 -0.5954 -0.4084 -0.4546
23602SOL    HW182784   5.069   5.520   6.882 -0.2140 -0.3014 -2.0844
23602SOL    HW282785   5.038   5.397   6.800 -1.1070 -1.6971  0.2417
23603SOL     OW82786   9.517   8.101   4.468  0.2822  0.3501  0.1884
23603SOL    HW182787   9.605   8.122   4.501  0.5214 -1.3831  0.7558
23603SOL    HW282788   9.487   8.029   4.523 -0.8725 -0.1103 -0.9827
23604SOL     OW82789   7.030  10.282   5.800  0.0230  0.4637 -0.3158
23604SOL    HW182790   7.024  10.347   5.869  1.0632  0.7789 -0.4982
23604SOL    HW282791   7.107  10.308   5.749  0.1227 -0.5828 -0.7321
23605SOL     OW82792   5.397   2.005   6.688  0.2736 -0.0819  0.0344
23605SOL    HW182793   5.401   1.920   6.645 -0.0265 -0.2506  0.3317
23605SOL    HW282794   5.340   2.058   6.631 -0.2832 -0.3659  0.3248
23606SOL     OW82795   0.235   3.973   3.630 -0.1004 -0.1084 -0.0789
23606SOL    HW182796   0.257   3.942   3.718 -0.6608 -1.3442 -0.3539
23606SOL    HW282797   0.286   4.054   3.620  0.9250 -0.6021  0.9097
23607SOL     OW82798   4.616   3.805  10.257  0.5238 -0.1024  0.5695
23607SOL    HW182799   4.648   3.881  10.306  0.9502 -1.0504  1.8281
23607SOL    HW282800   4.556   3.761  10.318  0.4377 -0.8792 -0.0536
23608SOL     OW82801   8.019   4.885   8.168  0.1193  0.2900  0.0015
23608SOL    HW182802   8.105   4.917   8.197 -0.8934  1.8299  1.4308
23608SOL    HW282803   7.969   4.964   8.148 -0.8020 -0.5987 -1.4448
23609SOL     OW82804   2.211   4.429   6.493  0.4843 -0.1032 -0.0064
23609SOL    HW182805   2.207   4.394   6.582  1.2526  0.0869  0.1092
23609SOL    HW282806   2.144   4.380   6.445  0.0206 -0.1567  0.6892
23610SOL     OW82807   0.181   5.062   0.452 -0.5583  0.0880 -0.6571
23610SOL    HW182808   0.167   4.969   0.466 -2.1354  0.2779 -0.7907
23610SOL    HW282809   0.114   5.087   0.389 -0.4843  1.4032 -0.2479
23611SOL     OW82810   4.814   0.198   4.719 -0.1673 -0.2067  0.1828
23611SOL    HW182811   4.784   0.113   4.752  0.6615 -1.3556 -1.8834
23611SOL    HW282812   4.890   0.178   4.665  0.5658  1.9694  0.2972
23612SOL     OW82813   3.603   6.569   4.436  0.2354 -0.3313 -1.1667
23612SOL    HW182814   3.520   6.579   4.482 -0.3232  3.0712 -2.5908
23612SOL    HW282815   3.668   6.607   4.495  0.6740 -2.1446 -0.4424
23613SOL     OW82816  10.205   6.352   9.000 -0.5972 -0.3321  0.1986
23613SOL    HW182817  10.185   6.344   8.907  2.7288  0.9244 -0.7630
23613SOL    HW282818  10.170   6.437   9.025 -0.6775 -0.2614 -0.1470
23614SOL     OW82819   1.458   6.753   4.706 -0.0045 -0.2171  0.5707
23614SOL    HW182820   1.506   6.686   4.755  0.2497 -0.1837  0.3679
23614SOL    HW282821   1.525   6.803   4.660 -0.0625  1.1062  1.8475
23615SOL     OW82822   0.670   9.217   6.663  0.8582  0.2420  0.3276
23615SOL    HW182823   0.692   9.234   6.755  0.5875 -0.4453  0.5300
23615SOL    HW282824   0.710   9.132   6.645 -0.5733 -0.4738  0.3509
23616SOL     OW82825   1.769   9.720   6.150  0.4264  0.3361 -0.4009
23616SOL    HW182826   1.739   9.682   6.232  0.2616  0.0063 -0.6129
23616SOL    HW282827   1.724   9.805   6.145 -1.9447 -0.8946 -1.5836
23617SOL     OW82828   1.777   9.000   2.249  0.2284 -0.0840  0.1288
23617SOL    HW182829   1.721   9.038   2.317  1.5232 -0.3984  1.4230
23617SOL    HW282830   1.788   9.071   2.186 -1.8798 -0.1218 -0.3754
23618SOL     OW82831   0.458   5.646   2.557  0.0302 -0.3791 -0.4604
23618SOL    HW182832   0.506   5.639   2.475  0.2176  4.2955 -1.0161
23618SOL    HW282833   0.371   5.677   2.532  0.0272  0.9677  1.0223
23619SOL     OW82834   2.053   2.060   3.153  0.2845 -0.0955  0.5509
23619SOL    HW182835   2.034   2.056   3.246 -2.0325 -0.2095  0.1492
23619SOL    HW282836   2.080   2.151   3.137  2.8363 -0.5893  1.6054
23620SOL     OW82837   3.988   5.684   8.793 -0.2571 -0.0719 -0.1888
23620SOL    HW182838   4.028   5.662   8.877  0.9034 -0.6980 -0.8799
23620SOL    HW282839   4.062   5.701   8.735 -1.0343  0.1618 -1.1420
23621SOL     OW82840   2.602   5.282   7.153 -0.3517 -0.2745 -0.3599
23621SOL    HW182841   2.679   5.235   7.184 -0.6234 -1.3407 -1.2667
23621SOL    HW282842   2.637   5.366   7.121  0.0188  0.6186  2.1269
23622SOL     OW82843   1.437   9.936   2.332  0.1047 -0.6081 -0.0219
23622SOL    HW182844   1.516   9.882   2.321  0.1119 -1.2182  2.5298
23622SOL    HW282845   1.448   9.977   2.417 -1.3376  1.0952 -0.5990
23623SOL     OW82846   6.350   2.563   4.175  0.6925 -0.1843  0.5797
23623SOL    HW182847   6.262   2.587   4.204  0.4989 -0.8354  0.5632
23623SOL    HW282848   6.407   2.630   4.211  0.2996 -0.2780  1.3952
23624SOL     OW82849   1.200   5.681   2.516 -0.6226 -0.1800  0.4037
23624SOL    HW182850   1.150   5.628   2.578 -0.2811  1.8842  2.5937
23624SOL    HW282851   1.147   5.759   2.502 -0.1227 -0.0557 -0.9786
23625SOL     OW82852   7.591   3.294   6.433  0.6640 -0.1133 -0.1805
23625SOL    HW182853   7.561   3.231   6.367 -1.2034  0.8858 -0.3411
23625SOL    HW282854   7.637   3.361   6.383  0.6510 -0.1664 -0.2641
23626SOL     OW82855   8.138   3.254   9.437 -0.0197 -0.3891 -0.0722
23626SOL    HW182856   8.070   3.187   9.442 -0.3615 -0.0262  0.2818
23626SOL    HW282857   8.130   3.290   9.349 -0.8950  0.2693  0.2640
23627SOL     OW82858  10.186   6.880   8.028 -0.0646  0.1087  0.1304
23627SOL    HW182859  10.163   6.944   7.960  0.5302  1.1022  0.8370
23627SOL    HW282860  10.258   6.830   7.990 -2.1158 -1.8735 -1.4155
23628SOL     OW82861   1.700   6.897   0.969 -0.2778 -0.4044  0.3160
23628SOL    HW182862   1.692   6.889   0.874 -1.6168 -0.4621  0.4210
23628SOL    HW282863   1.627   6.953   0.995  0.9643  0.8848  1.1565
23629SOL     OW82864   1.301   4.866  10.194  0.5244  0.4417 -0.3868
23629SOL    HW182865   1.254   4.783  10.189  0.3904  0.5971 -2.1873
23629SOL    HW282866   1.234   4.933  10.179  0.7911  0.8348  0.1322
23630SOL     OW82867   2.778   9.332   2.583  0.2669  0.5525 -0.2991
23630SOL    HW182868   2.817   9.245   2.590  1.3031  1.0934  1.4098
23630SOL    HW282869   2.690   9.317   2.549  0.2912 -1.2165  0.3394
23631SOL     OW82870   2.726   9.611   8.074  0.2467 -0.4003  0.3883
23631SOL    HW182871   2.695   9.560   7.998  1.7304  1.0100 -1.2480
23631SOL    HW282872   2.817   9.632   8.053 -0.4918  3.6317  0.4827
23632SOL     OW82873   0.001   6.631   0.121 -0.5516  0.4500  0.0950
23632SOL    HW182874  -0.030   6.686   0.193 -2.8437 -1.0710  0.3903
23632SOL    HW282875  -0.020   6.681   0.042 -1.6277  0.4938  0.3894
23633SOL     OW82876   3.050   9.263   8.765 -0.8296 -0.5808 -0.6270
23633SOL    HW182877   2.983   9.211   8.723 -0.6390 -1.2107 -0.1767
23633SOL    HW282878   3.118   9.199   8.789  0.4284  0.1816 -2.0332
23634SOL     OW82879   5.224   8.272   0.571  0.0911 -0.1304  0.3954
23634SOL    HW182880   5.259   8.267   0.660 -0.9703  1.1502  0.9227
23634SOL    HW282881   5.235   8.364   0.546  0.3180 -0.4537 -0.7922
23635SOL     OW82882   1.251   1.606   0.635  0.1665 -0.5233  0.1648
23635SOL    HW182883   1.327   1.664   0.638  1.3631 -2.0424  0.8498
23635SOL    HW282884   1.274   1.533   0.693 -0.7127 -2.3014 -1.5813
23636SOL     OW82885   7.994   9.374   8.119  0.1197  0.0287  0.4873
23636SOL    HW182886   7.975   9.337   8.032  0.1794 -1.3917  1.0586
23636SOL    HW282887   8.026   9.462   8.100 -1.9933  0.6063 -0.8235
23637SOL     OW82888   7.331   6.387   1.855 -0.1042 -0.5963 -0.2418
23637SOL    HW182889   7.357   6.467   1.809  0.0508 -1.0300 -0.9200
23637SOL    HW282890   7.333   6.411   1.948 -0.0528  0.1816 -0.4363
23638SOL     OW82891   1.345   7.612   7.710  0.0598  0.0855 -0.0278
23638SOL    HW182892   1.323   7.615   7.803  0.5805  0.7032  0.0820
23638SOL    HW282893   1.303   7.532   7.678 -1.0620  0.4361  0.4943
23639SOL     OW82894   1.704   8.096   8.420 -0.1697 -0.4334  0.1713
23639SOL    HW182895   1.749   8.150   8.485 -1.7841 -0.4558  1.3806
23639SOL    HW282896   1.723   8.138   8.337 -1.1564  1.9282  1.0468
23640SOL     OW82897   6.301   7.247   8.624  0.1531  0.2352  0.2267
23640SOL    HW182898   6.236   7.283   8.684  1.6092  1.1423  1.3140
23640SOL    HW282899   6.256   7.242   8.539 -1.0337  1.6928  0.7405
23641SOL     OW82900   2.806   6.163   4.241 -0.1999  0.1484 -0.2688
23641SOL    HW182901   2.839   6.245   4.280  1.0641 -0.4141 -0.1114
23641SOL    HW282902   2.828   6.170   4.148  0.7073 -0.3693 -0.1074
23642SOL     OW82903   8.756   8.598   9.276 -0.1262 -0.1820  0.5814
23642SOL    HW182904   8.835   8.645   9.250  0.3799 -0.6052  1.3344
23642SOL    HW282905   8.697   8.666   9.310 -0.1866  0.1631 -0.1992
23643SOL     OW82906   7.094   2.387  10.356  0.0297 -0.3494 -0.0058
23643SOL    HW182907   7.020   2.351  10.307 -0.2068 -1.5883  1.2038
23643SOL    HW282908   7.163   2.322  10.346 -0.0856 -0.7090  1.4413
23644SOL     OW82909   2.507   3.645   7.980  0.0921 -0.2015  0.5101
23644SOL    HW182910   2.501   3.599   7.896  1.2132  1.1469 -0.3515
23644SOL    HW282911   2.481   3.735   7.959 -0.5083 -0.0574  1.8182
23645SOL     OW82912   8.112   1.803   7.670 -0.1139 -0.1129 -0.3988
23645SOL    HW182913   8.027   1.770   7.698  1.4193 -2.4404  2.0409
23645SOL    HW282914   8.117   1.891   7.708 -1.1234 -0.2754  0.1464
23646SOL     OW82915   7.341   4.543   0.288 -0.0950  0.5818  0.0366
23646SOL    HW182916   7.268   4.600   0.311  0.2224  0.6440  0.9527
23646SOL    HW282917   7.380   4.583   0.210  0.2133  1.7164  0.7421
23647SOL     OW82918  10.344   0.761   1.517  0.5079  0.3780  0.4125
23647SOL    HW182919  10.406   0.728   1.581  2.8815  1.1065 -1.3640
23647SOL    HW282920  10.323   0.686   1.462  1.8959  0.6393 -0.5272
23648SOL     OW82921  10.198   9.589   4.359 -0.2506 -0.0788 -0.0473
23648SOL    HW182922  10.273   9.545   4.319 -0.1633 -0.8870  0.9630
23648SOL    HW282923  10.231   9.618   4.444 -0.3884  1.7372 -0.5682
23649SOL     OW82924   6.508   4.550   8.457 -0.2181 -0.4304  0.1139
23649SOL    HW182925   6.565   4.556   8.534  0.3230  2.8218 -0.3971
23649SOL    HW282926   6.566   4.522   8.386 -0.3118 -1.5678  0.4604
23650SOL     OW82927   9.708   5.888   4.027 -0.3128  0.3690 -0.0402
23650SOL    HW182928   9.739   5.826   4.093  0.6651 -0.4134 -1.1727
23650SOL    HW282929   9.778   5.953   4.021  2.1216 -2.1601 -3.6105
23651SOL     OW82930   5.901   8.885   5.850 -0.7000 -0.2236  0.1965
23651SOL    HW182931   5.895   8.843   5.764 -1.1022  1.4347 -0.6209
23651SOL    HW282932   5.812   8.887   5.883 -0.6094 -0.4705  0.4577
23652SOL     OW82933   5.540   9.101   2.729 -0.0407  0.3516 -0.0660
23652SOL    HW182934   5.452   9.103   2.690 -0.2476 -3.0961 -0.0216
23652SOL    HW282935   5.586   9.174   2.687 -2.1798  0.7472 -1.9280
23653SOL     OW82936   4.128   1.703   4.285 -0.1942 -0.2979 -0.4833
23653SOL    HW182937   4.040   1.678   4.259 -0.2501 -1.0891  0.4311
23653SOL    HW282938   4.185   1.644   4.235 -0.2847 -1.4749  0.7527
23654SOL     OW82939   1.283   3.465   9.910  0.4204  0.2621  0.2857
23654SOL    HW182940   1.307   3.378   9.877 -0.6378  0.1452 -0.2102
23654SOL    HW282941   1.282   3.521   9.832 -1.3562  0.1515  0.1932
23655SOL     OW82942   7.490   4.735   8.147 -0.4089  0.2376 -0.3039
23655SOL    HW182943   7.420   4.798   8.126 -1.1867  0.2130  1.9649
23655SOL    HW282944   7.564   4.789   8.173 -0.1123  0.2394 -1.1342
23656SOL     OW82945   5.852   1.359   5.829  0.4603  0.2704  0.3010
23656SOL    HW182946   5.920   1.325   5.887 -0.3299  0.4818  1.3865
23656SOL    HW282947   5.814   1.282   5.788 -0.6578 -0.1370  2.0031
23657SOL     OW82948   0.521   8.537   9.093 -0.1597 -0.2405 -0.1745
23657SOL    HW182949   0.563   8.463   9.050 -0.9401  0.3737 -2.0534
23657SOL    HW282950   0.592   8.600   9.107  0.3343 -0.9526  0.6268
23658SOL     OW82951   3.796   7.564   2.979  0.3652 -0.0579 -0.5803
23658SOL    HW182952   3.758   7.611   2.905 -1.2877  1.4169  1.0740
23658SOL    HW282953   3.811   7.631   3.045 -2.5639 -1.7140  2.1002
23659SOL     OW82954   9.321   9.007   8.870  0.6553  0.4605 -0.0842
23659SOL    HW182955   9.286   8.918   8.872  2.7386 -0.4152 -0.4123
23659SOL    HW282956   9.407   8.998   8.831  1.6977  2.3492  1.5973
23660SOL     OW82957   7.193   1.891   2.823 -0.3385 -0.2641  0.2323
23660SOL    HW182958   7.158   1.873   2.910  1.2146 -0.8629  0.7680
23660SOL    HW282959   7.145   1.832   2.765 -0.7209 -0.5333  0.8163
23661SOL     OW82960   7.973   4.876   7.539 -0.3051 -0.1692 -0.0042
23661SOL    HW182961   8.044   4.824   7.574  1.3099  1.4849 -0.6295
23661SOL    HW282962   7.935   4.920   7.615  0.0915 -0.1976  0.2113
23662SOL     OW82963   6.011   7.921   6.325 -0.2253  0.1271 -0.2214
23662SOL    HW182964   6.082   7.881   6.374 -1.6877  0.0464  1.9921
23662SOL    HW282965   6.038   8.012   6.314 -0.2353  0.3816  1.6047
23663SOL     OW82966   5.298   1.420   7.357 -0.3618 -0.5993  0.2880
23663SOL    HW182967   5.282   1.356   7.289 -1.0751 -1.1052  0.9186
23663SOL    HW282968   5.215   1.465   7.369 -0.0069  0.0904  0.2149
23664SOL     OW82969   2.026   4.878   5.904 -0.0821 -0.6041  0.2294
23664SOL    HW182970   1.934   4.905   5.908 -0.3154 -1.2694 -0.4500
23664SOL    HW282971   2.050   4.862   5.995 -0.9425 -1.3954  0.3377
23665SOL     OW82972   7.085   9.847   8.418 -0.4513 -0.1162 -0.1906
23665SOL    HW182973   7.087   9.754   8.438  1.8419 -0.1195 -0.2274
23665SOL    HW282974   7.091   9.891   8.503 -2.7800  0.0771 -0.0597
23666SOL     OW82975   0.206   3.558   5.528  0.9398 -0.6494  0.2835
23666SOL    HW182976   0.234   3.484   5.474 -1.1944 -2.5867  1.6517
23666SOL    HW282977   0.281   3.618   5.526  2.1536 -2.0775 -2.1693
23667SOL     OW82978   9.826   7.083   8.461  0.4312 -0.1930 -0.0834
23667SOL    HW182979   9.733   7.091   8.482  0.1294 -1.2628 -0.9061
23667SOL    HW282980   9.871   7.125   8.534 -0.7021  0.7420  0.1082
23668SOL     OW82981   5.302   1.796   8.265 -0.2245  0.1010 -0.2319
23668SOL    HW182982   5.314   1.848   8.344  0.8726 -0.5430  0.0472
23668SOL    HW282983   5.239   1.728   8.291  0.1478 -0.1204  0.1007
23669SOL     OW82984   7.017   6.164   0.849  0.3785 -0.5031  0.4615
23669SOL    HW182985   6.977   6.093   0.799 -1.1351  0.6732 -0.0943
23669SOL    HW282986   6.982   6.155   0.937 -1.1905  0.5086 -0.0180
23670SOL     OW82987   3.518   9.242   2.500  0.2260  0.1076 -0.0958
23670SOL    HW182988   3.525   9.263   2.406  0.9870  0.8278  0.1126
23670SOL    HW282989   3.607   9.218   2.526 -0.2687 -1.5873  0.1123
23671SOL     OW82990   4.888   5.908   7.496 -0.1734  0.2910  0.0117
23671SOL    HW182991   4.842   5.843   7.443 -0.6471  0.4766  0.1990
23671SOL    HW282992   4.968   5.927   7.446  0.9275 -1.8340  0.8237
23672SOL     OW82993   6.231   8.268   6.105 -0.0142 -0.0945 -0.2904
23672SOL    HW182994   6.287   8.227   6.039  0.6068  3.0117 -1.8938
23672SOL    HW282995   6.143   8.261   6.069 -0.2385 -1.7858  0.4908
23673SOL     OW82996   7.730   9.865   7.056 -0.1651  0.1511  0.3949
23673SOL    HW182997   7.762   9.910   6.978 -0.5849  0.1241  0.2018
23673SOL    HW282998   7.762   9.775   7.046 -0.9138 -0.0638 -0.1700
23674SOL     OW82999   8.483   7.467   9.827  0.0295  0.5223 -0.4052
23674SOL    HW183000   8.452   7.556   9.811 -1.4421  0.2376  0.6669
23674SOL    HW283001   8.478   7.456   9.922  1.0639 -0.4209 -0.4288
23675SOL     OW83002   0.342   3.445   0.088  0.1273 -0.4486  0.2440
23675SOL    HW183003   0.328   3.366   0.140  0.6242 -0.2746  0.6437
23675SOL    HW283004   0.266   3.448   0.029 -0.0186 -1.0897  0.3905
23676SOL     OW83005   6.728   2.421   6.598 -0.0217  0.2354  0.0980
23676SOL    HW183006   6.635   2.434   6.584  0.2099  3.6811  0.7867
23676SOL    HW283007   6.736   2.333   6.636 -3.1830  0.6128  1.8958
23677SOL     OW83008   5.917   4.764   6.731 -0.0587  0.4373 -0.3851
23677SOL    HW183009   6.002   4.809   6.729  0.2361 -0.0160  1.0341
23677SOL    HW283010   5.868   4.803   6.659  1.3774  0.6546 -1.2908
23678SOL     OW83011   2.514   9.351   0.866 -0.1927  0.1794  0.1566
23678SOL    HW183012   2.463   9.336   0.946 -0.1664 -0.4372  0.0641
23678SOL    HW283013   2.605   9.355   0.897 -0.2916  1.3920  0.3358
23679SOL     OW83014   8.767   6.544   2.609  0.0599  0.0732  0.0807
23679SOL    HW183015   8.702   6.489   2.567  2.2392 -1.8756 -0.9710
23679SOL    HW283016   8.762   6.521   2.702  1.8271 -3.1301 -0.4718
23680SOL     OW83017   7.145   0.156   7.190  0.0886 -0.0060  0.2245
23680SOL    HW183018   7.132   0.065   7.165 -0.4103 -0.1178  0.8611
23680SOL    HW283019   7.056   0.192   7.195  0.3189  1.1177 -2.1213
23681SOL     OW83020   6.107   2.981   5.692 -0.2561 -0.1481  0.2010
23681SOL    HW183021   6.200   2.998   5.709 -0.1682  0.0840 -0.4865
23681SOL    HW283022   6.107   2.918   5.620 -0.6358 -0.4248  0.4364
23682SOL     OW83023   1.541   0.298   1.118  0.1963  0.4960  0.1299
23682SOL    HW183024   1.557   0.215   1.162  0.2919 -0.8156 -2.2331
23682SOL    HW283025   1.532   0.362   1.189  2.8616 -0.9961  1.9548
23683SOL     OW83026   1.987   0.775   3.234  0.1160  0.6500  0.0510
23683SOL    HW183027   2.012   0.709   3.300  2.0252  1.5337  0.2699
23683SOL    HW283028   2.063   0.782   3.177 -0.5689  1.7291 -0.7608
23684SOL     OW83029   5.546   8.936   1.752 -0.3281 -0.3445 -0.5588
23684SOL    HW183030   5.592   8.854   1.770  0.7128 -0.1776 -2.2627
23684SOL    HW283031   5.587   8.970   1.673 -2.0442  0.8457 -1.0020
23685SOL     OW83032   2.887   8.011   3.017 -0.2353 -0.1362  0.4116
23685SOL    HW183033   2.874   7.977   3.106  0.8490 -1.1262  0.2233
23685SOL    HW283034   2.979   7.992   2.998 -0.6694 -0.7518 -1.2416
23686SOL     OW83035   7.388   7.866   5.601 -0.0982  0.0060  0.4880
23686SOL    HW183036   7.389   7.912   5.517  0.0696  1.6199  1.3493
23686SOL    HW283037   7.453   7.910   5.654  1.0431 -2.1063  0.9462
23687SOL     OW83038   1.010   2.245   0.654  0.1843  0.1130  0.0672
23687SOL    HW183039   1.024   2.185   0.728 -1.0688  0.3314  0.5124
23687SOL    HW283040   0.924   2.220   0.620  0.8718 -0.1772 -1.5248
23688SOL     OW83041   3.276   9.783   4.740  0.1350  0.3638  0.4047
23688SOL    HW183042   3.214   9.717   4.709 -0.8978  1.1987  0.5913
23688SOL    HW283043   3.350   9.778   4.679 -0.2561 -0.4512 -0.0175
23689SOL     OW83044   0.868   0.942   7.197 -0.0367 -0.2150  0.3480
23689SOL    HW183045   0.824   1.018   7.160 -2.1828 -1.3225  0.4505
23689SOL    HW283046   0.889   0.887   7.121  0.2448 -0.1656  0.3876
23690SOL     OW83047  10.340   3.851   7.240 -0.2007  0.2753 -0.1045
23690SOL    HW183048  10.383   3.920   7.290 -2.1315  1.2834  0.3002
23690SOL    HW283049  10.318   3.893   7.157  0.9785 -0.7025 -0.9359
23691SOL     OW83050   5.043  10.150   6.064 -0.2401 -0.1463  0.1677
23691SOL    HW183051   5.044  10.057   6.039 -0.6638 -0.3218  0.7796
23691SOL    HW283052   4.951  10.169   6.080 -0.2249  0.5521 -0.5622
23692SOL     OW83053   9.266   7.288   8.217 -0.3143  0.0494 -0.0249
23692SOL    HW183054   9.185   7.337   8.226 -0.8970 -0.9068  0.0322
23692SOL    HW283055   9.309   7.298   8.302 -1.2484 -0.9460  0.5897
23693SOL     OW83056   6.009   6.095   2.832  0.1406 -0.3188 -0.0889
23693SOL    HW183057   6.034   6.016   2.880 -1.3329 -1.4566 -1.1161
23693SOL    HW283058   5.925   6.121   2.869  0.2589  0.3521 -0.2629
23694SOL     OW83059   2.313   7.329   0.825 -0.3918  0.3812 -0.0163
23694SOL    HW183060   2.364   7.275   0.766  0.1143  0.7462  0.0803
23694SOL    HW283061   2.227   7.286   0.829 -0.6192  0.6400 -1.4266
23695SOL     OW83062   1.369   7.926   4.401  0.4226  0.5264  0.1902
23695SOL    HW183063   1.289   7.978   4.403  0.4568  0.5610  1.3063
23695SOL    HW283064   1.404   7.932   4.490  0.7653 -0.8717  0.1775
23696SOL     OW83065   0.885   8.265   5.305  0.3208 -0.4715  0.0633
23696SOL    HW183066   0.918   8.245   5.217  1.3914 -0.6890  0.4935
23696SOL    HW283067   0.942   8.335   5.336 -2.3148  2.1986 -0.7589
23697SOL     OW83068   4.237   2.503   7.753  0.6223  0.1717 -0.0069
23697SOL    HW183069   4.263   2.463   7.670 -0.7361  0.6024 -0.6669
23697SOL    HW283070   4.309   2.484   7.813  0.4970 -2.3179 -0.5764
23698SOL     OW83071   1.138   9.338  10.150 -0.3124 -0.2215 -0.4792
23698SOL    HW183072   1.129   9.429  10.178 -3.0500 -0.4218 -0.4432
23698SOL    HW283073   1.150   9.342  10.056 -1.5426  0.1804 -0.6322
23699SOL     OW83074   9.456   3.879   5.159 -0.1905  0.0031 -0.0660
23699SOL    HW183075   9.529   3.883   5.097  0.5365  0.0770  0.7751
23699SOL    HW283076   9.390   3.938   5.122  1.9594  3.6487  1.4157
23700SOL     OW83077   4.323   4.152   7.627 -0.0433 -0.1535 -1.0505
23700SOL    HW183078   4.322   4.130   7.720  1.8855  2.6327 -0.2152
23700SOL    HW283079   4.231   4.154   7.601 -0.6226 -0.8736  0.8110
23701SOL     OW83080   7.315   8.040   9.311  0.0585  0.2404  0.0607
23701SOL    HW183081   7.363   8.036   9.394 -1.0676  0.4911  0.7431
23701SOL    HW283082   7.384   8.037   9.244  1.1926  2.4345  1.0171
23702SOL     OW83083   5.481   7.528   8.463  0.0142  0.0617  0.0107
23702SOL    HW183084   5.411   7.568   8.412  0.5509 -0.0585 -0.8447
23702SOL    HW283085   5.546   7.502   8.398  1.1559  0.7622  0.8319
23703SOL     OW83086   0.089   3.662   3.035  0.0398 -0.5083 -0.2751
23703SOL    HW183087   0.004   3.629   3.064 -0.2966 -0.2533 -0.9532
23703SOL    HW283088   0.096   3.749   3.075 -0.2099 -0.3538 -0.5646
23704SOL     OW83089   1.619   3.506   4.592  0.2957  0.1572 -0.3229
23704SOL    HW183090   1.562   3.497   4.668 -0.4529 -1.5820 -1.0579
23704SOL    HW283091   1.601   3.595   4.560  0.6843  0.9650  1.5194
23705SOL     OW83092   3.510   3.447   5.611 -0.0597 -0.4867 -0.1288
23705SOL    HW183093   3.455   3.513   5.654  1.8785  0.6073  0.8103
23705SOL    HW283094   3.552   3.401   5.684  3.2248  1.3268 -0.6916
23706SOL     OW83095   3.754   8.725   0.724  0.2838 -0.1321  0.2902
23706SOL    HW183096   3.746   8.795   0.658 -1.7430  0.3646  0.9870
23706SOL    HW283097   3.690   8.659   0.696  1.2871 -1.1598  0.3451
23707SOL     OW83098   9.605   8.127   5.658 -0.4566 -0.1009  0.5603
23707SOL    HW183099   9.660   8.106   5.734  0.6851 -0.6528 -0.3938
23707SOL    HW283100   9.645   8.079   5.585 -1.9325 -0.1360 -0.2638
23708SOL     OW83101   0.837   1.183   9.369  0.2063  0.1755 -0.3514
23708SOL    HW183102   0.774   1.132   9.420  0.7252  0.0536  0.1873
23708SOL    HW283103   0.896   1.221   9.435  1.3222 -0.5631 -0.8863
23709SOL     OW83104   7.866   8.595   1.610 -0.1702 -0.7587 -0.5331
23709SOL    HW183105   7.901   8.679   1.581 -1.0973  0.2103  0.9855
23709SOL    HW283106   7.942   8.544   1.637  0.3351 -0.1136 -0.7410
23710SOL     OW83107   1.233   8.441   5.931  0.2486 -0.6130 -0.4286
23710SOL    HW183108   1.269   8.354   5.952  1.6889  0.2776  1.0196
23710SOL    HW283109   1.301   8.502   5.959 -0.9441  1.0172 -0.9739
23711SOL     OW83110   1.577   7.922  10.255  0.0837  0.8359 -0.0775
23711SOL    HW183111   1.523   7.915  10.333  1.5797  1.0380  1.0071
23711SOL    HW283112   1.656   7.873  10.275  1.7368  3.2238 -0.3262
23712SOL     OW83113   0.388   0.333   4.007  0.2634 -0.6227 -0.3071
23712SOL    HW183114   0.387   0.306   3.915 -0.0465  1.1419 -0.8457
23712SOL    HW283115   0.365   0.425   4.006 -1.0905 -0.8762  1.6752
23713SOL     OW83116   0.923   5.968   3.961  0.3412  0.2797 -0.0928
23713SOL    HW183117   0.955   6.009   4.041  1.2017  0.8837 -0.7288
23713SOL    HW283118   0.939   5.874   3.974 -1.8985  0.0236  1.4873
23714SOL     OW83119   1.301   1.402   4.267  0.5712 -0.0331 -0.0280
23714SOL    HW183120   1.231   1.380   4.206  0.2682  1.4920 -0.2750
23714SOL    HW283121   1.263   1.390   4.354  1.4173 -3.5759  0.0142
23715SOL     OW83122   4.199   9.566   0.189  0.4272  0.2749  0.0701
23715SOL    HW183123   4.164   9.590   0.275 -1.3969 -1.2233 -0.2138
23715SOL    HW283124   4.267   9.502   0.209 -1.7317 -2.0750  0.3747
23716SOL     OW83125  10.185   0.641   2.464  0.0902  0.0733  0.0308
23716SOL    HW183126  10.116   0.696   2.428  0.4059  0.5671  0.1748
23716SOL    HW283127  10.145   0.597   2.539 -0.0122  0.4938  0.2209
23717SOL     OW83128   8.312   7.260   7.286  0.5510 -0.3061 -0.3747
23717SOL    HW183129   8.314   7.294   7.375 -0.4206  0.2878 -0.5608
23717SOL    HW283130   8.219   7.264   7.261  0.7469 -0.8753 -1.2520
23718SOL     OW83131   0.663   9.731   5.101 -0.0760  0.1216 -0.3051
23718SOL    HW183132   0.654   9.768   5.014  1.5214  0.0852 -0.5147
23718SOL    HW283133   0.746   9.765   5.134  0.1631 -1.1805  0.5397
23719SOL     OW83134   4.137   5.889   6.917  0.4804  0.3707 -0.4856
23719SOL    HW183135   4.204   5.857   6.856  1.8778 -0.9446  1.6319
23719SOL    HW283136   4.178   5.965   6.959 -0.7282  1.6738 -1.5588
23720SOL     OW83137   2.481   6.407   9.550 -0.0883  0.1839  0.4729
23720SOL    HW183138   2.431   6.459   9.487 -1.3025 -1.4307  0.0378
23720SOL    HW283139   2.424   6.403   9.627 -0.9370 -2.0881 -0.2025
23721SOL     OW83140   9.739   3.987   8.525 -0.0816 -0.0232 -0.0883
23721SOL    HW183141   9.657   3.940   8.509 -1.3127  1.6909  0.8444
23721SOL    HW283142   9.770   3.954   8.609  0.0777 -0.5237 -0.3419
23722SOL     OW83143   5.421   7.637   6.007  0.1264  1.0526  0.5591
23722SOL    HW183144   5.449   7.564   6.063  0.8516  1.7566  1.1406
23722SOL    HW283145   5.402   7.597   5.923  2.1004  0.3954  0.3803
23723SOL     OW83146   0.057   3.696   0.488 -0.2763  0.3754  0.2098
23723SOL    HW183147   0.082   3.646   0.410  1.4577 -1.0820  1.6240
23723SOL    HW283148   0.015   3.775   0.453  1.2291  0.1968 -2.2234
23724SOL     OW83149   3.987   9.387   1.406 -0.4459 -0.3420 -0.7203
23724SOL    HW183150   3.955   9.367   1.493 -0.2411  0.0896 -0.5440
23724SOL    HW283151   4.036   9.309   1.380  1.5822  0.4257  0.5423
23725SOL     OW83152   8.585   9.266   7.223 -0.3253 -0.3004 -0.3011
23725SOL    HW183153   8.518   9.237   7.284 -0.8120 -0.5555 -0.9501
23725SOL    HW283154   8.573   9.212   7.146  0.2400  0.0638 -0.6531
23726SOL     OW83155   6.138   7.326   5.481 -0.3865  0.3449 -0.1857
23726SOL    HW183156   6.101   7.412   5.503  1.0923  0.4506  2.1977
23726SOL    HW283157   6.224   7.325   5.523 -0.8404 -2.7499  0.9219
23727SOL     OW83158   1.966   3.162   7.792  0.4535 -0.5001  0.0405
23727SOL    HW183159   1.960   3.253   7.821  0.0347 -1.2106  2.4340
23727SOL    HW283160   1.876   3.138   7.768  0.6696 -0.1355 -1.2005
23728SOL     OW83161  10.213   0.295   9.222 -0.4672 -0.5265 -0.3932
23728SOL    HW183162  10.304   0.276   9.203 -0.4570 -1.1652  0.2114
23728SOL    HW283163  10.165   0.262   9.146 -0.2043 -0.3585 -0.6306
23729SOL     OW83164   2.648   3.673   9.615 -0.6616  0.1543  1.0426
23729SOL    HW183165   2.621   3.630   9.533 -0.1693  0.2697  0.8166
23729SOL    HW283166   2.694   3.605   9.664 -0.7299  0.1569  1.1100
23730SOL     OW83167   8.548   5.808   2.090 -0.1875  0.6269 -0.0586
23730SOL    HW183168   8.493   5.832   2.016 -0.5706  0.6491  0.2317
23730SOL    HW283169   8.573   5.891   2.130 -0.9270  0.5854  0.5181
23731SOL     OW83170   3.137   4.207   7.728  0.0901  0.3023  0.1404
23731SOL    HW183171   3.092   4.125   7.745 -0.2891  0.4803  0.0197
23731SOL    HW283172   3.229   4.189   7.747  0.6165 -1.1425 -3.1151
23732SOL     OW83173   0.213   9.728   4.139 -0.0101  0.1196 -0.1868
23732SOL    HW183174   0.193   9.806   4.087  0.4468  0.7063  0.4820
23732SOL    HW283175   0.204   9.655   4.078 -2.1728  0.5073 -0.4201
23733SOL     OW83176   6.430   1.883  10.243  0.7973  0.1137 -0.1495
23733SOL    HW183177   6.446   1.819  10.173 -1.3607 -2.0607  1.1974
23733SOL    HW283178   6.396   1.832  10.316 -0.1021  2.6897  1.3961
23734SOL     OW83179   2.005   9.593   2.557 -0.3881 -0.5116  0.2323
23734SOL    HW183180   1.997   9.685   2.533  0.6126 -0.4967 -0.0876
23734SOL    HW283181   2.050   9.552   2.483  0.7564 -0.9042  1.1161
23735SOL     OW83182   5.652   9.115   5.803 -0.5611  0.5766  0.5951
23735SOL    HW183183   5.578   9.161   5.841  0.6941  0.5068  3.3253
23735SOL    HW283184   5.637   9.023   5.821 -0.2294  0.4750  0.3796
23736SOL     OW83185   5.901   3.242   7.925  0.5727 -0.0367 -0.1645
23736SOL    HW183186   5.869   3.307   7.863  0.8329  0.1980 -0.0528
23736SOL    HW283187   5.845   3.253   8.002  1.1101  0.5814  0.1461
23737SOL     OW83188   9.193   4.966   7.439 -0.1045  0.3120  0.2352
23737SOL    HW183189   9.110   4.958   7.391  0.5770 -2.7011 -0.6067
23737SOL    HW283190   9.177   4.921   7.522 -0.2307  2.6074  1.5522
23738SOL     OW83191   0.188   5.193   2.391 -0.4363  0.0308 -0.0072
23738SOL    HW183192   0.150   5.118   2.345 -1.3115 -0.6034  1.6772
23738SOL    HW283193   0.259   5.222   2.334 -2.0002 -0.1367 -2.1948
23739SOL     OW83194   4.585   6.295   5.803  0.6902 -0.1505 -0.1055
23739SOL    HW183195   4.547   6.284   5.890 -0.0094 -0.0957 -0.3925
23739SOL    HW283196   4.641   6.372   5.810 -1.8602  1.8766 -0.4665
23740SOL     OW83197   0.705   5.311   6.490  0.2944 -0.0014  0.5218
23740SOL    HW183198   0.728   5.380   6.428 -0.7241  0.0479  0.1841
23740SOL    HW283199   0.684   5.236   6.436  0.7213 -0.3803  0.8685
23741SOL     OW83200   1.480   5.656   2.596 -0.0474 -0.2492 -0.9233
23741SOL    HW183201   1.440   5.728   2.547 -1.8491 -1.0888 -0.7679
23741SOL    HW283202   1.412   5.589   2.601  0.6789 -0.9370  1.1602
23742SOL     OW83203   2.737   7.216   1.075 -0.2705  0.4714 -0.2280
23742SOL    HW183204   2.713   7.303   1.108 -0.2729  0.5171 -0.3524
23742SOL    HW283205   2.833   7.214   1.080 -0.3214 -0.1437  1.4000
23743SOL     OW83206   9.322   4.458   7.579 -0.6267 -0.3666 -0.4750
23743SOL    HW183207   9.228   4.445   7.582 -0.6854 -0.1484 -1.2038
23743SOL    HW283208   9.355   4.385   7.526 -0.3731 -0.5128 -0.1184
23744SOL     OW83209  10.271   9.467   6.234  0.0276  0.7236  0.2517
23744SOL    HW183210  10.301   9.526   6.303 -1.1556  1.2222  0.3735
23744SOL    HW283211  10.214   9.521   6.180 -1.6095 -0.4330  0.7396
23745SOL     OW83212   5.206   4.726   6.364 -0.6838  0.7269 -0.1635
23745SOL    HW183213   5.272   4.733   6.296  0.2990  3.8460  0.9451
23745SOL    HW283214   5.255   4.703   6.443 -1.9047 -3.7329 -0.4347
23746SOL     OW83215   7.187   7.122   4.515  0.4253 -0.2225  0.1305
23746SOL    HW183216   7.156   7.159   4.432  1.0629  1.5844  0.6350
23746SOL    HW283217   7.178   7.194   4.578  0.5164 -1.3612  1.5071
23747SOL     OW83218   4.393   0.377   8.618  0.4431 -0.6117 -0.3216
23747SOL    HW183219   4.429   0.436   8.683  0.1301 -1.3699  0.5573
23747SOL    HW283220   4.468   0.351   8.564  0.7793 -0.3324  0.0139
23748SOL     OW83221   3.279   8.165   1.416 -0.0962 -0.7801 -0.5242
23748SOL    HW183222   3.208   8.103   1.430 -2.0513  1.1822 -1.1388
23748SOL    HW283223   3.269   8.230   1.486  0.8937 -0.2783 -0.8217
23749SOL     OW83224   7.142   4.669   1.613 -0.1743  0.4565 -0.6077
23749SOL    HW183225   7.225   4.628   1.636 -0.8578 -0.3060  0.6448
23749SOL    HW283226   7.162   4.762   1.607  1.0487  0.1484 -1.7651
23750SOL     OW83227   1.007   7.537   1.135  0.4426 -0.5234  0.0050
23750SOL    HW183228   1.076   7.581   1.186 -0.0814  0.5046 -0.1528
23750SOL    HW283229   0.984   7.600   1.067 -0.6705 -0.8414  0.0712
23751SOL     OW83230   5.005   0.443  10.343 -0.0850  0.1376 -0.1520
23751SOL    HW183231   4.943   0.516  10.350 -0.4182 -0.2707  2.2535
23751SOL    HW283232   5.067   0.469  10.276 -1.4314  1.6805 -0.8518
23752SOL     OW83233   0.167   2.263   4.169 -0.2366 -0.1858  0.0442
23752SOL    HW183234   0.081   2.275   4.130 -0.4089 -0.6270  0.2797
23752SOL    HW283235   0.166   2.173   4.202  0.9882 -0.8666 -1.6492
23753SOL     OW83236   7.626   1.657   0.998  0.2777  0.2418 -0.0572
23753SOL    HW183237   7.640   1.752   0.997  0.6153  0.2097 -2.4561
23753SOL    HW283238   7.672   1.625   0.921 -0.4353 -1.8116  0.3173
23754SOL     OW83239  10.355   1.484   8.479 -0.0650  0.5827  0.3194
23754SOL    HW183240  10.404   1.403   8.467  0.5041  0.7969  1.0899
23754SOL    HW283241  10.422   1.553   8.470 -0.1633  0.8719  1.5975
23755SOL     OW83242   4.194   0.093   3.741  0.1217  0.5500 -0.3476
23755SOL    HW183243   4.176   0.162   3.677 -2.7274  0.8250  0.5776
23755SOL    HW283244   4.108   0.051   3.754  1.2433 -1.4446  1.0848
23756SOL     OW83245   0.658   8.155   7.240 -0.0325  0.3257 -0.0715
23756SOL    HW183246   0.753   8.152   7.231 -0.0869  0.9579 -1.0009
23756SOL    HW283247   0.640   8.107   7.320  1.1048  0.5438  0.3317
23757SOL     OW83248   2.039   3.595   3.945 -0.0082 -0.3953  0.0363
23757SOL    HW183249   2.033   3.499   3.940  0.1190 -0.4960  1.4872
23757SOL    HW283250   2.092   3.612   4.022 -0.6912  0.8706  0.2504
23758SOL     OW83251   9.545   5.548   2.920  0.9499  0.2889 -0.2884
23758SOL    HW183252   9.512   5.613   2.982  0.0407 -0.2624 -0.1764
23758SOL    HW283253   9.586   5.481   2.975  0.3644 -0.0745 -0.2790
23759SOL     OW83254   2.588   9.704   9.467  0.1620 -0.2181  0.2479
23759SOL    HW183255   2.548   9.771   9.412 -0.6222  0.6197  1.7585
23759SOL    HW283256   2.588   9.625   9.413 -1.1012  0.4185 -0.7471
23760SOL     OW83257   0.537   1.895   6.872  0.3929  0.1667 -0.0429
23760SOL    HW183258   0.511   1.972   6.821  0.4643 -0.0703 -0.4431
23760SOL    HW283259   0.504   1.821   6.823 -0.3061 -0.0400  0.7203
23761SOL     OW83260   2.577   0.553   6.595  0.5187  0.9332 -0.3577
23761SOL    HW183261   2.649   0.503   6.557  0.4113  0.4843  0.0275
23761SOL    HW283262   2.498   0.502   6.575  0.3503  1.1975 -0.3866
23762SOL     OW83263   2.366   8.047   1.200 -0.2160 -0.1460 -0.0880
23762SOL    HW183264   2.380   8.121   1.140  1.7929 -0.8570 -0.5639
23762SOL    HW283265   2.323   7.980   1.146 -0.0487 -0.1203 -0.2538
23763SOL     OW83266   5.373   7.547   0.625  0.0495 -0.2413 -0.4574
23763SOL    HW183267   5.448   7.528   0.682  0.7225 -0.3555 -1.3673
23763SOL    HW283268   5.299   7.505   0.669  0.6235 -0.6617  0.1311
23764SOL     OW83269   1.538   5.060   5.704 -0.0210 -0.2960 -0.2147
23764SOL    HW183270   1.516   5.123   5.772  0.7393 -1.1065  0.8135
23764SOL    HW283271   1.541   5.111   5.623 -2.2527  0.4674  0.1054
23765SOL     OW83272   2.569   6.407   8.758 -0.2922  0.1163  0.1118
23765SOL    HW183273   2.529   6.334   8.710  1.4716  0.2846 -1.7889
23765SOL    HW283274   2.556   6.483   8.702  0.1614  0.7383  0.8267
23766SOL     OW83275   6.486   4.088   9.167 -0.0426  0.2806 -0.6777
23766SOL    HW183276   6.449   4.000   9.172  0.9447 -0.1817 -1.1733
23766SOL    HW283277   6.476   4.112   9.075 -0.8194  0.9290 -0.4344
23767SOL     OW83278   2.958   6.711   6.004 -0.2690  0.3064 -0.0549
23767SOL    HW183279   2.977   6.789   6.056 -0.5989  0.6969 -0.5088
23767SOL    HW283280   2.960   6.639   6.066 -0.5130  0.7497  0.4726
23768SOL     OW83281   3.486   3.202   7.768 -0.5435 -0.2675  0.2656
23768SOL    HW183282   3.581   3.197   7.782 -0.2766  0.4280 -1.1583
23768SOL    HW283283   3.467   3.133   7.705 -0.6663  0.7938 -0.8929
23769SOL     OW83284   4.422   9.624   8.242  0.2316  0.2112 -0.2274
23769SOL    HW183285   4.479   9.588   8.174  0.7746  1.0811 -0.2487
23769SOL    HW283286   4.436   9.718   8.238 -1.0976  0.4329 -0.1145
23770SOL     OW83287   2.474   5.387   4.760  0.0909  0.2018  0.0017
23770SOL    HW183288   2.400   5.415   4.814 -0.5447 -0.9677 -0.2191
23770SOL    HW283289   2.465   5.292   4.755  1.8052 -0.0026  0.2319
23771SOL     OW83290   1.426   9.414   4.716  0.6990 -0.2945  0.5373
23771SOL    HW183291   1.434   9.500   4.675 -0.1207 -0.6516 -0.4079
23771SOL    HW283292   1.411   9.432   4.809 -1.5905  0.6528  0.0382
23772SOL     OW83293   3.750   0.373   6.305 -0.4161  0.3443 -0.1632
23772SOL    HW183294   3.844   0.354   6.296 -0.5415 -0.0830 -0.5800
23772SOL    HW283295   3.743   0.414   6.392  0.3953  1.9442 -0.8107
23773SOL     OW83296   5.518   3.545   2.522  0.2054  0.3965 -0.4332
23773SOL    HW183297   5.516   3.599   2.601 -2.8759  0.1228 -0.2037
23773SOL    HW283298   5.543   3.458   2.552  2.2851  0.9761 -0.3481
23774SOL     OW83299   8.080   2.311  10.370  0.1488  0.3346 -0.1626
23774SOL    HW183300   8.101   2.328  10.462 -2.7106 -0.4382  0.7572
23774SOL    HW283301   8.050   2.220  10.370 -0.1003  0.3933 -1.8422
23775SOL     OW83302   8.381   9.302   5.185 -0.5343  0.3132 -0.0305
23775SOL    HW183303   8.305   9.347   5.223 -0.4349 -0.3548  1.0155
23775SOL    HW283304   8.404   9.354   5.108 -1.5364  1.0021  0.1115
23776SOL     OW83305   5.614   4.187   9.130 -0.3393  0.7140  0.0688
23776SOL    HW183306   5.683   4.163   9.068  0.2421  1.1235  0.5526
23776SOL    HW283307   5.648   4.263   9.176 -1.2063  1.0591  0.1673
23777SOL     OW83308   3.916   4.947   1.398  0.3524  0.2591  0.0726
23777SOL    HW183309   3.822   4.936   1.389  0.2892  0.7366  0.1229
23777SOL    HW283310   3.953   4.901   1.323  0.0173  0.9978 -0.5612
23778SOL     OW83311   8.047   8.092   6.844  0.5945  0.2117 -0.4897
23778SOL    HW183312   8.049   8.178   6.802 -0.8057  0.5370  0.0779
23778SOL    HW283313   8.118   8.096   6.909  0.9526  0.6980 -0.9020
23779SOL     OW83314   2.094   2.307   4.267 -0.6136 -0.0888 -0.0990
23779SOL    HW183315   2.180   2.309   4.309 -0.6509 -0.8516  0.0251
23779SOL    HW283316   2.107   2.254   4.188 -0.7130  0.7308 -0.6835
23780SOL     OW83317   5.260   8.618   9.374 -0.0271 -0.1563 -0.0376
23780SOL    HW183318   5.336   8.633   9.317 -0.2626 -0.3159 -0.3912
23780SOL    HW283319   5.225   8.534   9.347 -0.9524  0.3889 -0.5757
23781SOL     OW83320   5.985   2.744   4.566  0.1393  0.0688 -0.6494
23781SOL    HW183321   6.016   2.790   4.644 -0.6811 -0.6654  0.1290
23781SOL    HW283322   5.937   2.811   4.516  0.9958  0.6356 -0.7280
23782SOL     OW83323   6.767   5.672   6.883 -0.2901  0.0050  0.0920
23782SOL    HW183324   6.759   5.751   6.829  1.0147  0.6195  0.7520
23782SOL    HW283325   6.798   5.704   6.968  0.6075 -1.2430  0.2589
23783SOL     OW83326   8.346   9.174   4.479  0.0838 -0.2833  0.0485
23783SOL    HW183327   8.384   9.196   4.564  1.0241 -0.1193 -0.3982
23783SOL    HW283328   8.393   9.230   4.417  0.6774 -1.6643 -0.7886
23784SOL     OW83329   7.919   7.230   9.108  0.0227  0.1244 -0.2155
23784SOL    HW183330   7.979   7.268   9.172 -1.2719  1.7208  0.1199
23784SOL    HW283331   7.909   7.298   9.041  1.0641 -1.3684 -2.0058
23785SOL     OW83332   8.732   8.696   5.414 -0.3196 -0.1105 -0.6207
23785SOL    HW183333   8.792   8.666   5.345  0.2082  1.5307 -0.9297
23785SOL    HW283334   8.685   8.617   5.441  1.9794 -1.5107 -0.3540
23786SOL     OW83335   5.456   7.016   9.341  0.2691 -0.1178  0.3666
23786SOL    HW183336   5.502   7.095   9.368  0.4630 -0.1748  0.2039
23786SOL    HW283337   5.523   6.964   9.297  0.0543 -0.2128  0.1549
23787SOL     OW83338   6.085   9.554   7.147 -0.7409 -0.8217  0.1882
23787SOL    HW183339   6.119   9.627   7.095 -1.0034 -1.4673 -0.9204
23787SOL    HW283340   6.141   9.480   7.124 -1.0783 -1.2033  0.5714
23788SOL     OW83341   3.667   4.133   3.637 -0.3337 -0.3614 -0.0795
23788SOL    HW183342   3.726   4.061   3.660 -1.1501 -0.9119  0.3587
23788SOL    HW283343   3.682   4.199   3.705 -1.5934 -1.3200  1.2111
23789SOL     OW83344   8.264   1.639   5.135  0.1355  0.0652  0.0397
23789SOL    HW183345   8.309   1.724   5.137  0.6651 -0.1447 -1.7326
23789SOL    HW283346   8.319   1.581   5.188  0.1652  0.6248  0.6367
23790SOL     OW83347   1.259   6.819   7.781 -0.0285 -0.7527  0.4993
23790SOL    HW183348   1.297   6.788   7.863 -0.1482 -0.4502  0.6702
23790SOL    HW283349   1.334   6.847   7.728  0.1156 -1.7079  0.1807
23791SOL     OW83350   8.957   7.518   5.391 -0.0097 -0.3871 -0.2393
23791SOL    HW183351   8.981   7.531   5.482  0.2073  0.5667 -0.4181
23791SOL    HW283352   8.930   7.605   5.360  3.9264  0.3625 -2.2324
23792SOL     OW83353   7.044   6.511   3.467 -0.0680 -0.4926 -0.4629
23792SOL    HW183354   7.063   6.597   3.428  0.7491 -0.2188  0.4985
23792SOL    HW283355   7.009   6.460   3.394 -1.4329  0.9125 -0.8548
23793SOL     OW83356   0.213  10.261   2.898  0.2526 -0.0981 -0.4449
23793SOL    HW183357   0.276  10.190   2.888  1.9899  1.0797  1.3466
23793SOL    HW283358   0.219  10.309   2.815  0.9009 -0.6362 -0.7238
23794SOL     OW83359   0.611   9.704  10.049 -0.1936  0.0705  0.6795
23794SOL    HW183360   0.611   9.723   9.955 -0.0325 -0.6355  0.5341
23794SOL    HW283361   0.665   9.773  10.087  4.4191 -2.5690 -0.3565
23795SOL     OW83362   5.627   3.061   2.863 -0.7583 -0.2559 -0.0948
23795SOL    HW183363   5.648   2.969   2.879 -3.1531 -0.6520  1.4124
23795SOL    HW283364   5.706   3.109   2.888  0.5727 -1.8838 -1.0269
23796SOL     OW83365   3.034   7.775   6.101 -0.3817 -0.2486  0.2987
23796SOL    HW183366   3.109   7.834   6.092  0.6358 -1.3659  1.0554
23796SOL    HW283367   3.041   7.742   6.191 -2.7697  0.8826  0.9728
23797SOL     OW83368   5.286   0.368   4.364 -0.8289  0.3052  0.6948
23797SOL    HW183369   5.346   0.363   4.290  0.3743 -0.8899  1.7129
23797SOL    HW283370   5.201   0.343   4.328 -0.4044  0.4011 -0.4064
23798SOL     OW83371   2.847   6.135   3.975 -0.1886 -0.4290  0.6859
23798SOL    HW183372   2.843   6.043   3.949  1.2713 -0.9612  2.1686
23798SOL    HW283373   2.931   6.166   3.941 -2.2079  1.5637 -3.1635
23799SOL     OW83374   4.021   7.365   4.957  0.0832 -0.2699 -0.6951
23799SOL    HW183375   3.981   7.443   4.996  0.2964  0.3603 -1.7081
23799SOL    HW283376   4.027   7.302   5.029 -2.0814 -0.1417 -0.3449
23800SOL     OW83377   3.738  10.201   2.948 -0.0530  0.6462 -0.7470
23800SOL    HW183378   3.697  10.195   3.034 -0.6930  1.8454 -0.9537
23800SOL    HW283379   3.797  10.125   2.945 -2.6749 -1.5392 -0.6770
23801SOL     OW83380   2.175   6.310   6.289  0.0376  0.0867  0.2602
23801SOL    HW183381   2.141   6.223   6.309 -0.5680  0.5168  1.1857
23801SOL    HW283382   2.257   6.315   6.338 -0.2828  0.2807  0.7947
23802SOL     OW83383   3.481   5.115  10.214 -0.2260 -0.0237  0.4804
23802SOL    HW183384   3.478   5.206  10.243 -0.2161 -0.3785  1.6395
23802SOL    HW283385   3.390   5.093  10.196 -0.0109  1.0692 -2.7533
23803SOL     OW83386   5.177   8.546   5.402  0.4674 -0.3645 -0.1996
23803SOL    HW183387   5.226   8.628   5.400 -0.2663  0.0837 -0.2381
23803SOL    HW283388   5.104   8.561   5.341  0.6089 -1.2288 -0.5945
23804SOL     OW83389   8.267   0.748   3.353  0.4630 -0.5334  0.9839
23804SOL    HW183390   8.344   0.737   3.409  1.9258 -0.7045 -0.9767
23804SOL    HW283391   8.271   0.838   3.323  0.1037 -0.6434  0.5975
23805SOL     OW83392   7.790   6.675   4.361  0.3594  0.0497  0.3449
23805SOL    HW183393   7.878   6.645   4.384 -0.2942 -0.4087  2.5255
23805SOL    HW283394   7.792   6.769   4.376  0.2225 -0.1069  1.4596
23806SOL     OW83395   5.736   1.834   4.775  0.8063  0.1914 -0.5234
23806SOL    HW183396   5.804   1.888   4.815  0.0786  0.6367  0.1519
23806SOL    HW283397   5.757   1.745   4.803  1.4731  0.2350 -0.8631
23807SOL     OW83398   3.950   4.954   8.009  0.3947  0.5771 -0.2920
23807SOL    HW183399   4.038   4.933   8.040  0.6625  0.4767 -1.1155
23807SOL    HW283400   3.963   5.018   7.940 -0.0729 -0.5329 -1.4466
23808SOL     OW83401   5.685   7.871   8.578  0.5916  0.2062  0.4934
23808SOL    HW183402   5.654   7.786   8.547  1.6900  0.7874 -2.6215
23808SOL    HW283403   5.769   7.852   8.619  0.9377 -0.2485 -0.3781
23809SOL     OW83404   4.768   8.561   6.309  0.2997  0.0905 -0.2538
23809SOL    HW183405   4.677   8.555   6.281  0.5378  1.1475 -1.3602
23809SOL    HW283406   4.766   8.621   6.385 -0.1218 -1.3489  0.9186
23810SOL     OW83407   9.600   4.606   3.431 -0.3962  0.1397 -0.6529
23810SOL    HW183408   9.542   4.561   3.370  0.8296 -0.3016 -1.5253
23810SOL    HW283409   9.687   4.575   3.408 -0.0292 -1.8516  2.8164
23811SOL     OW83410   0.233   3.066   0.377 -0.9416  0.4320 -0.2902
23811SOL    HW183411   0.237   3.150   0.421 -0.4542  1.2783 -1.8776
23811SOL    HW283412   0.286   3.008   0.432 -0.1495  1.5014  0.1103
23812SOL     OW83413   1.033   7.239   2.123  0.7445  0.2992  0.6049
23812SOL    HW183414   1.092   7.308   2.092  2.1903 -1.3145 -0.4298
23812SOL    HW283415   0.992   7.206   2.043  0.9201 -0.7545  0.9321
23813SOL     OW83416   6.491   5.886   5.001 -0.1078  0.0129 -0.3889
23813SOL    HW183417   6.423   5.880   5.068  0.7398 -1.1419  0.4315
23813SOL    HW283418   6.529   5.973   5.013 -2.1234  1.1240 -1.6073
23814SOL     OW83419   9.338   7.418   3.867 -0.1456  0.0791  0.2135
23814SOL    HW183420   9.340   7.503   3.823 -1.0775  0.3464  0.6543
23814SOL    HW283421   9.283   7.432   3.943  1.6474 -0.3037  1.6493
23815SOL     OW83422   9.539   2.797   5.039 -0.0733  0.7376  0.3158
23815SOL    HW183423   9.452   2.798   4.999  0.2946 -1.2925 -0.6463
23815SOL    HW283424   9.593   2.745   4.979  1.6669  1.4713  1.1813
23816SOL     OW83425   9.929   5.865   4.748  0.3316 -0.2819  0.0004
23816SOL    HW183426   9.868   5.802   4.709 -0.0951  1.3535 -2.1741
23816SOL    HW283427   9.887   5.950   4.734  1.9804  0.6834  0.6820
23817SOL     OW83428   2.625   9.599   6.672 -0.9436  0.3187 -0.0918
23817SOL    HW183429   2.655   9.526   6.725 -2.2477 -0.8216 -0.8349
23817SOL    HW283430   2.704   9.634   6.630 -0.1462  0.1685  1.2645
23818SOL     OW83431   4.842  10.246   6.397 -0.3211 -0.2420 -0.1054
23818SOL    HW183432   4.822  10.339   6.388  0.6512  0.1710  1.5406
23818SOL    HW283433   4.938  10.241   6.391 -0.3608 -1.1262 -0.1495
23819SOL     OW83434   6.490  10.086   0.365  0.3277 -0.0792 -0.1366
23819SOL    HW183435   6.576  10.125   0.384  0.5131 -0.8936  0.7678
23819SOL    HW283436   6.492  10.069   0.271  0.3423  1.8025 -0.5278
23820SOL     OW83437   5.400   5.301   2.525 -0.2796  0.3844  0.3968
23820SOL    HW183438   5.458   5.228   2.500 -0.8153 -0.2054  0.8457
23820SOL    HW283439   5.312   5.269   2.507 -0.5018  1.0923  0.1904
23821SOL     OW83440   2.139   4.244   1.946  0.1527  0.4456  0.0223
23821SOL    HW183441   2.196   4.168   1.943  0.5110  0.7439 -1.8955
23821SOL    HW283442   2.179   4.301   2.012  0.6827 -0.3947  0.4438
23822SOL     OW83443   1.290   2.313   7.235 -0.2626 -0.4724  0.3828
23822SOL    HW183444   1.216   2.326   7.295 -1.0799 -2.5888 -0.0628
23822SOL    HW283445   1.251   2.271   7.158  0.9004  1.3519 -1.3083
23823SOL     OW83446   8.018   8.040   6.276  0.5367 -0.0248  0.3956
23823SOL    HW183447   8.054   8.059   6.362  1.5610 -0.6540  0.1241
23823SOL    HW283448   8.042   7.949   6.259  1.1105  0.3392 -0.9048
23824SOL     OW83449   4.192   8.888   2.715  0.0451  0.2008  0.6290
23824SOL    HW183450   4.126   8.953   2.740  1.0404  1.4523  0.1375
23824SOL    HW283451   4.235   8.927   2.639  1.9998 -0.1181  1.5258
23825SOL     OW83452   1.944   9.821   0.746 -0.1989 -0.1376  0.5921
23825SOL    HW183453   2.007   9.795   0.813 -1.6545  1.0044  2.5385
23825SOL    HW283454   1.973   9.907   0.716 -1.1960  0.7935  2.1286
23826SOL     OW83455   2.997   7.880   8.303  0.0144  0.0887 -0.2823
23826SOL    HW183456   2.980   7.788   8.323  0.1003 -0.2712 -1.7321
23826SOL    HW283457   3.088   7.894   8.327  0.0237 -0.2295 -0.1286
23827SOL     OW83458   2.158   4.591   5.566  0.3009  0.2369  0.1253
23827SOL    HW183459   2.211   4.531   5.514 -0.2723  0.9466 -1.3576
23827SOL    HW283460   2.220   4.660   5.593  0.2328  0.9718 -1.4515
23828SOL     OW83461   0.654   3.013   2.027 -0.4346 -0.1826  0.0363
23828SOL    HW183462   0.696   3.069   2.091  0.1024 -0.8310  0.2678
23828SOL    HW283463   0.702   2.930   2.032 -0.4792 -0.3022 -1.0802
23829SOL     OW83464   8.520   9.297   8.590 -0.3123 -0.9234  0.3588
23829SOL    HW183465   8.535   9.367   8.526 -2.4605 -1.0663 -0.3803
23829SOL    HW283466   8.573   9.224   8.559  0.1393 -0.3776 -0.1752
23830SOL     OW83467   0.813   9.541   3.038  0.6935  0.2203 -0.7041
23830SOL    HW183468   0.873   9.581   3.101  0.0834  0.3635 -0.2059
23830SOL    HW283469   0.834   9.447   3.042  1.4395  0.3616 -1.1404
23831SOL     OW83470   6.928   6.634   3.703  0.9588  0.3822 -0.3371
23831SOL    HW183471   6.928   6.725   3.674  0.9722 -0.1221 -2.0695
23831SOL    HW283472   6.963   6.586   3.628  0.3056 -1.1259  0.2953
23832SOL     OW83473   0.737   8.010   2.427 -0.2724  0.5570 -0.5652
23832SOL    HW183474   0.719   8.061   2.507 -0.5402 -0.3970  0.0022
23832SOL    HW283475   0.814   7.958   2.449 -1.1301 -0.7064 -0.4309
23833SOL     OW83476   2.476   5.696   3.337 -0.1181 -0.0932  0.3043
23833SOL    HW183477   2.434   5.625   3.288  1.5193 -1.3673  0.6519
23833SOL    HW283478   2.569   5.672   3.338  0.4098  1.8432  0.8390
23834SOL     OW83479   5.179   5.026   1.697  0.1864 -0.5902 -0.0604
23834SOL    HW183480   5.230   4.968   1.641 -0.0757  0.8759 -1.9579
23834SOL    HW283481   5.150   4.971   1.770  2.0117 -2.1611 -0.4376
23835SOL     OW83482   5.726   0.577   2.915 -0.1436  0.1738 -0.0780
23835SOL    HW183483   5.674   0.577   2.996  0.8935 -0.0307  0.6070
23835SOL    HW283484   5.685   0.509   2.861 -1.3115  0.8190 -0.0518
23836SOL     OW83485   1.364   8.148   4.886  0.3422 -0.5114 -0.3822
23836SOL    HW183486   1.272   8.127   4.870  0.5203 -2.0698  0.4572
23836SOL    HW283487   1.406   8.136   4.801 -0.1001 -0.5210 -0.6019
23837SOL     OW83488   5.521   4.874   7.947  1.0225 -0.1625  0.2563
23837SOL    HW183489   5.547   4.905   7.860 -1.5235  0.8607 -0.2390
23837SOL    HW283490   5.534   4.949   8.005 -0.7299  0.4165 -0.0272
23838SOL     OW83491   7.707   1.565   9.856 -0.4822  0.0856 -0.3534
23838SOL    HW183492   7.764   1.633   9.818  0.6900 -0.8129 -0.2664
23838SOL    HW283493   7.760   1.485   9.852 -1.5213 -0.6552  0.3192
23839SOL     OW83494   1.746   3.810  10.358  0.4285 -0.5067 -0.1262
23839SOL    HW183495   1.686   3.812  10.432 -0.0603  0.2491 -0.5261
23839SOL    HW283496   1.765   3.903  10.341  1.1847 -0.7100 -0.4222
23840SOL     OW83497  10.250   6.380   0.131  0.1358 -0.4162 -0.0876
23840SOL    HW183498  10.304   6.422   0.198 -1.0109 -0.7423  1.0773
23840SOL    HW283499  10.168   6.358   0.175  0.2354 -2.8261 -0.9384
23841SOL     OW83500   1.571   7.929   8.130  0.1577 -0.1004  0.2694
23841SOL    HW183501   1.646   7.870   8.126 -0.6138 -1.3227  2.1234
23841SOL    HW283502   1.609   8.016   8.143  1.2660 -0.4643 -0.4032
23842SOL     OW83503   5.054  10.318   0.474  0.2446  0.3144  0.3572
23842SOL    HW183504   5.122  10.340   0.409  1.1763 -1.8962  0.4718
23842SOL    HW283505   5.075  10.372   0.550  0.4730  1.3272 -0.3962
23843SOL     OW83506   2.738   5.016   6.515  0.6638  0.3359 -0.6821
23843SOL    HW183507   2.717   4.933   6.559  0.8791  0.7950  0.3208
23843SOL    HW283508   2.673   5.078   6.549  2.3500  1.2959  0.9604
23844SOL     OW83509   0.988   8.819   7.825  0.1725 -0.0318 -0.7626
23844SOL    HW183510   0.893   8.834   7.831  0.3524  0.6461  0.7803
23844SOL    HW283511   0.996   8.724   7.820 -0.5810 -0.1091 -0.7213
23845SOL     OW83512   9.203   9.236   4.151  0.0023  0.5168 -0.0798
23845SOL    HW183513   9.279   9.190   4.114 -0.5397 -1.8881  1.5685
23845SOL    HW283514   9.128   9.185   4.121 -0.6214  0.2150  1.8702
23846SOL     OW83515   2.305  10.136  10.311  0.2057  0.5875  0.4454
23846SOL    HW183516   2.224  10.179  10.284 -0.4356 -1.1999 -0.7093
23846SOL    HW283517   2.320  10.166  10.401 -1.6243  1.1490  0.5946
23847SOL     OW83518   1.966   9.020   8.086  0.1139  0.2845  0.3366
23847SOL    HW183519   1.915   9.069   8.150  0.7392  0.8141  0.4413
23847SOL    HW283520   2.007   9.087   8.031  1.9155 -0.0459  1.2077
23848SOL     OW83521   2.284   1.141   5.820 -0.4907 -0.2230  0.6303
23848SOL    HW183522   2.244   1.089   5.891 -0.6964 -1.0782 -0.0995
23848SOL    HW283523   2.216   1.146   5.753 -0.5651  1.2275  0.7840
23849SOL     OW83524   4.777   4.848   2.828  0.4210 -0.6128 -0.6260
23849SOL    HW183525   4.845   4.853   2.895 -0.2067  0.5448 -0.0360
23849SOL    HW283526   4.749   4.756   2.829  0.4755 -0.6319  0.6625
23850SOL     OW83527   8.526   6.275   4.490 -0.7363  0.6050  0.8328
23850SOL    HW183528   8.588   6.328   4.539 -0.9470  1.6000  0.0461
23850SOL    HW283529   8.531   6.309   4.401 -0.7682 -0.7933  0.2727
23851SOL     OW83530   8.639   1.296   1.297  0.0482 -0.6160 -0.7719
23851SOL    HW183531   8.587   1.303   1.377 -0.3609  0.1232 -1.0873
23851SOL    HW283532   8.729   1.316   1.325 -0.0614 -0.5515 -0.4628
23852SOL     OW83533   6.328   9.525   1.713  0.0046 -0.8671  0.2121
23852SOL    HW183534   6.317   9.498   1.804  0.6352  0.3239  0.6628
23852SOL    HW283535   6.280   9.459   1.663 -2.2805 -0.3268  1.5359
23853SOL     OW83536   5.285   4.129   7.301 -0.1279 -0.0829  0.1831
23853SOL    HW183537   5.368   4.168   7.330 -0.3576  1.7489 -1.4159
23853SOL    HW283538   5.304   4.036   7.294  1.6148  0.2081  0.4991
23854SOL     OW83539   7.835   4.598   5.312  0.1240 -0.1984  0.6760
23854SOL    HW183540   7.861   4.618   5.402  0.9051 -0.4073  0.5039
23854SOL    HW283541   7.876   4.666   5.259  0.9679 -0.9493  0.3235
23855SOL     OW83542   9.678  10.028   3.595  0.9216 -0.3051 -0.2881
23855SOL    HW183543   9.761  10.055   3.633  0.7314  2.5343 -1.6412
23855SOL    HW283544   9.619  10.017   3.670  1.5618  1.3141  0.4865
23856SOL     OW83545   8.731   8.591   4.252  0.3929 -0.5692 -0.0684
23856SOL    HW183546   8.818   8.590   4.292  0.0754  1.4413  0.7958
23856SOL    HW283547   8.747   8.608   4.160  0.9105  0.2405  0.1630
23857SOL     OW83548   6.876   0.835   5.610 -0.5926 -0.0393 -0.7188
23857SOL    HW183549   6.863   0.742   5.595  0.7751 -0.2099 -0.9385
23857SOL    HW283550   6.795   0.876   5.580 -1.3084 -1.1640 -0.3775
23858SOL     OW83551   2.193   5.535   4.121 -0.4813  0.0024 -0.1443
23858SOL    HW183552   2.098   5.536   4.139 -0.7189 -1.9275 -1.0409
23858SOL    HW283553   2.220   5.626   4.132 -1.9651  0.2458  2.5631
23859SOL     OW83554   6.936   7.306   1.106  0.0408  0.8768 -0.0413
23859SOL    HW183555   6.949   7.277   1.015 -0.1835  2.0610 -0.4724
23859SOL    HW283556   6.868   7.249   1.140 -1.2401  1.6188 -1.2515
23860SOL     OW83557   1.789   9.773   3.815  0.6427  0.3059 -0.4346
23860SOL    HW183558   1.866   9.829   3.807 -0.8025  2.4160 -0.3719
23860SOL    HW283559   1.774   9.765   3.909  0.6115  0.1493 -0.4526
23861SOL     OW83560   4.108   5.907   0.304 -0.2351 -0.1616  0.5311
23861SOL    HW183561   4.119   5.913   0.209 -0.3089  0.0948  0.5388
23861SOL    HW283562   4.088   5.815   0.320  1.4394 -0.5544  0.4693
23862SOL     OW83563   6.371   8.381   5.435 -0.1608 -0.4426 -0.4672
23862SOL    HW183564   6.332   8.449   5.490  0.1345 -0.7401  0.1215
23862SOL    HW283565   6.442   8.426   5.389  1.9880 -0.9232  2.0960
23863SOL     OW83566   4.333   9.911  10.008  0.0021 -0.1944 -0.3739
23863SOL    HW183567   4.262   9.962   9.968  1.0758  1.3526 -0.4164
23863SOL    HW283568   4.406   9.920   9.946  0.8807  0.0427  0.6641
23864SOL     OW83569   3.819   1.356   9.071 -0.4349 -0.2758 -0.2364
23864SOL    HW183570   3.844   1.323   8.985 -0.5238 -0.2904 -0.2571
23864SOL    HW283571   3.779   1.280   9.114 -1.2858 -0.0159 -0.5477
23865SOL     OW83572   0.009   2.860   5.980 -0.1620 -0.0655  0.1928
23865SOL    HW183573   0.087   2.809   5.957 -0.4558 -0.3315 -0.2240
23865SOL    HW283574  -0.042   2.800   6.035 -0.1895  0.0234  0.2639
23866SOL     OW83575   7.074   0.220   3.682 -0.3206  0.0598 -0.5983
23866SOL    HW183576   7.141   0.232   3.749  0.3057  1.2195 -1.4015
23866SOL    HW283577   7.116   0.246   3.600 -2.0232  1.7929 -1.0020
23867SOL     OW83578   2.436   1.127   4.951  0.4085  0.3374  0.3374
23867SOL    HW183579   2.342   1.145   4.959  0.2665 -1.1026  3.3989
23867SOL    HW283580   2.439   1.042   4.906  0.3789  1.1618 -1.2794
23868SOL     OW83581   2.257   8.209  10.254  0.2443 -1.0718 -0.0913
23868SOL    HW183582   2.209   8.287  10.227 -0.1294 -0.9703  0.8423
23868SOL    HW283583   2.215   8.137  10.206  0.4612 -0.7324 -0.7999
23869SOL     OW83584   0.772   7.228   4.349 -0.6732  0.4944  0.4251
23869SOL    HW183585   0.740   7.138   4.353  1.3362 -0.3073 -0.3057
23869SOL    HW283586   0.799   7.248   4.439 -1.9543  0.7287  0.7785
23870SOL     OW83587   1.379   4.305   1.560  0.2605 -1.1319 -0.0929
23870SOL    HW183588   1.384   4.220   1.516  0.2873 -1.0439 -0.2599
23870SOL    HW283589   1.326   4.288   1.638  0.5041 -1.3633  0.0233
23871SOL     OW83590   8.691   7.336   6.967 -0.0837 -0.0300  0.2725
23871SOL    HW183591   8.667   7.419   7.007  0.9965  0.6167 -0.3800
23871SOL    HW283592   8.705   7.277   7.041 -0.2408  0.5361  0.7596
23872SOL     OW83593   5.722   9.932   2.576 -0.4403 -0.5996  0.4681
23872SOL    HW183594   5.648   9.946   2.635 -0.5976  1.2392 -0.0995
23872SOL    HW283595   5.683   9.926   2.489  0.0858  1.1922  0.0648
23873SOL     OW83596   6.201   3.423   4.633 -0.6014 -0.4723  0.5007
23873SOL    HW183597   6.205   3.327   4.635 -0.5785 -0.4720  2.2349
23873SOL    HW283598   6.112   3.442   4.603 -0.2500 -0.9987 -0.9526
23874SOL     OW83599   9.191   6.261  10.076 -0.4647 -0.1807 -0.1129
23874SOL    HW183600   9.188   6.299  10.164  0.2719 -1.2562  0.3954
23874SOL    HW283601   9.171   6.168  10.089 -0.0857 -0.4057 -1.0388
23875SOL     OW83602   4.988   8.221   4.436 -0.0019 -0.5760  0.1011
23875SOL    HW183603   4.934   8.256   4.507  0.1783 -0.6419  0.2706
23875SOL    HW283604   5.060   8.283   4.427 -1.1122  0.5734 -1.4233
23876SOL     OW83605   0.373  10.027   8.747  0.1743 -0.0837 -0.0360
23876SOL    HW183606   0.388  10.076   8.667 -1.2826 -0.4339 -0.5589
23876SOL    HW283607   0.349   9.939   8.718 -0.4951 -0.1874  0.7527
23877SOL     OW83608   9.195   4.571   4.633  0.2895 -0.5096 -0.2454
23877SOL    HW183609   9.231   4.483   4.643 -1.0263 -0.8724  1.9186
23877SOL    HW283610   9.101   4.558   4.622  0.3359  0.5581 -2.4423
23878SOL     OW83611   6.310   1.852   1.520  0.0043 -0.1281  0.4382
23878SOL    HW183612   6.261   1.770   1.521  0.5184 -0.4356  1.0448
23878SOL    HW283613   6.338   1.863   1.429 -1.0960  0.0060  0.1059
23879SOL     OW83614   9.899   8.286   5.441 -0.0178  0.0277  0.1132
23879SOL    HW183615   9.967   8.257   5.379  0.9708  2.1843  0.0865
23879SOL    HW283616   9.926   8.249   5.525  0.8781  0.3570 -0.0163
23880SOL     OW83617   7.236   5.496   8.646  0.6077 -0.2401  0.0356
23880SOL    HW183618   7.185   5.416   8.661  1.2170 -0.8775 -1.0636
23880SOL    HW283619   7.201   5.531   8.564  0.3942  0.5977  0.4781
23881SOL     OW83620   3.908   0.162   8.257 -0.1627 -0.1737  0.2651
23881SOL    HW183621   3.936   0.218   8.185 -2.2060 -1.6178 -1.8008
23881SOL    HW283622   3.916   0.217   8.335 -0.8525  2.5757 -1.4592
23882SOL     OW83623   1.532   7.350   9.802 -0.4029  0.3617  0.1302
23882SOL    HW183624   1.618   7.349   9.760 -0.3863  0.8697  0.1485
23882SOL    HW283625   1.493   7.433   9.776 -1.7216 -0.6906 -1.5056
23883SOL     OW83626   1.308   8.067   3.037  0.2423 -0.1894 -0.5523
23883SOL    HW183627   1.304   8.020   3.120  0.5389 -0.8645 -0.9099
23883SOL    HW283628   1.319   7.998   2.971 -0.7220  0.2722 -1.2284
23884SOL     OW83629   5.251   0.681   0.634  0.5968  0.0987  0.1811
23884SOL    HW183630   5.273   0.752   0.695  0.8213 -0.0392  0.2594
23884SOL    HW283631   5.317   0.614   0.650  2.4126  1.1997 -2.1900
23885SOL     OW83632   9.633   2.402   1.674  0.5613 -0.0179 -0.0211
23885SOL    HW183633   9.704   2.464   1.693 -0.5879  1.5448 -0.6086
23885SOL    HW283634   9.554   2.455   1.678 -0.4899 -1.4903 -0.5147
23886SOL     OW83635   9.133   8.954   7.156 -0.2952  0.4026  0.0451
23886SOL    HW183636   9.050   8.949   7.203 -0.7428 -1.9113 -0.8675
23886SOL    HW283637   9.116   8.911   7.072  1.9063 -0.4739 -0.0265
23887SOL     OW83638   0.551   9.369   3.712  0.0409  0.0657 -0.6106
23887SOL    HW183639   0.545   9.424   3.633  1.9464  0.8364 -0.2833
23887SOL    HW283640   0.620   9.306   3.691  0.7576  0.4472  0.5148
23888SOL     OW83641   5.467   7.333   7.874  0.0594  0.3709  0.3657
23888SOL    HW183642   5.541   7.381   7.913  0.5010 -0.1917  0.2268
23888SOL    HW283643   5.503   7.247   7.853 -0.5174  0.2493 -0.1277
23889SOL     OW83644   3.715   2.094   9.593  0.3027  0.8247 -0.3732
23889SOL    HW183645   3.796   2.058   9.631  0.2101 -0.4449 -1.3118
23889SOL    HW283646   3.646   2.036   9.626  0.1527  0.0450 -1.9607
23890SOL     OW83647   8.615   0.630   8.351 -0.2722  0.1947  0.1999
23890SOL    HW183648   8.591   0.546   8.311 -1.4883 -0.0451  1.3565
23890SOL    HW283649   8.683   0.608   8.415 -2.1557 -0.3466  2.1373
23891SOL     OW83650   3.797   8.566   4.397  0.4332 -0.5064 -0.0622
23891SOL    HW183651   3.716   8.530   4.362 -0.9355  1.9566  0.3569
23891SOL    HW283652   3.792   8.550   4.492 -0.0220  0.4377  0.0816
23892SOL     OW83653   2.136   8.017   6.559 -0.0029  0.4268  0.4321
23892SOL    HW183654   2.203   8.053   6.619  3.0642 -0.1897 -2.3405
23892SOL    HW283655   2.129   7.925   6.584  2.0889 -0.1008 -0.7101
23893SOL     OW83656   1.899   6.263   1.887 -0.1557  0.1474 -0.0029
23893SOL    HW183657   1.844   6.247   1.810 -0.5947  0.7488  0.1814
23893SOL    HW283658   1.894   6.357   1.901 -0.4394 -0.0147  1.0398
23894SOL     OW83659   6.330   3.750   1.937  0.0948 -0.4758  0.0585
23894SOL    HW183660   6.397   3.817   1.931 -0.9344  0.4390 -2.3723
23894SOL    HW283661   6.247   3.797   1.926 -0.7919 -1.9009  0.3318
23895SOL     OW83662   3.393   5.417   3.690 -0.3898  0.2255  0.6145
23895SOL    HW183663   3.443   5.388   3.613  0.7531 -1.6032  1.9757
23895SOL    HW283664   3.454   5.471   3.739 -0.7248  0.4025  0.8391
23896SOL     OW83665   2.671   2.484   6.611 -0.8621  0.9070  0.6025
23896SOL    HW183666   2.720   2.466   6.691 -0.4343  0.4353  0.2474
23896SOL    HW283667   2.606   2.413   6.606  0.6534 -0.4688 -0.6639
23897SOL     OW83668   2.306   1.922   6.543  0.1291  0.0956 -0.0483
23897SOL    HW183669   2.334   1.929   6.452  1.6023  0.1385  0.3848
23897SOL    HW283670   2.214   1.897   6.538 -0.1782  1.4199 -1.5411
23898SOL     OW83671   8.651   1.726   2.321 -0.0402 -0.4864 -0.2059
23898SOL    HW183672   8.714   1.780   2.370  0.8229 -1.4038 -0.2779
23898SOL    HW283673   8.607   1.674   2.388 -0.3478 -0.2396 -0.2120
23899SOL     OW83674   6.348   3.105   7.070  0.0541 -0.4410  0.1817
23899SOL    HW183675   6.431   3.137   7.106 -0.7747  1.6977  0.3750
23899SOL    HW283676   6.352   3.130   6.977 -0.4020 -0.2431  0.2158
23900SOL     OW83677   7.559   9.979   8.271  0.5130 -0.1788 -0.7173
23900SOL    HW183678   7.497   9.975   8.344  0.4235  0.4416 -0.7521
23900SOL    HW283679   7.591  10.069   8.272  0.3378 -0.1018 -1.5867
23901SOL     OW83680   1.066   4.335   4.710 -0.3335  0.9543 -0.6483
23901SOL    HW183681   1.123   4.291   4.772 -0.3513  0.2714 -1.1085
23901SOL    HW283682   1.124   4.363   4.639 -0.4548  0.8856 -0.7765
23902SOL     OW83683   7.412   8.947   8.486  0.1904  0.7272 -0.2693
23902SOL    HW183684   7.320   8.924   8.487  0.9125 -2.6326  0.9353
23902SOL    HW283685   7.420   9.020   8.547 -1.4799  0.1768  0.6397
23903SOL     OW83686   1.941   5.033  10.061 -0.0226  0.0837  0.1461
23903SOL    HW183687   2.032   5.062  10.066 -0.4234  1.1955  1.5114
23903SOL    HW283688   1.930   5.005   9.970  1.7467 -0.3419  0.0247
23904SOL     OW83689   5.157   3.988   7.958 -0.0212 -0.1002 -0.1990
23904SOL    HW183690   5.221   4.058   7.971 -0.0791 -0.4109  2.2765
23904SOL    HW283691   5.203   3.922   7.906 -0.1199  1.8769 -3.0279
23905SOL     OW83692   9.614   6.999  10.108  0.1287 -0.0688  0.3244
23905SOL    HW183693   9.597   7.015  10.201  0.7231  1.5807  0.1715
23905SOL    HW283694   9.654   7.080  10.076  0.8229 -0.9530 -1.1597
23906SOL     OW83695   3.768   8.794  10.151 -0.5178  0.2258  0.2241
23906SOL    HW183696   3.708   8.846  10.096  0.1147  1.1186  0.3545
23906SOL    HW283697   3.793   8.720  10.095 -0.7346  0.5388 -0.2996
23907SOL     OW83698   8.319   4.984   4.230 -0.9983 -0.2620 -0.8365
23907SOL    HW183699   8.351   4.959   4.143 -0.3948  0.6434 -0.8809
23907SOL    HW283700   8.359   5.069   4.247 -0.2809 -0.8836  0.7651
23908SOL     OW83701   5.607   5.419   9.019  0.2253 -0.2248 -0.5373
23908SOL    HW183702   5.591   5.503   9.060 -0.0697  0.0022 -1.1031
23908SOL    HW283703   5.536   5.410   8.955 -1.2443 -2.0054  1.1887
23909SOL     OW83704   9.592   8.932   8.817  0.4158  0.2063 -0.0680
23909SOL    HW183705   9.622   8.901   8.731  2.3646  0.0017  0.6335
23909SOL    HW283706   9.620   8.864   8.878 -0.6997  0.4775  0.7724
23910SOL     OW83707   9.291   7.106   1.209 -0.4733 -0.0079 -0.0369
23910SOL    HW183708   9.374   7.088   1.165 -0.3854 -1.2184  0.5614
23910SOL    HW283709   9.280   7.200   1.203  1.0527  0.2024  0.0277
23911SOL     OW83710   2.069   8.959  10.136 -0.0552  0.1647 -0.6074
23911SOL    HW183711   2.077   8.891  10.068  0.0433 -0.6703  0.2147
23911SOL    HW283712   2.147   8.948  10.190 -0.1039  0.8543 -0.3875
23912SOL     OW83713  10.212   8.537   0.053 -0.0109  0.1763  0.1797
23912SOL    HW183714  10.126   8.532   0.012  1.0241  0.0456 -2.1271
23912SOL    HW283715  10.223   8.630   0.073 -0.1205  0.4428 -0.9151
23913SOL     OW83716   9.600   4.565   5.394  0.1993  0.2544 -0.1024
23913SOL    HW183717   9.522   4.616   5.372  0.2873 -0.7047 -3.0581
23913SOL    HW283718   9.568   4.496   5.451 -0.8093  0.7960  0.0206
23914SOL     OW83719   3.990   6.086   6.780  0.1712 -0.4350 -0.1333
23914SOL    HW183720   4.007   6.020   6.847 -0.5583  0.0273  0.5341
23914SOL    HW283721   3.983   6.036   6.699 -0.7483 -1.2442  0.4159
23915SOL     OW83722   8.116  10.010   8.974  0.1778 -0.1215  0.1676
23915SOL    HW183723   8.064  10.088   8.954  2.1952  1.0907 -0.7200
23915SOL    HW283724   8.153  10.028   9.061 -0.6531 -0.8665  0.6909
23916SOL     OW83725   5.727   8.713   9.317  0.1520 -0.2211  0.0901
23916SOL    HW183726   5.758   8.654   9.386  1.9350  0.7518  0.1953
23916SOL    HW283727   5.651   8.757   9.355 -0.2119 -1.2790  0.6018
23917SOL     OW83728   9.919   1.943   4.236  0.0355 -0.4104 -0.6610
23917SOL    HW183729  10.005   1.957   4.276 -0.5678 -0.1240  0.5670
23917SOL    HW283730   9.897   1.852   4.256 -0.3791 -0.1935 -0.1250
23918SOL     OW83731   0.776   0.589   7.931 -0.0553 -0.2834  0.1433
23918SOL    HW183732   0.694   0.633   7.951 -0.0992 -0.4215  0.2707
23918SOL    HW283733   0.807   0.630   7.851 -0.7050 -0.8509 -0.4075
23919SOL     OW83734   0.684   7.408   3.540  0.0557  0.1557 -0.5861
23919SOL    HW183735   0.639   7.492   3.544  2.1476  1.3309 -0.4788
23919SOL    HW283736   0.702   7.394   3.447  1.1318  0.6607 -0.4715
23920SOL     OW83737   0.754   3.124   9.000  0.2915  0.3254  0.1325
23920SOL    HW183738   0.795   3.057   9.055  1.4576  0.5628 -0.4100
23920SOL    HW283739   0.662   3.099   8.996 -0.0360  0.7265  2.8152
23921SOL     OW83740   5.222   5.138   8.873 -0.2792 -0.3846  0.3655
23921SOL    HW183741   5.245   5.102   8.958  0.4161  0.2958  0.4801
23921SOL    HW283742   5.303   5.178   8.841 -0.3898 -1.0633 -0.8470
23922SOL     OW83743   2.445   8.206   4.992 -0.4478 -0.0700  0.0935
23922SOL    HW183744   2.438   8.165   5.079 -0.1886  2.1006  1.1944
23922SOL    HW283745   2.535   8.187   4.964 -0.6697 -1.1612  0.0714
23923SOL     OW83746   4.578   5.288   5.960 -0.0587 -0.2208 -0.0764
23923SOL    HW183747   4.625   5.332   5.889 -0.4560 -0.1445 -0.2932
23923SOL    HW283748   4.503   5.246   5.917 -0.7115  0.4443  0.4043
23924SOL     OW83749   1.315   3.594   3.868 -0.3157  0.2745  0.3810
23924SOL    HW183750   1.308   3.656   3.941  0.2660  0.3689  0.3598
23924SOL    HW283751   1.225   3.569   3.849 -0.4347 -0.4854  1.7675
23925SOL     OW83752   2.296   8.669  10.194  0.3620  0.0440 -0.1794
23925SOL    HW183753   2.218   8.664  10.249  0.0446  0.0105 -0.6282
23925SOL    HW283754   2.364   8.624  10.245 -0.3823 -1.6445 -0.6020
23926SOL     OW83755   2.062   0.503   0.778 -0.2617  0.2572 -0.2025
23926SOL    HW183756   2.117   0.434   0.741 -0.1473  1.4710 -2.4428
23926SOL    HW283757   2.124   0.571   0.804 -0.4207 -0.1965  1.4885
23927SOL     OW83758   5.344   8.453   9.990  0.0739 -0.3499 -0.3470
23927SOL    HW183759   5.306   8.541   9.990 -0.6115 -0.6290 -0.9469
23927SOL    HW283760   5.438   8.467   9.986 -0.0690  0.3736 -2.0714
23928SOL     OW83761   6.645   6.679   5.832 -0.1511 -0.0461 -0.6727
23928SOL    HW183762   6.706   6.702   5.762  1.3285 -1.3391  0.1309
23928SOL    HW283763   6.603   6.762   5.855  2.2973  1.1935 -0.3512
23929SOL     OW83764   6.512   8.865   9.954  0.8134 -0.3384 -0.5476
23929SOL    HW183765   6.481   8.852   9.865 -3.2680  0.9321  0.4844
23929SOL    HW283766   6.484   8.787  10.002 -1.9019  1.2087  0.5983
23930SOL     OW83767   0.605   2.466  10.038 -0.4362  0.3239  0.4735
23930SOL    HW183768   0.590   2.399  10.104 -1.6868 -0.1325 -0.2361
23930SOL    HW283769   0.630   2.417   9.959 -1.6387  0.6375 -0.1333
23931SOL     OW83770   5.721   5.675   2.403  0.0158  0.0618  0.6433
23931SOL    HW183771   5.717   5.666   2.308  0.9191  0.0311  0.6034
23931SOL    HW283772   5.813   5.659   2.425 -0.3824 -1.0576  1.6347
23932SOL     OW83773   1.408   1.266   2.267 -0.5859  0.7218  0.3675
23932SOL    HW183774   1.440   1.207   2.336 -2.1310  0.1034  0.6063
23932SOL    HW283775   1.450   1.235   2.187 -1.1063 -0.5172  0.5490
23933SOL     OW83776   2.989   0.397   1.256  0.0232 -0.3226  0.3300
23933SOL    HW183777   3.008   0.310   1.221 -0.9176 -0.6272  0.5371
23933SOL    HW283778   3.072   0.444   1.250  0.1008 -0.5999 -1.5949
23934SOL     OW83779   0.558   4.166   5.141  0.0395 -0.1736  0.2444
23934SOL    HW183780   0.532   4.097   5.202  0.7775 -0.2484  0.4849
23934SOL    HW283781   0.476   4.206   5.113 -0.4466 -1.5454 -0.3686
23935SOL     OW83782   5.363  10.226   1.648  0.9636  0.6481  0.1955
23935SOL    HW183783   5.302  10.167   1.604  1.6831  0.7518 -0.9788
23935SOL    HW283784   5.309  10.272   1.713 -0.2680  0.9036 -0.9618
23936SOL     OW83785   5.497   0.305   2.187 -0.7216 -0.3251  0.2955
23936SOL    HW183786   5.584   0.322   2.152  0.3195 -0.2625  2.6976
23936SOL    HW283787   5.450   0.263   2.115  1.1753 -0.0919 -1.1717
23937SOL     OW83788   8.955   5.616   0.973 -0.0751  0.4396  0.1601
23937SOL    HW183789   9.012   5.551   0.932 -0.2803  0.6888 -0.5312
23937SOL    HW283790   9.012   5.667   1.029 -0.0700 -0.9790  1.5277
23938SOL     OW83791   0.273   9.779   7.532  0.2189 -0.2064  0.3734
23938SOL    HW183792   0.251   9.696   7.576  2.3729 -0.9990  0.0648
23938SOL    HW283793   0.191   9.805   7.489 -0.3008 -2.6994 -0.3339
23939SOL     OW83794  10.169   3.348   7.181 -0.2784  0.6641 -0.4982
23939SOL    HW183795  10.259   3.327   7.208 -1.2104  0.6121  3.0224
23939SOL    HW283796  10.122   3.363   7.263 -4.4912 -3.0204 -1.8470
23940SOL     OW83797   6.173  10.167   1.330  0.0419 -0.2305  0.0213
23940SOL    HW183798   6.094  10.189   1.281 -0.8235 -0.1305  1.4097
23940SOL    HW283799   6.145  10.098   1.390  0.7489  0.4987  1.2279
23941SOL     OW83800   9.551   3.885   5.438 -0.0938 -0.5903  0.0655
23941SOL    HW183801   9.514   3.837   5.364 -1.0567 -1.7403  1.2371
23941SOL    HW283802   9.643   3.860   5.439 -0.4158 -1.8848  0.1892
23942SOL     OW83803   0.242   6.486   8.003  0.3797  0.6720 -0.5505
23942SOL    HW183804   0.308   6.478   8.072 -0.6285 -0.7922  0.3002
23942SOL    HW283805   0.226   6.580   7.996  0.4207  0.8656  1.3313
23943SOL     OW83806   2.885   7.694   6.955 -0.2287 -0.6851  0.2908
23943SOL    HW183807   2.928   7.609   6.962 -0.7568 -0.8773  1.4750
23943SOL    HW283808   2.872   7.707   6.861  2.2316 -0.6925 -0.1294
23944SOL     OW83809   0.389   5.316   5.665  0.3761 -0.2306  0.3880
23944SOL    HW183810   0.314   5.354   5.618  2.0964  1.3873 -1.2765
23944SOL    HW283811   0.374   5.222   5.662 -1.2656  0.0100 -0.4510
23945SOL     OW83812   5.748   6.927   1.006 -0.2462  0.1279  0.5436
23945SOL    HW183813   5.800   6.988   0.954 -0.4929 -0.3859 -0.3201
23945SOL    HW283814   5.675   6.980   1.039 -0.8695  0.1492 -0.8145
23946SOL     OW83815   4.392   8.917   4.614 -0.0937  0.0516 -0.5749
23946SOL    HW183816   4.377   9.002   4.571 -0.0921  0.7911  0.8453
23946SOL    HW283817   4.487   8.904   4.609  0.3555  1.7373  2.0522
23947SOL     OW83818   6.274   1.881   5.170 -0.0164 -0.0883 -0.2188
23947SOL    HW183819   6.359   1.854   5.135  0.4360  0.6086  0.3293
23947SOL    HW283820   6.290   1.967   5.208 -1.9701  2.3232 -4.2318
23948SOL     OW83821   1.061  10.334   9.062 -0.4330 -0.7390 -0.4973
23948SOL    HW183822   1.047  10.422   9.026  0.2926 -0.5484 -0.3122
23948SOL    HW283823   0.976  10.290   9.049 -1.2162  0.3944  0.5989
23949SOL     OW83824   1.487   6.648   0.037  0.2845 -0.9896 -0.2482
23949SOL    HW183825   1.472   6.555   0.021 -0.1066 -0.6261 -2.2630
23949SOL    HW283826   1.543   6.677  -0.035  0.2334  0.3800  0.2218
23950SOL     OW83827   2.391  10.025   3.197 -0.6104  0.3796  0.0461
23950SOL    HW183828   2.468  10.059   3.151 -0.6850  0.3743 -0.0803
23950SOL    HW283829   2.423  10.008   3.286 -0.7838  1.6411  0.3734
23951SOL     OW83830   9.445   4.796   9.314 -0.2356 -0.6291  0.3770
23951SOL    HW183831   9.491   4.880   9.316  1.2489 -1.3720  2.6669
23951SOL    HW283832   9.505   4.738   9.267 -1.1358 -0.5056 -0.9637
23952SOL     OW83833   8.805   8.967   8.701 -0.4038  0.1617 -0.0478
23952SOL    HW183834   8.858   8.917   8.763 -0.6610 -1.9547 -1.4234
23952SOL    HW283835   8.729   8.995   8.752  0.3167  0.1428  1.0636
23953SOL     OW83836   6.422   4.624   6.350  0.0440 -0.0996  0.1293
23953SOL    HW183837   6.356   4.561   6.379  0.5417 -0.0596  1.4132
23953SOL    HW283838   6.395   4.648   6.261 -2.3551  0.8220  1.0303
23954SOL     OW83839   9.756   1.582   4.823  0.1752 -0.2078 -0.4654
23954SOL    HW183840   9.746   1.493   4.790  1.3103 -1.5071  2.3488
23954SOL    HW283841   9.669   1.606   4.854  0.0147 -0.6178 -0.5928
23955SOL     OW83842   6.006   4.701   9.589 -0.1368  0.2357 -0.0714
23955SOL    HW183843   6.007   4.771   9.524 -0.2443  0.5892  0.2987
23955SOL    HW283844   5.949   4.634   9.551  0.1301  0.2595 -0.5186
23956SOL     OW83845   1.159   9.540   1.992  0.0209  0.1911 -0.5587
23956SOL    HW183846   1.096   9.577   2.053 -0.0306 -0.8810  0.0729
23956SOL    HW283847   1.232   9.510   2.047 -0.2618 -1.2679 -0.9276
23957SOL     OW83848   4.500   0.178   7.573 -0.0108  0.2747  0.1107
23957SOL    HW183849   4.565   0.115   7.602 -1.0364 -1.7990 -1.8232
23957SOL    HW283850   4.532   0.209   7.489 -0.6232  0.6252 -0.0021
23958SOL     OW83851   7.411   8.286   1.620 -0.4946  0.0364 -0.0628
23958SOL    HW183852   7.479   8.353   1.611  0.8643 -1.3483 -0.6945
23958SOL    HW283853   7.365   8.287   1.536  0.4768 -0.7607 -0.6309
23959SOL     OW83854   0.469   9.290   7.393 -0.4585  0.0100 -0.4171
23959SOL    HW183855   0.442   9.294   7.485  0.5972  1.5370 -0.1306
23959SOL    HW283856   0.396   9.328   7.345 -0.5091  0.3750 -0.0602
23960SOL     OW83857   0.723   3.048   7.565 -0.0162 -0.4311  0.1878
23960SOL    HW183858   0.655   2.982   7.580 -0.0278 -0.0618  1.8922
23960SOL    HW283859   0.680   3.112   7.508 -0.5966 -0.9611  0.0083
23961SOL     OW83860   4.974   7.182   8.116  0.4761 -0.0326  0.6623
23961SOL    HW183861   4.965   7.240   8.191  0.0510 -0.8928  1.3012
23961SOL    HW283862   5.016   7.103   8.152  0.5056 -0.3586 -0.0575
23962SOL     OW83863   5.209   8.628   4.427  0.0319 -0.0818  0.2751
23962SOL    HW183864   5.257   8.577   4.491  0.2261  0.0340  0.2226
23962SOL    HW283865   5.177   8.563   4.364 -0.9072 -0.2994  0.9571
23963SOL     OW83866   0.764   8.763   4.990  0.5362  0.2051  0.1545
23963SOL    HW183867   0.857   8.785   4.984  0.7425 -0.9231 -1.2982
23963SOL    HW283868   0.738   8.794   5.077  2.5553 -0.4865  1.0817
23964SOL     OW83869   5.089   6.812   7.218 -0.1562  0.1055 -0.1549
23964SOL    HW183870   5.046   6.857   7.291 -0.3652 -1.0992  0.4905
23964SOL    HW283871   5.167   6.774   7.256  0.1343  0.1073 -0.7429
23965SOL     OW83872   0.051   9.028   6.978 -0.1719 -0.1378  0.0525
23965SOL    HW183873   0.100   8.948   6.961  1.4953  1.1944 -2.0067
23965SOL    HW283874   0.104   9.077   7.040 -0.2066  0.1806 -0.1643
23966SOL     OW83875   6.254   3.988   7.154 -0.3882  0.2158 -0.1825
23966SOL    HW183876   6.246   3.893   7.160  1.7870  0.0706  1.5153
23966SOL    HW283877   6.205   4.021   7.229  1.8398  0.1521  1.3965
23967SOL     OW83878   8.913  10.209   9.315 -0.0905  0.2768  0.2347
23967SOL    HW183879   8.964  10.290   9.308 -0.3330  0.3218 -1.8599
23967SOL    HW283880   8.822  10.238   9.310 -0.2634  0.0309  1.7577
23968SOL     OW83881   0.384   7.911   4.624 -0.0120  0.1762 -0.4973
23968SOL    HW183882   0.453   7.976   4.639  0.3729 -0.6699  1.7584
23968SOL    HW283883   0.424   7.848   4.564  1.5289 -0.7124  1.3589
23969SOL     OW83884  10.162   4.672   0.092 -0.9206 -0.2987  0.2598
23969SOL    HW183885  10.173   4.718   0.175  0.1976 -0.4684  0.2134
23969SOL    HW283886  10.092   4.720   0.047 -1.2572  0.0320  1.1201
23970SOL     OW83887   4.160   6.989   3.519 -0.2943 -0.2776 -0.2659
23970SOL    HW183888   4.226   7.058   3.525  0.6497 -1.2256  0.6092
23970SOL    HW283889   4.163   6.945   3.604  0.1243 -2.2734 -1.2436
23971SOL     OW83890   2.892   1.829   6.422  0.0989 -0.6390  0.2145
23971SOL    HW183891   2.801   1.831   6.394  0.6311 -0.0155 -1.5514
23971SOL    HW283892   2.907   1.737   6.447 -0.9049 -0.8230  0.1768
23972SOL     OW83893   0.399   5.910   6.186 -0.1623  0.0353  0.2109
23972SOL    HW183894   0.363   5.826   6.160 -0.2119 -0.0499  0.5420
23972SOL    HW283895   0.419   5.899   6.279  2.8079 -0.6709 -0.4089
23973SOL     OW83896   4.260   6.925   9.023 -0.0294 -0.3194 -0.2872
23973SOL    HW183897   4.279   6.983   9.097 -0.8751 -0.1171 -0.2205
23973SOL    HW283898   4.185   6.965   8.980  1.2252  0.2959 -2.0470
23974SOL     OW83899  10.096   4.429   0.161  0.3484 -0.3485  0.2168
23974SOL    HW183900  10.111   4.522   0.140  1.0800 -0.1425  1.5100
23974SOL    HW283901  10.027   4.402   0.101 -2.4852  2.0223  2.1240
23975SOL     OW83902   3.205   3.383   8.310  0.4776 -0.6162  0.2208
23975SOL    HW183903   3.205   3.469   8.353 -1.5617 -0.6357  0.3433
23975SOL    HW283904   3.230   3.401   8.219  0.6999 -0.0030  0.3986
23976SOL     OW83905   1.583   3.055   1.082  0.1666  0.3552 -0.2532
23976SOL    HW183906   1.623   2.985   1.030 -0.0881  1.0146 -1.3725
23976SOL    HW283907   1.504   3.015   1.118  0.2895 -0.0896 -0.4574
23977SOL     OW83908   9.776   6.312   8.880 -0.7819  0.4903 -0.2816
23977SOL    HW183909   9.787   6.229   8.926  0.6932  1.2403  0.8129
23977SOL    HW283910   9.749   6.374   8.947  0.6187  1.4375 -0.5404
23978SOL     OW83911   4.445   7.131   4.181  0.1921 -0.2402 -0.2800
23978SOL    HW183912   4.505   7.065   4.149  0.3503 -0.6994  0.9012
23978SOL    HW283913   4.429   7.107   4.273 -0.1996  1.0189  0.0088
23979SOL     OW83914   6.616   9.510   3.367 -0.2841  0.2481 -0.1623
23979SOL    HW183915   6.685   9.451   3.338 -0.8365 -1.2409  1.3718
23979SOL    HW283916   6.610   9.576   3.298  2.2539  0.1012 -0.6233
23980SOL     OW83917   7.465   0.265   4.657  0.3165  0.3683 -0.6567
23980SOL    HW183918   7.555   0.251   4.687  0.9232  0.0886 -2.4646
23980SOL    HW283919   7.473   0.334   4.590 -1.1774  2.0636  0.8092
23981SOL     OW83920   9.865   6.484   3.936  0.1519  0.4669  0.8118
23981SOL    HW183921   9.905   6.527   3.860  0.1990 -1.0747 -0.0743
23981SOL    HW283922   9.893   6.537   4.011  1.7415  0.9035 -0.0494
23982SOL     OW83923   9.417  10.387   8.390  0.4227  0.2928 -0.6339
23982SOL    HW183924   9.476  10.462   8.399  0.1595  0.4690 -0.3732
23982SOL    HW283925   9.457  10.334   8.321  1.5097 -0.1636  0.3012
23983SOL     OW83926   4.470   2.458   9.049 -0.0945 -0.5868 -0.3552
23983SOL    HW183927   4.539   2.418   8.997 -1.3348 -1.0190 -1.7528
23983SOL    HW283928   4.415   2.503   8.984 -0.9006  0.0765  0.7565
23984SOL     OW83929   8.975   3.063  10.040 -0.7364  0.4474 -0.4611
23984SOL    HW183930   8.923   3.130   9.996  0.2527  1.7204  0.2411
23984SOL    HW283931   8.937   3.056  10.127  0.5775  1.8217  0.2638
23985SOL     OW83932   0.557   2.348   7.837  0.1908  0.3380  0.1483
23985SOL    HW183933   0.491   2.355   7.905  0.2053 -0.3790  0.2378
23985SOL    HW283934   0.593   2.260   7.846  1.7221  0.9887  0.6097
23986SOL     OW83935   0.809   2.048   9.415  0.0113 -0.4049 -0.2124
23986SOL    HW183936   0.810   1.998   9.497  0.3905 -0.8328 -0.4751
23986SOL    HW283937   0.899   2.079   9.405 -0.1546  0.0999 -0.1985
23987SOL     OW83938   5.940   9.086   0.351 -0.2629  0.3411 -0.0203
23987SOL    HW183939   5.926   9.097   0.445 -1.3477 -1.7027  0.1014
23987SOL    HW283940   6.007   9.019   0.344  1.2240  1.8221 -0.7514
23988SOL     OW83941   6.208   0.257   4.948 -0.9210  0.0828 -0.0196
23988SOL    HW183942   6.229   0.264   4.855 -0.6948  1.0771  0.0886
23988SOL    HW283943   6.294   0.255   4.991 -0.9222 -3.2977  0.0470
23989SOL     OW83944   5.561   2.970   4.170  0.1573  0.3125 -0.0033
23989SOL    HW183945   5.590   2.946   4.082 -1.0660 -2.5201  0.2834
23989SOL    HW283946   5.636   2.950   4.227  0.0416 -0.3572 -0.0867
23990SOL     OW83947   5.161   2.765   7.207 -0.4364  0.1853  0.3465
23990SOL    HW183948   5.209   2.683   7.216 -1.2585 -0.2946  0.5502
23990SOL    HW283949   5.070   2.737   7.196 -0.7573  1.0826  0.6711
23991SOL     OW83950   2.047   1.972  10.060 -0.1493 -0.4596  0.1416
23991SOL    HW183951   2.131   1.938  10.028 -1.0111 -0.7805 -1.9084
23991SOL    HW283952   2.011   2.022   9.987 -1.6478 -0.0961  1.0705
23992SOL     OW83953   6.681   9.709   9.656  0.0753 -0.1447  0.2566
23992SOL    HW183954   6.709   9.684   9.568 -0.9086  1.3230 -0.4943
23992SOL    HW283955   6.712   9.637   9.712  1.0954 -0.8848 -1.2049
23993SOL     OW83956   2.779   2.078   5.300  0.3321 -0.9353  0.5675
23993SOL    HW183957   2.829   2.012   5.252  1.1889 -0.0969  0.2691
23993SOL    HW283958   2.784   2.051   5.392  3.0432  0.1480  0.8197
23994SOL     OW83959   2.509   8.490   4.766  0.2228 -0.1841 -0.5400
23994SOL    HW183960   2.478   8.470   4.854 -0.6375  1.0103 -0.5388
23994SOL    HW283961   2.429   8.499   4.714  0.7319 -1.8426 -1.6997
23995SOL     OW83962   5.528   3.249   1.504 -0.1303 -0.9121  0.4935
23995SOL    HW183963   5.547   3.172   1.557 -2.6475 -1.6296  0.4836
23995SOL    HW283964   5.575   3.320   1.547 -1.3230 -1.6420  3.2059
23996SOL     OW83965   0.044   9.916   2.844  0.1005 -0.0850  0.2099
23996SOL    HW183966   0.013   9.970   2.916  0.2468 -2.2020  1.9851
23996SOL    HW283967   0.134   9.946   2.828  0.4890 -0.3267  1.7614
23997SOL     OW83968   8.621   9.296   2.866  0.2371  0.5030  0.1880
23997SOL    HW183969   8.611   9.227   2.931  1.3672  1.1068  1.0498
23997SOL    HW283970   8.703   9.276   2.821 -0.3586  0.2842 -0.8412
23998SOL     OW83971  10.166  10.094  10.383  0.3718 -0.0095 -0.6448
23998SOL    HW183972  10.082  10.082  10.338  0.0210 -1.7108  0.4016
23998SOL    HW283973  10.231  10.070  10.317  0.1735  2.4501 -1.8602
23999SOL     OW83974   6.919   7.535   4.787 -0.0055 -0.0914 -0.5567
23999SOL    HW183975   6.930   7.609   4.847  1.4127 -2.0503  1.7873
23999SOL    HW283976   7.006   7.497   4.779 -0.5662 -1.1721 -2.2264
24000SOL     OW83977   2.963   4.614   7.358 -0.1558 -0.1409  0.6069
24000SOL    HW183978   3.058   4.604   7.348 -0.3103 -0.9270 -0.2534
24000SOL    HW283979   2.950   4.624   7.452  0.8570  1.0327  0.6514
24001SOL     OW83980   4.683   7.766   9.147  0.0986 -0.3033  0.0455
24001SOL    HW183981   4.613   7.739   9.207 -0.0975 -0.0002 -0.0442
24001SOL    HW283982   4.752   7.800   9.203  0.0634 -0.3560  0.1197
24002SOL     OW83983   4.009   8.521   5.380 -0.4401 -0.1865 -0.1044
24002SOL    HW183984   4.049   8.597   5.339 -1.0320 -0.0203 -0.3883
24002SOL    HW283985   3.944   8.491   5.316  0.8183 -1.8554 -0.6880
24003SOL     OW83986  10.112   1.196   8.462  0.2787  0.2504  0.2566
24003SOL    HW183987  10.190   1.148   8.433  0.2181 -0.1285  0.7129
24003SOL    HW283988  10.114   1.277   8.411  1.6879  0.8352  1.1654
24004SOL     OW83989   2.579   6.050   2.908  0.7204 -0.3063  0.3165
24004SOL    HW183990   2.635   6.106   2.854  1.3491 -0.8418  0.4148
24004SOL    HW283991   2.636   6.017   2.977 -0.2878  1.1550  1.9348
24005SOL     OW83992   1.452   1.779   0.605  0.3733 -0.2041  0.3710
24005SOL    HW183993   1.456   1.842   0.678 -1.7712  0.9703 -0.4235
24005SOL    HW283994   1.538   1.738   0.604  1.0942  1.0958  2.3812
24006SOL     OW83995   4.406  10.121   1.717 -0.3140 -0.0597  0.5306
24006SOL    HW183996   4.424  10.050   1.656 -0.5127  0.0946  0.2913
24006SOL    HW283997   4.420  10.201   1.667 -0.3340  0.0683  0.7278
24007SOL     OW83998   2.297   8.466   2.563  0.5098  0.1944  0.0297
24007SOL    HW183999   2.346   8.383   2.571 -0.5768 -0.3796  0.9176
24007SOL    HW284000   2.284   8.476   2.469 -0.4373 -1.3248 -0.0371
24008SOL     OW84001   3.479   1.381   2.842 -0.4279 -0.2112  0.9139
24008SOL    HW184002   3.553   1.419   2.890 -1.2897 -1.0297  3.0260
24008SOL    HW284003   3.519   1.320   2.780  0.7681  1.4294 -0.0237
24009SOL     OW84004   5.509   3.031   8.812 -0.2388 -0.2215  0.0606
24009SOL    HW184005   5.512   3.117   8.853 -0.3710 -0.1400 -0.1036
24009SOL    HW284006   5.595   2.992   8.832 -0.3903 -0.2730  0.6080
24010SOL     OW84007   6.185   2.482   5.771  0.3324 -0.1702 -0.1456
24010SOL    HW184008   6.148   2.396   5.792  0.4187 -0.1329  0.1716
24010SOL    HW284009   6.247   2.499   5.842  1.8439 -0.7628 -1.2575
24011SOL     OW84010   7.164   3.364   6.360  0.5745 -0.6202  0.5731
24011SOL    HW184011   7.096   3.367   6.428  0.2588 -2.1520  0.3635
24011SOL    HW284012   7.198   3.274   6.363 -0.6804 -1.3385 -2.4104
24012SOL     OW84013   8.213   8.287   8.103  0.4481  0.6642  0.5065
24012SOL    HW184014   8.252   8.200   8.094  1.0962  1.0858 -1.2036
24012SOL    HW284015   8.132   8.283   8.054  0.8029  1.1924 -0.1422
24013SOL     OW84016   3.400  10.244   7.030  0.3670 -0.4899 -0.4505
24013SOL    HW184017   3.322  10.280   7.072  0.6584  1.8005 -1.7101
24013SOL    HW284018   3.466  10.243   7.099 -0.0870 -0.0524  0.0020
24014SOL     OW84019   8.694   5.447   9.983  0.2023  0.0719 -0.3420
24014SOL    HW184020   8.778   5.400   9.989  0.7271  1.1425  2.0880
24014SOL    HW284021   8.718   5.540   9.987 -0.9932  0.5085 -2.1306
24015SOL     OW84022   2.157   9.134   7.809  0.4722 -0.2937  0.6939
24015SOL    HW184023   2.220   9.081   7.760  1.4493  1.6580 -0.2517
24015SOL    HW284024   2.211   9.195   7.860 -0.6193  0.5233  0.9076
24016SOL     OW84025   1.806   7.505   0.545  0.3695 -0.3319  0.2256
24016SOL    HW184026   1.831   7.534   0.633 -1.0074 -0.8787  0.8138
24016SOL    HW284027   1.799   7.586   0.494  1.4167 -0.0296  0.5383
24017SOL     OW84028   7.497   2.291   5.255  0.3540 -0.1696 -0.7039
24017SOL    HW184029   7.411   2.297   5.295  0.0993 -0.5014 -1.1905
24017SOL    HW284030   7.543   2.371   5.284  0.0283 -0.1884 -0.1244
24018SOL     OW84031   3.829   6.487   9.464  0.0580  1.0073  0.3206
24018SOL    HW184032   3.842   6.488   9.559 -0.2207  0.8698  0.3605
24018SOL    HW284033   3.742   6.524   9.451 -1.0023 -1.2783  0.3028
24019SOL     OW84034   0.527   8.016   5.783 -0.6052  0.3168  0.0878
24019SOL    HW184035   0.603   8.047   5.832 -1.0560  2.3493 -0.4060
24019SOL    HW284036   0.563   7.956   5.718  0.5045  0.7308  0.3024
24020SOL     OW84037   5.827   3.060   6.841  1.0680  0.5218 -0.2500
24020SOL    HW184038   5.859   3.150   6.846  2.3651  0.0068  3.0874
24020SOL    HW284039   5.845   3.023   6.927 -2.4143 -1.9861 -0.3962
24021SOL     OW84040   7.254   0.976   4.449  0.2845 -0.0949 -0.8451
24021SOL    HW184041   7.272   1.065   4.419 -1.0777 -0.0098 -1.4909
24021SOL    HW284042   7.222   0.986   4.538 -0.6694  0.1525 -1.2085
24022SOL     OW84043  10.160   2.416   2.451  0.1595  0.4134 -0.0870
24022SOL    HW184044  10.139   2.331   2.490 -0.2198  1.6639  2.6814
24022SOL    HW284045  10.219   2.457   2.514  0.0462  2.3486 -1.1723
24023SOL     OW84046   9.724   3.330   3.964  0.5127  0.4646  0.7290
24023SOL    HW184047   9.795   3.308   4.024 -1.2035  0.9362  3.1110
24023SOL    HW284048   9.711   3.424   3.974 -0.1962  0.4569  0.0548
24024SOL     OW84049   8.566   6.915   9.991 -0.3735 -0.8485 -0.2398
24024SOL    HW184050   8.541   6.950   9.905 -0.3316 -0.0433  0.0647
24024SOL    HW284051   8.502   6.952  10.052  0.2103 -0.5793  0.2227
24025SOL     OW84052   9.837   3.059   7.695  0.4126 -0.4605  0.5623
24025SOL    HW184053   9.821   3.052   7.789 -1.3899 -0.9724  0.2443
24025SOL    HW284054   9.789   3.137   7.668  1.2442 -0.0911  0.1175
24026SOL     OW84055   6.083   8.656   2.372  0.1943  0.2927 -0.8139
24026SOL    HW184056   6.175   8.646   2.348  0.3174 -2.3792  0.4035
24026SOL    HW284057   6.083   8.662   2.468 -0.9357 -1.2539 -0.6683
24027SOL     OW84058   9.297   2.789   5.825 -0.4012  0.2982  0.1586
24027SOL    HW184059   9.259   2.812   5.910 -0.6380  0.1416  0.0955
24027SOL    HW284060   9.222   2.773   5.768 -0.4038  3.5297 -1.0029
24028SOL     OW84061   8.677   2.188   7.107  0.8837  0.1128  0.2275
24028SOL    HW184062   8.654   2.265   7.160  1.1012  0.6569 -0.4420
24028SOL    HW284063   8.623   2.196   7.028  1.2478 -0.1658 -0.0532
24029SOL     OW84064   6.992   9.475   7.459  0.6135  0.0403  0.0889
24029SOL    HW184065   6.961   9.550   7.510  0.2544 -1.7836  2.8217
24029SOL    HW284066   7.020   9.512   7.376  0.1087  3.1197  1.1484
24030SOL     OW84067   2.508   9.920   8.003 -0.3404 -0.5259 -0.3722
24030SOL    HW184068   2.517   9.881   7.917 -1.2889 -0.8317 -0.3467
24030SOL    HW284069   2.417   9.952   8.005 -0.1684 -0.0646  0.3164
24031SOL     OW84070   5.379   8.135   6.799 -0.3635  0.3843  0.2900
24031SOL    HW184071   5.403   8.177   6.716 -0.9122  0.0600 -0.0425
24031SOL    HW284072   5.293   8.096   6.781 -0.6359  0.5891  1.1097
24032SOL     OW84073   7.698   0.021   2.079 -0.3602  0.4092  0.0407
24032SOL    HW184074   7.779   0.070   2.092 -0.2750  0.7721 -1.6293
24032SOL    HW284075   7.671   0.043   1.990 -0.9552 -1.6487 -0.3374
24033SOL     OW84076   7.779   9.943   0.279 -0.4595 -0.0914  0.3296
24033SOL    HW184077   7.704   9.893   0.311 -2.4796  1.2701 -1.9165
24033SOL    HW284078   7.767  10.030   0.316  0.1569  0.0554  0.1852
24034SOL     OW84079   2.994   1.822   4.797 -0.5326  0.6123 -0.4583
24034SOL    HW184080   2.983   1.728   4.812 -1.5998  0.9544  1.0838
24034SOL    HW284081   2.910   1.851   4.765  0.1089  0.8875 -1.9433
24035SOL     OW84082   8.862   0.910   7.876  0.5465 -0.4352 -0.6087
24035SOL    HW184083   8.912   0.990   7.890  1.1078 -0.2477 -3.1798
24035SOL    HW284084   8.775   0.929   7.910  0.4485  1.5732 -1.8452
24036SOL     OW84085   0.026   9.383   3.010 -0.1451 -0.1115 -0.2710
24036SOL    HW184086   0.042   9.476   2.990  2.3484 -0.4334 -0.1176
24036SOL    HW284087  -0.063   9.381   3.045  0.6012  2.6453  2.1895
24037SOL     OW84088   3.131   5.347   9.097 -0.3652  0.8012 -0.3517
24037SOL    HW184089   3.069   5.383   9.033 -0.4143  2.6836  0.6778
24037SOL    HW284090   3.076   5.318   9.169 -0.2219 -0.1525 -0.6168
24038SOL     OW84091   0.128   7.792  10.162 -0.4836  0.0506 -0.5807
24038SOL    HW184092   0.195   7.816  10.099  0.6872 -0.8226  0.2938
24038SOL    HW284093   0.154   7.835  10.244  1.2703 -3.2709  0.8299
24039SOL     OW84094   6.588   0.419   0.427 -0.0766  0.3029  0.1836
24039SOL    HW184095   6.617   0.453   0.342  0.1449  2.4589  1.0490
24039SOL    HW284096   6.504   0.377   0.408 -0.1319  0.9072 -1.0864
24040SOL     OW84097   3.574   7.027   4.327 -0.1554 -0.4564  0.3900
24040SOL    HW184098   3.552   7.053   4.238  1.9577  0.2533  0.0039
24040SOL    HW284099   3.639   6.957   4.316  1.7703  1.0805  1.2523
24041SOL     OW84100  10.205   1.529   1.554  0.1206  0.2423  0.2742
24041SOL    HW184101  10.298   1.516   1.571 -0.2115 -2.5671  0.3662
24041SOL    HW284102  10.166   1.544   1.640  0.2666 -0.3143  0.4398
24042SOL     OW84103   2.263   3.950   1.010 -0.4103  0.1370 -0.3393
24042SOL    HW184104   2.343   3.992   1.039 -0.8564  0.4593  0.4683
24042SOL    HW284105   2.193   3.994   1.059 -0.8804 -1.6808  0.7713
24043SOL     OW84106   2.414   6.079   6.396  0.1919 -0.1935  0.3036
24043SOL    HW184107   2.507   6.065   6.379  0.4350 -0.8852  1.9967
24043SOL    HW284108   2.412   6.138   6.472 -0.8186  2.7544 -1.8497
24044SOL     OW84109   5.559   1.573   8.026  0.2625 -0.4923 -0.2738
24044SOL    HW184110   5.612   1.643   8.062 -1.5438  0.3148  0.9638
24044SOL    HW284111   5.610   1.493   8.041  0.9341  0.1885  1.2469
24045SOL     OW84112   0.841   3.543   0.882  0.1201  0.2646  0.0376
24045SOL    HW184113   0.882   3.628   0.862 -0.2386  0.9143  1.8372
24045SOL    HW284114   0.749   3.564   0.895 -0.6694 -1.0030 -2.8022
24046SOL     OW84115   5.460   4.308   7.391 -0.5328  0.1153 -0.6429
24046SOL    HW184116   5.478   4.348   7.475  1.9167 -1.8345 -0.0916
24046SOL    HW284117   5.443   4.381   7.332 -1.5941  1.5566  1.3559
24047SOL     OW84118   7.791   7.077   5.256  0.4755 -0.2962 -0.1535
24047SOL    HW184119   7.851   7.023   5.308  0.5452 -0.5679 -0.5156
24047SOL    HW284120   7.785   7.032   5.172 -0.6941 -0.6047  0.0672
24048SOL     OW84121   1.817   9.791   5.887 -0.5301  0.0901  0.2793
24048SOL    HW184122   1.770   9.727   5.834  0.6923 -0.9258  0.3539
24048SOL    HW284123   1.811   9.757   5.977 -0.5280  0.4986  0.4362
24049SOL     OW84124   0.234   7.142   1.303 -0.1328  0.1079 -0.0583
24049SOL    HW184125   0.195   7.150   1.391 -0.1680 -0.7055  0.0073
24049SOL    HW284126   0.160   7.121   1.246 -0.2272  1.3083 -0.4197
24050SOL     OW84127   4.770   2.878   5.437  0.2321  0.1916 -0.2884
24050SOL    HW184128   4.729   2.930   5.506  0.2320  0.0562 -0.1866
24050SOL    HW284129   4.840   2.831   5.481 -1.1039 -1.5493  0.0710
24051SOL     OW84130   6.034   3.783   7.789 -0.0958  0.5312 -0.5436
24051SOL    HW184131   6.054   3.700   7.831 -1.7804 -0.5664 -1.8080
24051SOL    HW284132   6.088   3.847   7.836  2.4639 -1.4555 -0.5520
24052SOL     OW84133   5.066   0.032   1.453  0.2272  0.1962 -0.1759
24052SOL    HW184134   5.103   0.004   1.369  1.3659  2.0783 -0.3594
24052SOL    HW284135   5.142   0.049   1.508 -0.4899  0.3431  0.7879
24053SOL     OW84136   9.460   5.825   8.159 -0.7534  0.3145 -0.1838
24053SOL    HW184137   9.548   5.807   8.192 -0.1888  0.9457 -1.2854
24053SOL    HW284138   9.462   5.918   8.137 -1.5023  0.1888 -0.7917
24054SOL     OW84139   0.747   9.491   8.765  0.3615 -0.3202 -0.0414
24054SOL    HW184140   0.798   9.488   8.846 -0.7759  1.3395  0.8065
24054SOL    HW284141   0.699   9.408   8.765 -0.2197 -0.0291  1.4399
24055SOL     OW84142   9.727   2.338   7.900 -0.1446  0.0027  0.0373
24055SOL    HW184143   9.759   2.415   7.852  0.0006  0.8782  1.4452
24055SOL    HW284144   9.807   2.292   7.926 -0.1044  0.6550  1.1480
24056SOL     OW84145   6.406   5.649   6.405 -0.3591  0.1590  1.0393
24056SOL    HW184146   6.496   5.632   6.431  0.9572  1.7914 -1.9964
24056SOL    HW284147   6.387   5.735   6.443 -0.7613 -0.2768  1.8563
24057SOL     OW84148   5.677   2.678   7.499  0.0847  0.3685 -0.1672
24057SOL    HW184149   5.650   2.596   7.456 -0.8980  0.6214 -0.0542
24057SOL    HW284150   5.773   2.679   7.490  0.0375 -0.3814 -0.9037
24058SOL     OW84151   2.478   8.112   0.583 -0.6084 -0.0123  0.4072
24058SOL    HW184152   2.463   8.205   0.599 -0.1502  0.0691  0.3676
24058SOL    HW284153   2.564   8.108   0.542 -0.8185 -0.4171  0.0010
24059SOL     OW84154   5.051   1.877   8.586 -0.3394 -0.0773  0.5487
24059SOL    HW184155   4.990   1.806   8.566  0.9279 -1.3102  0.8744
24059SOL    HW284156   5.011   1.955   8.547 -0.8111 -1.3107 -1.5943
24060SOL     OW84157   1.374   2.118   0.745 -0.1335 -0.0443 -0.1904
24060SOL    HW184158   1.372   2.199   0.796  0.3545  0.6168 -1.1864
24060SOL    HW284159   1.402   2.051   0.807 -2.2589  0.1784  1.1050
24061SOL     OW84160   3.752   6.257   8.296 -0.2297 -0.2467 -0.4945
24061SOL    HW184161   3.848   6.251   8.295 -0.1852  0.4147 -1.3929
24061SOL    HW284162   3.729   6.275   8.205 -1.3897 -2.8540 -0.8188
24062SOL     OW84163   6.939   8.824   9.830  0.5251 -0.3745  0.1268
24062SOL    HW184164   6.954   8.748   9.774 -2.5345 -0.4150 -0.8194
24062SOL    HW284165   6.913   8.786   9.915  1.2555 -0.3475  0.3661
24063SOL     OW84166   8.109   7.903   8.248  0.0277 -0.0291 -0.1209
24063SOL    HW184167   8.188   7.945   8.215 -0.0569  1.5945  1.6475
24063SOL    HW284168   8.140   7.839   8.312 -0.0996  1.3182  1.3248
24064SOL     OW84169   3.308   7.524   5.429  0.1017  0.0053  0.4987
24064SOL    HW184170   3.282   7.470   5.504  0.3734 -0.1706  0.4647
24064SOL    HW284171   3.227   7.568   5.402 -0.2078 -0.6756  0.2916
24065SOL     OW84172   6.911   4.989   5.442  0.5232 -0.1611 -0.3534
24065SOL    HW184173   6.996   5.028   5.422  0.0671  1.1016  0.0527
24065SOL    HW284174   6.901   4.918   5.379  1.8721 -0.3194 -0.4063
24066SOL     OW84175   6.569   8.343   9.667 -0.2135  0.4413 -0.1563
24066SOL    HW184176   6.576   8.296   9.584 -1.3077 -0.4352  0.2209
24066SOL    HW284177   6.507   8.291   9.719  3.3448 -1.3627  2.7422
24067SOL     OW84178   8.388   5.465   7.093  0.3421 -0.7293  0.6386
24067SOL    HW184179   8.425   5.417   7.167  1.4642  0.1763  0.6895
24067SOL    HW284180   8.294   5.471   7.113  0.5758 -0.7990  1.8185
24068SOL     OW84181   0.070   5.123   4.970  0.5350  0.2543  0.2930
24068SOL    HW184182   0.010   5.198   4.974  0.5995  0.2775  1.0275
24068SOL    HW284183   0.097   5.119   4.879 -1.6695 -0.6239 -0.4037
24069SOL     OW84184   0.632   9.082   2.093  1.1238  0.2005  0.4709
24069SOL    HW184185   0.690   9.127   2.032  0.1831  0.5427 -0.1837
24069SOL    HW284186   0.572   9.032   2.037  0.7262 -0.0739  1.1291
24070SOL     OW84187   6.475   3.052   9.613 -0.2849  0.1641 -0.0849
24070SOL    HW184188   6.443   2.971   9.572  1.0855 -0.7220  0.5106
24070SOL    HW284189   6.523   3.097   9.544  1.4166 -0.9779  0.3077
24071SOL     OW84190   0.574   3.638   1.138 -0.3795 -0.0912  0.2216
24071SOL    HW184191   0.573   3.624   1.232 -1.7877  1.2777  0.4485
24071SOL    HW284192   0.500   3.586   1.105  1.4448 -2.4431 -0.5095
24072SOL     OW84193   9.122   2.348   0.232 -0.2046  0.6766 -0.1269
24072SOL    HW184194   9.176   2.357   0.154  1.3538  2.0798  1.0348
24072SOL    HW284195   9.131   2.256   0.256 -0.2150  0.3677 -1.2541
24073SOL     OW84196   0.835   6.469   9.993 -0.2469 -0.3659 -0.0393
24073SOL    HW184197   0.862   6.559  10.013  1.8098 -0.9834  0.2600
24073SOL    HW284198   0.834   6.425  10.079  3.1154 -1.6397 -0.4752
24074SOL     OW84199   1.918   5.169   4.451  0.0897 -0.7495 -0.2508
24074SOL    HW184200   2.013   5.170   4.437 -0.0474  0.0074 -1.2063
24074SOL    HW284201   1.905   5.221   4.530  0.4425 -0.6251 -0.2723
24075SOL     OW84202   8.304   5.156   9.865  0.1812  0.4998 -0.1988
24075SOL    HW184203   8.350   5.145   9.782 -1.0682  1.0394 -1.0061
24075SOL    HW284204   8.370   5.190   9.925  1.4146 -1.0526 -0.6001
24076SOL     OW84205   7.765   9.126   4.469 -0.5488  0.1194 -0.1220
24076SOL    HW184206   7.789   9.056   4.408  0.1381 -0.1777  0.4861
24076SOL    HW284207   7.846   9.150   4.512 -0.5667  1.9948 -1.0138
24077SOL     OW84208   7.314   0.500   9.822 -0.1981 -0.4749  0.6128
24077SOL    HW184209   7.364   0.582   9.826 -0.0004 -0.6269  1.3685
24077SOL    HW284210   7.374   0.434   9.858 -0.2623 -1.0034 -0.2266
24078SOL     OW84211   6.144   9.546   2.992 -0.4809 -0.2284  1.0308
24078SOL    HW184212   6.152   9.453   3.013  1.0709 -0.1745  0.8136
24078SOL    HW284213   6.231   9.570   2.959 -1.2421  0.9744 -0.2174
24079SOL     OW84214   3.637   3.650   6.340  0.0787  0.5336  0.1046
24079SOL    HW184215   3.639   3.595   6.262  0.2745  2.4439 -1.3092
24079SOL    HW284216   3.729   3.672   6.357  0.1017 -0.3391  1.2738
24080SOL     OW84217   5.275   6.254   2.939  0.0770  0.3672  0.3535
24080SOL    HW184218   5.192   6.241   2.985  0.2005  0.4723  0.6055
24080SOL    HW284219   5.339   6.206   2.991 -0.0333 -0.8070 -0.5327
24081SOL     OW84220   9.455   8.999   8.342 -0.3205 -0.2526  0.5814
24081SOL    HW184221   9.426   8.954   8.421  1.2859 -0.8551  0.8738
24081SOL    HW284222   9.491   8.930   8.286 -1.4837  0.1516 -0.7320
24082SOL     OW84223   5.961   2.020   0.739  0.6146  0.5139  0.2390
24082SOL    HW184224   5.867   2.003   0.746  0.7796 -0.7183 -0.0992
24082SOL    HW284225   5.993   2.020   0.829  0.6130 -1.3555  0.2901
24083SOL     OW84226   9.671   8.387   9.487 -0.0272 -0.3728  0.1387
24083SOL    HW184227   9.745   8.440   9.458  1.0864 -1.5415  0.7481
24083SOL    HW284228   9.691   8.298   9.457 -1.7136 -0.5478 -0.6091
24084SOL     OW84229   5.103   9.456   7.555 -0.0126 -0.5912 -0.0056
24084SOL    HW184230   5.105   9.401   7.476 -0.0123  1.9516 -1.8952
24084SOL    HW284231   5.073   9.541   7.524 -0.3327  0.4300  2.8532
24085SOL     OW84232   2.227   3.056   5.138 -0.2240 -0.2417  0.5050
24085SOL    HW184233   2.132   3.048   5.126 -0.2107  0.5107 -0.1888
24085SOL    HW284234   2.263   2.977   5.097 -0.5417 -0.5110  0.7371
24086SOL     OW84235   3.074   3.266   5.552  0.5989  0.1679  0.3904
24086SOL    HW184236   2.993   3.288   5.507 -0.2194  0.5940  1.9814
24086SOL    HW284237   3.087   3.337   5.615  1.8262 -0.2508  0.6375
24087SOL     OW84238   9.650   0.505   2.728  0.1528 -0.5744 -0.0435
24087SOL    HW184239   9.719   0.448   2.763 -0.2023 -1.9079 -1.3845
24087SOL    HW284240   9.593   0.446   2.678  0.5195  1.0918 -2.6486
24088SOL     OW84241   4.036  10.323   2.449 -0.3295  0.1571 -0.1911
24088SOL    HW184242   4.026  10.388   2.519  1.6312  0.3891 -0.0809
24088SOL    HW284243   4.126  10.291   2.459 -0.4985 -0.8690 -1.7146
24089SOL     OW84244   4.171   9.951   3.732 -0.6408 -0.3985 -0.2511
24089SOL    HW184245   4.076   9.958   3.741 -0.4223  1.0636  1.4869
24089SOL    HW284246   4.199  10.036   3.698  0.3613  0.8692  3.2785
24090SOL     OW84247   3.977   2.556   6.038 -0.1145 -0.1953 -0.2494
24090SOL    HW184248   4.045   2.541   6.104 -1.9077  0.4260  1.8526
24090SOL    HW284249   4.024   2.593   5.963  1.7806  0.9533  1.4021
24091SOL     OW84250   8.593   8.192   6.674  0.0430  0.1909 -0.1402
24091SOL    HW184251   8.685   8.198   6.702  0.0126  1.1750 -0.2396
24091SOL    HW284252   8.565   8.106   6.705  1.5495 -0.9658 -1.7415
24092SOL     OW84253   2.334   8.794   5.856 -0.1297 -0.2945  0.0232
24092SOL    HW184254   2.266   8.828   5.913  0.7759 -0.3841  1.1843
24092SOL    HW284255   2.292   8.721   5.810 -0.5737 -0.8944  1.3439
24093SOL     OW84256   7.455   7.513   1.437 -0.5637  0.0206 -0.1626
24093SOL    HW184257   7.499   7.596   1.454 -1.9800  0.4726  1.4838
24093SOL    HW284258   7.364   7.536   1.420 -1.2421 -1.2494  1.5202
24094SOL     OW84259   5.065   2.405   8.578 -0.4036  0.5612  0.4359
24094SOL    HW184260   5.036   2.448   8.498 -0.9923  0.2002  0.4494
24094SOL    HW284261   5.021   2.320   8.577  0.2484  0.2091  0.7228
24095SOL     OW84262   4.405   9.673   1.737  0.2559  0.3783 -0.1710
24095SOL    HW184263   4.429   9.642   1.649  2.6681 -0.0721  0.5697
24095SOL    HW284264   4.462   9.748   1.752  0.3693  0.0368  1.2403
24096SOL     OW84265   1.508   2.174   3.575  0.1323 -0.2585 -0.5761
24096SOL    HW184266   1.604   2.167   3.570  0.2263  1.4167 -2.2832
24096SOL    HW284267   1.494   2.258   3.621 -0.5737 -1.1042  0.8227
24097SOL     OW84268   8.756   2.817   1.600  0.3887 -0.7664 -1.0267
24097SOL    HW184269   8.815   2.805   1.525  0.3528  0.0173 -1.1920
24097SOL    HW284270   8.779   2.746   1.660 -0.8381 -2.5326 -2.5473
24098SOL     OW84271   5.164   3.151   8.054 -0.2309 -0.4521 -0.5344
24098SOL    HW184272   5.239   3.094   8.035  1.0879  1.0028  0.0533
24098SOL    HW284273   5.163   3.212   7.981 -1.2721 -0.8502 -0.8633
24099SOL     OW84274   0.835   1.990   8.554  0.0992  0.2814 -0.2177
24099SOL    HW184275   0.783   2.070   8.555  0.8280  0.7746 -0.6605
24099SOL    HW284276   0.841   1.966   8.462  0.4565  0.1085 -0.1534
24100SOL     OW84277   6.928   3.090   9.476  0.4390 -0.4705  0.0728
24100SOL    HW184278   6.910   3.002   9.444  0.4928 -0.1372 -0.9048
24100SOL    HW284279   7.020   3.105   9.456  0.6920 -0.5420  1.1178
24101SOL     OW84280   8.245   5.646   1.895  0.4639 -0.5781 -0.2596
24101SOL    HW184281   8.295   5.565   1.910  1.0322 -0.3229 -0.7453
24101SOL    HW284282   8.312   5.712   1.876  0.0067  0.0281  0.1896
24102SOL     OW84283   7.770   9.655   0.871  0.0760 -0.8167  0.6280
24102SOL    HW184284   7.807   9.740   0.895 -0.4768 -0.3067 -0.2920
24102SOL    HW284285   7.774   9.652   0.776 -3.3992 -0.1433  0.3272
24103SOL     OW84286   1.643   5.143   5.240 -0.1031  0.1355 -0.1203
24103SOL    HW184287   1.660   5.190   5.158 -1.7919  1.1821  0.0680
24103SOL    HW284288   1.690   5.192   5.307  0.2210  0.0462 -0.2829
24104SOL     OW84289   3.011   8.216   6.683  0.2504 -0.4744  0.2161
24104SOL    HW184290   3.038   8.237   6.772  3.1272 -2.5290 -0.0415
24104SOL    HW284291   3.056   8.135   6.663 -0.0981  0.0405 -3.2237
24105SOL     OW84292  10.261   8.531   7.657 -0.3328  0.1512  0.3210
24105SOL    HW184293  10.233   8.471   7.726 -1.0979  0.7247  0.5289
24105SOL    HW284294  10.215   8.613   7.677 -0.6081  0.3180 -0.8968
24106SOL     OW84295   7.042   9.361   6.250 -0.6449  0.3952  1.0217
24106SOL    HW184296   7.069   9.452   6.264  0.4130  0.0017  1.6314
24106SOL    HW284297   7.097   9.310   6.309 -0.8594 -0.7044  0.3056
24107SOL     OW84298   5.766   6.613   6.430 -0.2506  0.7027 -0.2102
24107SOL    HW184299   5.696   6.628   6.366 -0.8892 -1.4808 -0.0863
24107SOL    HW284300   5.823   6.689   6.420 -0.6362  0.7469 -2.9885
24108SOL     OW84301   0.878   1.294   5.474  0.0200  0.0728  0.7822
24108SOL    HW184302   0.892   1.389   5.474  0.1476  0.0600 -0.0169
24108SOL    HW284303   0.787   1.284   5.504  0.0893  0.4328  1.1229
24109SOL     OW84304   9.003   2.096   1.832 -0.3092  0.4433  0.2365
24109SOL    HW184305   8.990   2.183   1.872 -0.2156  0.0860  1.0602
24109SOL    HW284306   9.035   2.042   1.903 -0.1812 -0.2295 -0.3265
24110SOL     OW84307   8.063   5.869   7.593 -0.3533  0.3843  0.4763
24110SOL    HW184308   8.068   5.809   7.668 -0.6669  0.1414  0.3061
24110SOL    HW284309   7.980   5.915   7.604 -0.8100 -0.2631 -0.1705
24111SOL     OW84310   7.537   5.215   0.251 -0.0624  0.2326 -0.5373
24111SOL    HW184311   7.490   5.138   0.219  1.9755 -1.0926 -0.5258
24111SOL    HW284312   7.469   5.275   0.281 -1.6924 -2.9111  2.6768
24112SOL     OW84313   8.289   9.509   8.600  0.1888  0.1642  0.5420
24112SOL    HW184314   8.317   9.567   8.529  0.0645 -1.5577 -1.0007
24112SOL    HW284315   8.358   9.443   8.605 -0.6767 -0.7493  0.7737
24113SOL     OW84316   0.123   1.185   5.627 -0.3786  0.0121  0.2506
24113SOL    HW184317   0.077   1.105   5.604  0.0968 -0.1009 -0.3634
24113SOL    HW284318   0.072   1.224   5.698  0.2144 -1.6053  1.6331
24114SOL     OW84319   2.173   9.185   3.191  0.4334 -0.5516 -0.3103
24114SOL    HW184320   2.083   9.155   3.202  0.1115 -0.7757 -2.9275
24114SOL    HW284321   2.165   9.279   3.175  0.4673 -0.7848 -1.9161
24115SOL     OW84322   2.265   5.455   6.781  0.0180  1.0817  0.3889
24115SOL    HW184323   2.274   5.535   6.729  0.1290  1.8824  1.6072
24115SOL    HW284324   2.354   5.425   6.795  0.0906  1.7225  1.3879
24116SOL     OW84325   3.786   1.898   2.732 -0.3755  0.4685 -0.5366
24116SOL    HW184326   3.836   1.962   2.682 -0.9936  0.1399 -1.6070
24116SOL    HW284327   3.826   1.899   2.819 -0.0130  1.8852 -0.6939
24117SOL     OW84328   2.344   7.994   5.159  0.2078  0.4263 -0.0283
24117SOL    HW184329   2.307   7.957   5.079 -1.7741  1.3455  0.3956
24117SOL    HW284330   2.272   7.988   5.223  1.2727  1.0094  1.2702
24118SOL     OW84331   1.380   4.121   7.739 -0.3451 -0.0305  0.4029
24118SOL    HW184332   1.291   4.148   7.759  0.3488  3.2815 -0.3521
24118SOL    HW284333   1.382   4.109   7.644 -0.4117 -2.1300  0.6269
24119SOL     OW84334   7.147   0.235   8.521 -0.2385  0.3544  0.1235
24119SOL    HW184335   7.209   0.175   8.561  0.3989  0.0534 -1.2584
24119SOL    HW284336   7.115   0.289   8.593  3.5428  2.2796  0.5624
24120SOL     OW84337   8.010   8.006   4.387 -0.1709 -0.0531 -0.2289
24120SOL    HW184338   7.993   7.945   4.316 -2.3077  1.3357 -1.0236
24120SOL    HW284339   8.069   8.071   4.349 -0.0218 -0.1900 -0.2303
24121SOL     OW84340   2.527   4.965   9.123 -0.6897 -0.2012 -0.1036
24121SOL    HW184341   2.518   4.875   9.094 -0.5139 -0.8679  1.8177
24121SOL    HW284342   2.584   4.961   9.200  0.7819  1.7619 -0.9728
24122SOL     OW84343   9.701   4.680   7.978  0.2688 -0.2188  0.0750
24122SOL    HW184344   9.791   4.654   7.956  0.7567  0.9082  0.6274
24122SOL    HW284345   9.678   4.744   7.911 -0.0537 -0.3777  0.0352
24123SOL     OW84346   8.071   2.952   3.251  0.0341 -0.1185  0.4879
24123SOL    HW184347   8.118   2.871   3.268  0.3962  0.1741  0.9117
24123SOL    HW284348   7.987   2.924   3.215  0.7260 -0.6335 -0.7796
24124SOL     OW84349   3.114   8.932   9.464 -0.1531 -0.1008  0.0610
24124SOL    HW184350   3.050   8.956   9.398 -0.3683  1.0635  0.6729
24124SOL    HW284351   3.076   8.856   9.508 -1.8435  1.4208  1.3650
24125SOL     OW84352   8.379   9.498   3.110  0.0414  0.7874 -0.0951
24125SOL    HW184353   8.438   9.461   3.176  0.5782  0.8677 -0.5283
24125SOL    HW284354   8.429   9.569   3.070 -0.4127  0.9654 -0.3520
24126SOL     OW84355  10.138   7.230   0.975  0.1079  0.0799 -0.3892
24126SOL    HW184356  10.197   7.156   0.964 -1.6038 -1.2834 -1.0185
24126SOL    HW284357  10.065   7.211   0.915 -1.4595  1.1150  1.0913
24127SOL     OW84358   0.692   9.461   0.654  0.5619  0.1938  0.3038
24127SOL    HW184359   0.694   9.367   0.670  2.5004  0.5398  2.6568
24127SOL    HW284360   0.758   9.475   0.586  1.0581 -0.0508  0.7269
24128SOL     OW84361   2.727   5.543  10.123  0.6373  0.2566  0.3498
24128SOL    HW184362   2.655   5.522  10.183  1.6781 -1.9827  0.9127
24128SOL    HW284363   2.685   5.550  10.037 -0.4650  0.7371  0.8996
24129SOL     OW84364   8.635   9.825  10.018  0.1893 -0.0245  0.1809
24129SOL    HW184365   8.674   9.806   9.932 -0.0237  0.9141 -0.1309
24129SOL    HW284366   8.591   9.744  10.042 -1.1374  0.1950 -1.3646
24130SOL     OW84367   3.813   4.431   0.909  0.2804 -0.2352 -0.4929
24130SOL    HW184368   3.737   4.488   0.912 -0.0269 -0.6001  2.9669
24130SOL    HW284369   3.888   4.490   0.918  0.3664  0.0012 -2.4529
24131SOL     OW84370   3.041   3.199   4.160 -0.2716  0.3130 -0.3481
24131SOL    HW184371   2.957   3.197   4.207 -0.3955  1.0074 -0.5327
24131SOL    HW284372   3.064   3.107   4.148  0.4107  0.0884  2.2054
24132SOL     OW84373   4.019   8.029   0.494 -0.7325 -0.5925 -1.0337
24132SOL    HW184374   4.022   8.071   0.580 -0.3998 -3.5638  0.5366
24132SOL    HW284375   4.006   8.101   0.433 -3.1919  1.4737  1.6278
24133SOL     OW84376   0.364   4.604   8.995 -0.1739 -0.0846  0.3120
24133SOL    HW184377   0.299   4.559   8.941 -1.2025  0.0059  1.4276
24133SOL    HW284378   0.357   4.696   8.970  1.6549 -0.4054 -1.6872
24134SOL     OW84379   1.062   5.280   9.435 -0.5350  0.1667 -0.4761
24134SOL    HW184380   1.112   5.300   9.356 -1.9199 -0.2990 -1.5107
24134SOL    HW284381   1.035   5.366   9.467  1.0430  0.4383  0.2125
24135SOL     OW84382   5.192   9.778   0.942  0.0975  0.0557  0.3666
24135SOL    HW184383   5.213   9.768   1.035 -0.7290  1.3868  0.7282
24135SOL    HW284384   5.112   9.727   0.930 -2.1811  3.0580  1.4191
24136SOL     OW84385   9.176   1.565   8.877  0.7602  0.6021  0.0229
24136SOL    HW184386   9.132   1.479   8.879 -0.0077  0.9872  0.0462
24136SOL    HW284387   9.211   1.571   8.789  3.1718 -0.8674  0.7662
24137SOL     OW84388   1.338   5.434   3.405  0.0920  0.4693  0.2729
24137SOL    HW184389   1.417   5.382   3.415 -0.4304 -0.0693  2.0362
24137SOL    HW284390   1.272   5.372   3.374 -0.5253  0.0001  2.3559
24138SOL     OW84391   5.718   8.086   0.889 -0.1805  0.4711 -0.1550
24138SOL    HW184392   5.778   8.157   0.866  0.2675 -0.3625 -1.7410
24138SOL    HW284393   5.649   8.129   0.940 -0.8656  2.4294 -2.5043
24139SOL     OW84394   6.611   1.396   2.925  0.4880  0.1321 -0.0132
24139SOL    HW184395   6.588   1.372   2.835  0.7667 -0.4985  0.0743
24139SOL    HW284396   6.695   1.352   2.940  0.7361  0.7212  0.3562
24140SOL     OW84397   5.841   8.692   5.342 -0.4965 -0.3918 -0.1480
24140SOL    HW184398   5.780   8.685   5.268  0.5858  1.3287 -1.2674
24140SOL    HW284399   5.926   8.669   5.305  0.0273  0.2923  0.6174
24141SOL     OW84400  10.151   9.145   0.516  1.2349  0.4652 -0.1873
24141SOL    HW184401  10.204   9.072   0.548  1.3369  0.9677  0.8314
24141SOL    HW284402  10.201   9.224   0.541 -0.0668  0.9602  1.0082
24142SOL     OW84403   7.618   7.405   1.267 -0.2637  0.2351  0.3145
24142SOL    HW184404   7.550   7.455   1.312  0.4097  2.4114 -0.8988
24142SOL    HW284405   7.608   7.430   1.175  1.2511 -0.5300 -0.0881
24143SOL     OW84406   1.565   3.792   4.835  0.0244  0.3111 -0.5168
24143SOL    HW184407   1.603   3.779   4.748 -0.1725  1.4417 -0.7865
24143SOL    HW284408   1.499   3.723   4.843  0.1452  0.1101 -1.2055
24144SOL     OW84409   4.948   5.104   3.767 -0.7043  0.4239 -0.2477
24144SOL    HW184410   4.856   5.131   3.760 -0.3429  2.0792  0.7490
24144SOL    HW284411   4.997   5.177   3.730  0.2393  0.0646  0.2708
24145SOL     OW84412   5.925   8.119   2.269  0.7553 -0.0398  0.2788
24145SOL    HW184413   5.901   8.040   2.316 -0.1279 -0.5364 -0.9309
24145SOL    HW284414   6.019   8.111   2.254  0.9946 -0.0100  1.6475
24146SOL     OW84415   9.176   9.142  10.058 -0.6542 -0.1475  0.3900
24146SOL    HW184416   9.143   9.210  10.117  0.3259  0.6132  0.0969
24146SOL    HW284417   9.207   9.191   9.981  1.5741 -0.7464  0.8400
24147SOL     OW84418   3.809   0.194   4.044 -0.8585 -0.1048 -0.7705
24147SOL    HW184419   3.869   0.235   4.107 -1.1502  0.3693 -0.7895
24147SOL    HW284420   3.751   0.266   4.017 -1.7161 -0.6596 -0.4146
24148SOL     OW84421   0.010   8.829   6.717 -0.2954 -0.4421 -0.0127
24148SOL    HW184422   0.084   8.891   6.714  0.1565 -0.8209  1.8481
24148SOL    HW284423  -0.003   8.803   6.626  0.6838  1.0166 -0.6100
24149SOL     OW84424   2.200   5.171   9.343  0.1789  0.2366  0.5324
24149SOL    HW184425   2.225   5.263   9.338  0.3753  0.2395  1.3616
24149SOL    HW284426   2.134   5.160   9.274  1.3337  0.5924 -0.6704
24150SOL     OW84427   2.416   7.603   7.350  0.0800 -0.0965 -0.6763
24150SOL    HW184428   2.430   7.676   7.289  0.9168  0.4691  0.1616
24150SOL    HW284429   2.501   7.592   7.393 -0.2903 -0.9834 -0.1518
24151SOL     OW84430   5.858   0.452   8.773 -0.6209  0.6067 -0.2707
24151SOL    HW184431   5.876   0.533   8.821 -3.4860  1.6378 -0.7572
24151SOL    HW284432   5.805   0.400   8.833 -1.5308  0.5233 -1.1233
24152SOL     OW84433   8.030  10.010   6.017  0.1136  0.6031  0.3274
24152SOL    HW184434   8.095  10.071   6.051 -0.5670  0.4970  1.9067
24152SOL    HW284435   8.041  10.013   5.922  0.7912  2.3918  0.4340
24153SOL     OW84436   7.172   5.094   5.317  0.1998 -0.1036 -0.5194
24153SOL    HW184437   7.173   5.080   5.222  2.7365 -0.3203 -0.5329
24153SOL    HW284438   7.264   5.088   5.343 -0.3197  0.9129  1.8286
24154SOL     OW84439   4.779   6.208   5.267 -0.2556  0.1918  0.3767
24154SOL    HW184440   4.693   6.166   5.273 -0.2223  0.2377  1.2361
24154SOL    HW284441   4.783   6.266   5.343  1.2420 -1.1470  1.3815
24155SOL     OW84442   7.033   7.027   7.708 -1.1605  0.0576 -0.1828
24155SOL    HW184443   6.992   7.111   7.685 -0.8881  0.5758  1.1213
24155SOL    HW284444   7.023   7.021   7.803  0.1674 -0.6767 -0.0654
24156SOL     OW84445   5.114   0.433   4.574  0.0452 -0.3132  0.1886
24156SOL    HW184446   5.113   0.344   4.609  1.5818 -0.2928  0.3437
24156SOL    HW284447   5.185   0.433   4.509  1.9274  1.4301  2.0728
24157SOL     OW84448   5.900   3.037  10.054  0.3131  0.7182  0.3795
24157SOL    HW184449   5.996   3.046  10.059  0.1373  2.2583  2.4491
24157SOL    HW284450   5.873   3.019  10.144 -1.3495  0.0638 -0.2112
24158SOL     OW84451   8.429   2.065   0.713  0.3732 -0.1819  0.4178
24158SOL    HW184452   8.347   2.026   0.681 -0.0817 -0.8060  2.2348
24158SOL    HW284453   8.490   2.055   0.640 -0.7793 -0.9544 -0.4826
24159SOL     OW84454   9.636   4.282   8.091  0.0709  0.5884  0.5151
24159SOL    HW184455   9.592   4.300   8.174 -0.4402  1.9391 -0.0208
24159SOL    HW284456   9.579   4.321   8.024 -0.4077 -1.9174 -0.6736
24160SOL     OW84457   6.108   6.994   4.811  0.0188  0.4764 -0.5074
24160SOL    HW184458   6.060   6.965   4.888 -0.8430  0.1199 -1.1650
24160SOL    HW284459   6.193   6.950   4.819 -0.9326 -1.6169 -1.0074
24161SOL     OW84460   3.980   5.016   2.486  0.0902  0.0023  0.1314
24161SOL    HW184461   3.919   5.026   2.559  0.1467 -0.8013  0.2898
24161SOL    HW284462   3.930   5.043   2.409  0.0572  0.9351  0.4673
24162SOL     OW84463   5.718   5.176   2.531  0.3553 -0.2910  0.0036
24162SOL    HW184464   5.653   5.143   2.470 -1.0170  0.5218  0.9718
24162SOL    HW284465   5.704   5.270   2.534  0.8818 -0.2213  0.9931
24163SOL     OW84466   5.514   0.646   3.857  0.5651  0.0831  0.0567
24163SOL    HW184467   5.562   0.623   3.777 -0.5558 -0.9505 -0.3535
24163SOL    HW284468   5.561   0.601   3.927  0.3650 -0.6940 -0.3004
24164SOL     OW84469   2.423   0.558   8.040  0.0775 -0.4618 -0.2868
24164SOL    HW184470   2.476   0.520   8.110  0.2836 -0.3620 -0.3891
24164SOL    HW284471   2.480   0.560   7.964 -0.9475 -3.0923 -1.2502
24165SOL     OW84472   6.362   1.683   7.159  0.2954  0.3449  0.5906
24165SOL    HW184473   6.419   1.755   7.131  0.2199  0.1092 -0.1773
24165SOL    HW284474   6.349   1.699   7.253 -2.0312  2.9884 -0.0323
24166SOL     OW84475   3.665   6.298   8.052 -0.2596  0.0732  0.0354
24166SOL    HW184476   3.716   6.370   8.014 -0.6655  1.1196  1.3638
24166SOL    HW284477   3.575   6.331   8.054 -0.4514 -0.4651  0.6704
24167SOL     OW84478   2.678   7.797   1.077 -0.6314 -0.4645  0.1579
24167SOL    HW184479   2.662   7.734   1.007 -0.7644 -0.6733  0.3726
24167SOL    HW284480   2.773   7.805   1.081 -0.4952 -2.0175  1.2976
24168SOL     OW84481   8.458   4.942   2.623  0.7054 -0.0563  0.0225
24168SOL    HW184482   8.516   4.962   2.697 -0.5557  0.3105  0.9476
24168SOL    HW284483   8.460   4.847   2.616  0.0530 -0.1905  1.2350
24169SOL     OW84484   4.462   5.484   5.103  0.2324  0.5148 -0.5475
24169SOL    HW184485   4.516   5.474   5.181  2.1760  1.6377 -1.6539
24169SOL    HW284486   4.398   5.552   5.126 -1.3145 -1.3630  1.0332
24170SOL     OW84487   2.095   1.813   2.476 -0.1995 -0.1086  0.1725
24170SOL    HW184488   2.050   1.799   2.560 -1.5812 -2.2267 -0.8306
24170SOL    HW284489   2.024   1.825   2.413  0.8074  0.8634 -0.8100
24171SOL     OW84490   9.829   3.875   9.400  0.4135 -0.3052  0.5277
24171SOL    HW184491   9.817   3.880   9.305 -0.8636 -0.6534  0.6543
24171SOL    HW284492   9.923   3.865   9.412  0.5912 -0.2123 -0.7028
24172SOL     OW84493   9.454   7.909   4.644 -0.7590  0.3024 -0.3624
24172SOL    HW184494   9.403   7.829   4.641  1.0714 -0.9409 -0.1316
24172SOL    HW284495   9.459   7.932   4.737 -0.5655  0.1777 -0.3406
24173SOL     OW84496   3.174   2.631   7.296  0.7057  0.1549 -0.2200
24173SOL    HW184497   3.109   2.609   7.362  1.4252 -1.0240  0.1190
24173SOL    HW284498   3.124   2.677   7.228 -0.4004 -0.3768  0.2126
24174SOL     OW84499   5.655   3.662   8.363 -0.2845 -0.5905 -0.8776
24174SOL    HW184500   5.695   3.716   8.294  1.0252  0.3816  0.5634
24174SOL    HW284501   5.723   3.598   8.384 -0.4055 -0.4539 -0.0525
24175SOL     OW84502   7.515   0.406   7.263  0.1688  0.4979  0.1755
24175SOL    HW184503   7.466   0.329   7.236 -0.1721  1.2513 -1.4668
24175SOL    HW284504   7.594   0.372   7.304  0.3508 -0.7226 -1.1508
24176SOL     OW84505   7.979   3.624   7.853 -0.9943 -0.0524  0.2869
24176SOL    HW184506   7.993   3.578   7.936  0.6933  0.0587  0.0971
24176SOL    HW284507   8.043   3.586   7.793 -1.1707  0.9163 -0.5398
24177SOL     OW84508   9.101   1.803   2.757 -0.1634 -0.1739  0.4858
24177SOL    HW184509   9.150   1.739   2.704 -1.4404  1.3774 -2.8284
24177SOL    HW284510   9.011   1.771   2.755 -0.3252  0.2190  1.2964
24178SOL     OW84511   6.417   7.990   1.643 -0.1223 -0.9565 -0.0284
24178SOL    HW184512   6.406   8.061   1.579 -0.2157 -1.5517 -0.6759
24178SOL    HW284513   6.506   7.958   1.629  0.2527 -0.3569  0.9026
24179SOL     OW84514   7.138   3.117   6.679 -0.1700  0.2748  0.1448
24179SOL    HW184515   7.053   3.151   6.708  0.3186  1.3464  0.4099
24179SOL    HW284516   7.201   3.181   6.713  0.6287  0.2197 -1.1948
24180SOL     OW84517   6.326   5.622   0.301  0.1498  0.3330 -0.2169
24180SOL    HW184518   6.354   5.703   0.257  2.0456 -0.7515 -1.1159
24180SOL    HW284519   6.247   5.647   0.348 -0.7974  2.0790 -2.5525
24181SOL     OW84520   9.461  10.139   9.068  0.2584 -0.0882  0.0246
24181SOL    HW184521   9.453  10.146   8.972 -1.8192  0.1445  0.1693
24181SOL    HW284522   9.374  10.112   9.097  1.1609 -1.2373  1.7885
24182SOL     OW84523   8.124  10.013   9.869  0.2003  0.0330  0.4996
24182SOL    HW184524   8.091  10.102   9.873 -0.4735 -0.0662 -1.6065
24182SOL    HW284525   8.136   9.987   9.961 -1.6410  1.5238  1.2144
24183SOL     OW84526   3.798   7.325   8.155  0.9826  0.2860 -0.7928
24183SOL    HW184527   3.749   7.404   8.177 -0.4781 -0.5157 -1.0216
24183SOL    HW284528   3.872   7.356   8.103  0.7233  1.5334 -0.4517
24184SOL     OW84529   2.539   6.816   3.165 -0.1507 -0.2205 -0.0808
24184SOL    HW184530   2.513   6.899   3.205 -3.1909 -0.7618 -0.6981
24184SOL    HW284531   2.459   6.764   3.165  1.3870 -2.7170 -0.8407
24185SOL     OW84532   5.598   0.389   3.588  0.6670  0.2391 -0.8666
24185SOL    HW184533   5.633   0.342   3.512 -0.0456 -0.6247 -0.6766
24185SOL    HW284534   5.503   0.391   3.573  0.6686  1.5769 -0.8340
24186SOL     OW84535   1.108   4.370   2.275 -0.3333 -0.3238  0.0207
24186SOL    HW184536   1.025   4.322   2.272 -0.5195  0.0388 -0.9227
24186SOL    HW284537   1.090   4.447   2.329 -0.9168  0.2888 -1.0080
24187SOL     OW84538   3.722   0.569   0.071  0.0956 -0.3669 -0.3172
24187SOL    HW184539   3.715   0.652   0.118  1.5751  0.4480 -1.4314
24187SOL    HW284540   3.682   0.587  -0.015  0.1162 -0.9006 -0.4411
24188SOL     OW84541   3.026   7.992   5.359 -0.0932  0.1173 -0.3566
24188SOL    HW184542   3.003   7.936   5.433  0.5440  1.2686  0.7351
24188SOL    HW284543   2.961   7.970   5.292 -1.0257 -0.5496  0.7350
24189SOL     OW84544   8.684   0.633   4.225  0.1639 -0.4452 -0.1361
24189SOL    HW184545   8.663   0.634   4.131 -0.3619  3.2674 -0.1260
24189SOL    HW284546   8.773   0.668   4.230  0.0038 -0.1483  0.7553
24190SOL     OW84547   2.369   1.081   6.712  0.2750 -0.0271  0.1372
24190SOL    HW184548   2.345   1.099   6.621 -1.1436 -2.2049  0.0141
24190SOL    HW284549   2.440   1.017   6.707  0.1465 -0.2101  0.5895
24191SOL     OW84550   6.135   1.525   5.613  0.2861  0.1020 -0.8597
24191SOL    HW184551   6.109   1.465   5.544  0.1610  0.2677 -0.9569
24191SOL    HW284552   6.052   1.558   5.649  0.2797 -1.2962  0.5431
24192SOL     OW84553   6.837   5.714   4.686  0.2412  0.0587  0.2613
24192SOL    HW184554   6.757   5.764   4.671  0.7318  0.1334 -2.9293
24192SOL    HW284555   6.904   5.779   4.704  0.3520  0.4294 -1.2943
24193SOL     OW84556   0.559   7.582  10.169 -0.4833 -0.1295 -0.1061
24193SOL    HW184557   0.529   7.501  10.128  1.1592 -2.2020  2.4652
24193SOL    HW284558   0.483   7.615  10.216 -1.7378  1.0501 -2.7239
24194SOL     OW84559   3.118   5.582   4.060 -0.6795 -0.3684 -0.9442
24194SOL    HW184560   3.030   5.580   4.096  0.3558  0.1697  1.8912
24194SOL    HW284561   3.137   5.675   4.048 -0.0945 -0.4028 -0.3514
24195SOL     OW84562   7.468   1.808   7.866 -0.4387 -0.4624  0.1174
24195SOL    HW184563   7.542   1.749   7.849  0.5155  0.5979  0.4369
24195SOL    HW284564   7.465   1.865   7.789 -0.3406  0.0800  0.5105
24196SOL     OW84565   4.566   4.673   1.835  0.7521 -0.1160 -0.2820
24196SOL    HW184566   4.598   4.720   1.758 -1.8367  2.2485 -0.0819
24196SOL    HW284567   4.471   4.674   1.826  0.3587  0.0782  2.8209
24197SOL     OW84568   3.733   0.611   5.107  0.1430  0.0945 -0.4506
24197SOL    HW184569   3.750   0.701   5.134  0.7723  0.2674 -1.3791
24197SOL    HW284570   3.649   0.590   5.147 -0.0728  1.1391 -0.3202
24198SOL     OW84571   8.480   6.261   3.718  0.4185  0.5236 -0.0193
24198SOL    HW184572   8.462   6.236   3.809  0.8501  0.8761  0.1680
24198SOL    HW284573   8.559   6.316   3.724 -1.1920  3.0152 -0.2357
24199SOL     OW84574   2.996   2.833   6.076 -0.1525  0.0665  0.1093
24199SOL    HW184575   3.053   2.866   6.146  0.7905  1.5559 -1.2896
24199SOL    HW284576   3.009   2.738   6.078 -1.0965 -0.0912  2.6956
24200SOL     OW84577   9.630   6.936   0.258 -0.4929 -0.5187  0.2657
24200SOL    HW184578   9.672   6.864   0.211  2.2747  1.4866 -0.6099
24200SOL    HW284579   9.678   6.942   0.341 -0.4579  0.5082  0.1830
24201SOL     OW84580   7.652   5.364   3.248  0.0421 -0.2451  0.1013
24201SOL    HW184581   7.711   5.354   3.172  1.1007  1.0784  0.7085
24201SOL    HW284582   7.588   5.429   3.220  0.7617  0.6561  0.5102
24202SOL     OW84583   3.040   6.922   1.577 -0.4906 -0.4095 -0.3292
24202SOL    HW184584   2.961   6.912   1.630 -1.6293 -2.9295 -2.2752
24202SOL    HW284585   3.010   6.962   1.496  0.5550  0.1648 -0.4479
24203SOL     OW84586   8.765   0.114   9.864 -0.2197 -0.4553 -0.2217
24203SOL    HW184587   8.839   0.078   9.814  0.5250  1.4028 -0.5190
24203SOL    HW284588   8.797   0.118   9.954 -0.2807 -0.4567 -0.1995
24204SOL     OW84589   2.465   9.924   5.397 -0.5077 -0.1332  0.1150
24204SOL    HW184590   2.474   9.830   5.381  0.9411 -0.1841  1.0090
24204SOL    HW284591   2.393   9.930   5.461 -0.5350 -0.6409  0.1422
24205SOL     OW84592   1.801   3.386   8.001 -0.1495 -0.3511 -0.3786
24205SOL    HW184593   1.706   3.390   8.005 -0.2173 -1.4803  3.4364
24205SOL    HW284594   1.823   3.298   8.033  2.2134 -0.6815 -2.5451
24206SOL     OW84595   5.711   3.580   3.215  0.3047 -0.8141  0.5429
24206SOL    HW184596   5.786   3.628   3.251 -0.2822  0.5390  0.0219
24206SOL    HW284597   5.697   3.508   3.277  0.1744  0.6545  2.3157
24207SOL     OW84598   5.059   2.783   8.459  0.1581 -0.1182  0.1130
24207SOL    HW184599   5.043   2.727   8.535 -1.4713 -0.2166 -0.2689
24207SOL    HW284600   5.051   2.872   8.494 -0.2104 -0.1589  0.1344
24208SOL     OW84601   7.346   6.595   0.424 -0.5493 -0.2025 -0.0172
24208SOL    HW184602   7.277   6.649   0.461  0.4793 -0.1857  2.0610
24208SOL    HW284603   7.373   6.640   0.345 -1.3498  1.0047  0.3743
24209SOL     OW84604   8.066   8.159   1.645  0.3945 -0.1176 -0.7165
24209SOL    HW184605   8.015   8.080   1.661 -0.2984  0.7198  1.6282
24209SOL    HW284606   8.147   8.146   1.695  0.1733  0.7208 -0.1143
24210SOL     OW84607   9.271   0.459   2.735 -0.3947  0.2211 -0.3479
24210SOL    HW184608   9.328   0.441   2.661  0.8202  0.5906  0.4666
24210SOL    HW284609   9.293   0.392   2.800 -1.8857 -0.4856 -0.5257
24211SOL     OW84610   6.922   5.533   1.537  0.1567 -0.2701  0.3378
24211SOL    HW184611   6.841   5.484   1.519 -0.9360  0.5907  2.5152
24211SOL    HW284612   6.955   5.555   1.450 -1.9249 -0.7023 -0.6524
24212SOL     OW84613   5.472   7.789   8.265  0.0878 -0.3558  0.1163
24212SOL    HW184614   5.402   7.815   8.325  1.4690  1.1691  1.1669
24212SOL    HW284615   5.428   7.768   8.183 -1.5488  1.1226  0.5722
24213SOL     OW84616   2.248   6.893   8.639  0.3005 -0.1896 -0.1336
24213SOL    HW184617   2.241   6.871   8.546 -0.1617  0.8080 -0.3428
24213SOL    HW284618   2.281   6.813   8.680 -0.1790 -0.8715 -1.0501
24214SOL     OW84619   4.239   0.901   9.377 -0.1575  0.1020  0.1946
24214SOL    HW184620   4.181   0.923   9.450 -1.1173 -0.1473 -0.4740
24214SOL    HW284621   4.316   0.956   9.390 -0.1858 -0.1475  1.5473
24215SOL     OW84622   1.594   2.396   2.727  0.8174 -0.6072  0.1019
24215SOL    HW184623   1.623   2.440   2.647 -0.8756 -0.2603 -0.3557
24215SOL    HW284624   1.591   2.303   2.704 -3.2000 -0.2359 -1.5139
24216SOL     OW84625   4.056   0.530   3.379 -0.3081  1.0817  0.2560
24216SOL    HW184626   4.133   0.566   3.335 -0.6369  3.1971  1.2834
24216SOL    HW284627   3.994   0.511   3.307  0.2553  1.6735 -0.3946
24217SOL     OW84628   4.376   6.793  10.012  0.3106  0.4142  0.6570
24217SOL    HW184629   4.391   6.701  10.035  0.7187  0.2291 -0.2744
24217SOL    HW284630   4.442   6.811   9.945 -0.7814  0.9202 -0.3086
24218SOL     OW84631   0.139  10.178   1.121  0.2346  1.0359 -0.3956
24218SOL    HW184632   0.073  10.200   1.186  0.5742 -1.2918  0.8331
24218SOL    HW284633   0.222  10.201   1.161  0.3866  0.4838 -0.3833
24219SOL     OW84634   0.974   0.195   8.640  0.7368  0.4113  0.1324
24219SOL    HW184635   0.967   0.105   8.609 -1.9706  0.2255  1.0769
24219SOL    HW284636   0.942   0.248   8.567  1.4172  0.5661 -0.0642
24220SOL     OW84637   4.251   1.809   0.006  0.0074 -0.5058  0.3569
24220SOL    HW184638   4.192   1.858   0.062 -0.7665 -0.2028 -0.6826
24220SOL    HW284639   4.195   1.778  -0.066  0.6453 -2.1984  0.5525
24221SOL     OW84640   1.143   9.704   5.232  0.1116  0.3161  0.5675
24221SOL    HW184641   1.075   9.772   5.235 -0.2166  0.3031 -2.7993
24221SOL    HW284642   1.098   9.628   5.196  1.6347 -0.0216 -0.7220
24222SOL     OW84643   7.742   0.579   0.980  0.4385  0.3104  0.3844
24222SOL    HW184644   7.701   0.641   1.040  2.0428  0.3559  1.5058
24222SOL    HW284645   7.783   0.633   0.913 -0.4845  0.3136 -0.1815
24223SOL     OW84646   4.091   5.085   5.290  0.2099 -0.2398  0.3917
24223SOL    HW184647   4.030   5.079   5.364  0.5179 -2.1620  0.5359
24223SOL    HW284648   4.141   5.004   5.294 -0.0821 -0.6409 -2.2150
24224SOL     OW84649   6.693   5.880   4.266 -0.9477 -0.2226  0.0469
24224SOL    HW184650   6.778   5.914   4.297 -0.2646  1.3692 -3.1440
24224SOL    HW284651   6.681   5.799   4.315  0.3439  1.5203  3.6597
24225SOL     OW84652   7.261  10.032   3.142  0.3945 -0.2185  0.2181
24225SOL    HW184653   7.304   9.984   3.070  0.3627 -1.3631  0.9404
24225SOL    HW284654   7.169  10.011   3.133  0.2615  0.4262  0.0221
24226SOL     OW84655   4.866   2.070   7.750 -0.2123  0.3458 -0.4349
24226SOL    HW184656   4.901   2.036   7.667 -1.4853  1.1478 -1.3405
24226SOL    HW284657   4.891   2.163   7.750  1.4580 -0.0567  1.0340
24227SOL     OW84658   5.728   6.570   6.867  0.0621  0.2790  0.0309
24227SOL    HW184659   5.707   6.661   6.846 -0.1286  0.1076 -0.5197
24227SOL    HW284660   5.817   6.557   6.833  1.2038  1.0345  2.4456
24228SOL     OW84661   0.083   1.563   7.276 -0.0761 -0.0829  0.3640
24228SOL    HW184662   0.022   1.597   7.343  0.3328  0.2974  0.5530
24228SOL    HW284663   0.158   1.623   7.280 -0.5431  0.6485 -1.2523
24229SOL     OW84664   7.961   6.870   0.751 -0.4525 -0.4550 -0.2592
24229SOL    HW184665   7.922   6.851   0.837  1.4832 -0.8174  0.5766
24229SOL    HW284666   7.885   6.884   0.694 -1.8472 -2.6942  0.9073
24230SOL     OW84667   7.974   2.596   9.578 -0.1357 -0.4077  0.2922
24230SOL    HW184668   7.965   2.512   9.534  2.4771  0.9991 -3.3918
24230SOL    HW284669   8.058   2.590   9.625  1.2870  0.7699 -1.9432
24231SOL     OW84670   9.855   2.944   5.099 -0.4260  0.8027 -0.0305
24231SOL    HW184671   9.928   2.982   5.147 -1.2792  0.0892  1.9307
24231SOL    HW284672   9.813   2.885   5.161 -1.9313  0.2326 -1.5024
24232SOL     OW84673  10.225   2.711   4.568  0.5520 -0.7264 -0.3151
24232SOL    HW184674  10.251   2.672   4.651  1.8019 -1.1853 -0.9001
24232SOL    HW284675  10.163   2.779   4.592  0.8144 -0.9156  0.9816
24233SOL     OW84676   1.872   0.433   2.342 -0.5887  0.2455 -0.8055
24233SOL    HW184677   1.827   0.431   2.257 -2.2170  1.5889 -0.0239
24233SOL    HW284678   1.847   0.351   2.384 -1.0249  0.2697 -1.0163
24234SOL     OW84679   5.687   1.919   0.066  0.1930  0.0579 -0.3087
24234SOL    HW184680   5.768   1.967   0.049  0.0806  0.3627 -0.0038
24234SOL    HW284681   5.637   1.976   0.125 -0.6468  0.2903 -1.2169
24235SOL     OW84682   1.547   7.253   7.648  0.1953  0.1005  0.0870
24235SOL    HW184683   1.465   7.202   7.644  1.3305 -1.7555 -1.2098
24235SOL    HW284684   1.529   7.323   7.711 -2.0865 -0.7957  0.5242
24236SOL     OW84685   6.144   7.606   0.215  0.3460 -0.5046  0.1951
24236SOL    HW184686   6.132   7.639   0.304  0.4783 -2.1766  0.8812
24236SOL    HW284687   6.230   7.565   0.216  0.1152 -1.0417 -0.5343
24237SOL     OW84688   9.038   2.371   7.240  0.5844 -0.3894 -0.1696
24237SOL    HW184689   8.991   2.454   7.230  1.2082 -0.1771 -1.6688
24237SOL    HW284690   9.049   2.361   7.334  0.9185  1.4842  0.0295
24238SOL     OW84691   6.981   9.851   2.732 -0.2083  0.0353  0.1089
24238SOL    HW184692   6.996   9.757   2.737 -2.6538 -0.3820  0.9487
24238SOL    HW284693   6.953   9.866   2.641  3.4675  0.6241 -1.0955
24239SOL     OW84694   3.911  10.014   3.634  0.3220  0.4597  0.3473
24239SOL    HW184695   3.948   9.965   3.561  2.4242  0.5215  1.2922
24239SOL    HW284696   3.855  10.080   3.593 -1.0223 -1.4460 -1.0140
24240SOL     OW84697   5.349   1.629   9.711 -0.3698 -0.4558 -0.0312
24240SOL    HW184698   5.289   1.559   9.685 -0.9739 -0.6237  1.6814
24240SOL    HW284699   5.359   1.618   9.806  1.5265  0.2368 -0.1059
24241SOL     OW84700   8.669   8.505   1.005  0.2159 -0.1580 -0.2688
24241SOL    HW184701   8.656   8.543   0.918  0.8975 -0.4767 -0.5167
24241SOL    HW284702   8.604   8.549   1.061 -0.5736 -0.3272 -1.0404
24242SOL     OW84703  10.122   6.678   4.009  0.1394 -0.0385 -0.5501
24242SOL    HW184704  10.062   6.675   4.083  1.7583 -0.7860  0.8020
24242SOL    HW284705  10.209   6.669   4.048  1.1550  0.9658 -2.4346
24243SOL     OW84706   8.617   4.084   8.843  0.3182  0.3591  0.5760
24243SOL    HW184707   8.527   4.106   8.868 -0.9000 -2.2539 -1.0171
24243SOL    HW284708   8.661   4.168   8.834 -2.2363  1.7909  0.5506
24244SOL     OW84709   8.168   6.945   7.409 -0.0807  0.5090  0.1966
24244SOL    HW184710   8.171   7.040   7.421  2.0543  0.3174  1.9239
24244SOL    HW284711   8.137   6.911   7.493  1.2287 -0.3713  0.3571
24245SOL     OW84712   6.333   8.207   5.859  0.2617  0.7827 -0.9482
24245SOL    HW184713   6.254   8.252   5.828  0.8288  2.2636 -0.3357
24245SOL    HW284714   6.334   8.125   5.810 -2.4936 -0.0162  0.1490
24246SOL     OW84715   5.198   1.103   4.728 -0.0104 -0.9463 -0.7890
24246SOL    HW184716   5.157   1.023   4.760  1.2338 -1.1859  0.2671
24246SOL    HW284717   5.200   1.161   4.804  1.0007 -0.6957 -0.9996
24247SOL     OW84718   8.314   7.780   8.918  0.2953  0.1942 -0.1768
24247SOL    HW184719   8.350   7.699   8.882 -1.1108 -0.0962 -1.0050
24247SOL    HW284720   8.268   7.752   8.997 -1.0368  0.0037 -0.9974
24248SOL     OW84721   5.926   0.453   2.017 -0.3548 -0.0435  0.2296
24248SOL    HW184722   5.975   0.405   1.951 -0.2374  1.0775 -0.5448
24248SOL    HW284723   5.993   0.501   2.067 -0.5116 -0.1322  0.5268
24249SOL     OW84724  10.034   6.622   9.739 -0.6922 -0.4003  0.5737
24249SOL    HW184725  10.047   6.659   9.651  0.4988 -0.5173  0.6862
24249SOL    HW284726   9.954   6.571   9.731 -1.8171  1.3402  0.1354
24250SOL     OW84727   3.648   9.537   1.607  0.3241 -0.1626 -0.5031
24250SOL    HW184728   3.630   9.592   1.531 -4.1022  0.8706  0.9661
24250SOL    HW284729   3.738   9.559   1.632 -0.3251  4.7475 -1.4317
24251SOL     OW84730   8.964   9.508   6.048  0.5857  0.2601  0.3566
24251SOL    HW184731   8.916   9.470   6.121 -0.6715  1.0167 -0.0614
24251SOL    HW284732   8.932   9.597   6.040  0.9051  0.2874 -0.9327
24252SOL     OW84733   1.486   3.131   0.018  0.2493  0.2685 -0.6268
24252SOL    HW184734   1.424   3.175  -0.040 -0.4140 -0.5127 -0.5256
24252SOL    HW284735   1.477   3.038  -0.003 -0.2625 -0.0701  0.9529
24253SOL     OW84736   6.640   2.923   1.068 -0.3856  0.2584  0.0022
24253SOL    HW184737   6.560   2.906   1.117 -1.6618  1.5330 -1.5208
24253SOL    HW284738   6.699   2.964   1.131 -1.2644  0.1238  0.9328
24254SOL     OW84739   7.348   8.552   8.381 -0.7136 -0.7306 -0.0156
24254SOL    HW184740   7.346   8.570   8.475  1.4560  0.9874 -0.1899
24254SOL    HW284741   7.305   8.628   8.342  0.4041 -0.2787 -0.4358
24255SOL     OW84742   7.275   3.852   1.390 -0.1675 -0.0477 -0.0641
24255SOL    HW184743   7.338   3.912   1.430  1.9275 -2.4270  0.4600
24255SOL    HW284744   7.267   3.884   1.300  0.1699  1.5138  0.4101
24256SOL     OW84745   6.706   5.494   6.036 -0.1054 -0.2044 -0.4269
24256SOL    HW184746   6.659   5.490   5.952 -0.0569  1.8962 -0.5964
24256SOL    HW284747   6.642   5.461   6.100 -0.0917 -1.9866 -1.2639
24257SOL     OW84748   2.842   8.072   2.757 -0.0331 -0.1761 -0.1202
24257SOL    HW184749   2.880   7.992   2.721 -1.2160 -0.6162 -0.4312
24257SOL    HW284750   2.859   8.067   2.851 -1.4098 -1.5456  0.0830
24258SOL     OW84751   0.035  10.237   9.708 -0.5501 -0.4116 -0.1103
24258SOL    HW184752   0.071  10.299   9.770 -0.9486  0.9222 -1.1656
24258SOL    HW284753  -0.001  10.291   9.637 -0.8853 -1.8342 -1.0825
24259SOL     OW84754   0.675   6.356   2.904  0.2577  0.5351  0.0842
24259SOL    HW184755   0.644   6.279   2.857 -1.9167  1.8776 -0.8265
24259SOL    HW284756   0.765   6.368   2.874 -0.0850 -0.3961 -1.4324
24260SOL     OW84757   9.648   4.497   5.983  0.0131  0.0022 -0.0812
24260SOL    HW184758   9.553   4.494   5.971  0.2486 -2.7148 -2.1764
24260SOL    HW284759   9.684   4.487   5.894  2.2192 -1.6326  0.9008
24261SOL     OW84760   9.093   3.108   7.113 -0.5129 -0.6183  0.4931
24261SOL    HW184761   9.028   3.177   7.098 -0.2452 -0.5870 -0.6673
24261SOL    HW284762   9.151   3.143   7.180  0.4402  0.8910 -1.0559
24262SOL     OW84763   7.644   4.641   3.316  0.2223 -0.6913  0.4278
24262SOL    HW184764   7.697   4.605   3.386  2.0467 -1.0330 -1.0423
24262SOL    HW284765   7.631   4.733   3.339 -0.4594 -1.1350  1.8946
24263SOL     OW84766   1.958  10.007   5.526 -0.3352 -0.1764 -0.8049
24263SOL    HW184767   1.903   9.986   5.451 -0.7651  0.7400 -0.7624
24263SOL    HW284768   1.897  10.007   5.600 -0.1537  0.1598 -0.6548
24264SOL     OW84769   7.990   8.237   7.114 -0.1185  0.7501 -0.1533
24264SOL    HW184770   7.927   8.207   7.180 -0.4878  0.7784 -0.4902
24264SOL    HW284771   7.961   8.195   7.033 -0.1830  1.4110 -0.4746
24265SOL     OW84772   1.560   2.060   5.855 -0.5250  0.5159  0.1994
24265SOL    HW184773   1.621   1.992   5.826  1.1724  2.3575 -0.8528
24265SOL    HW284774   1.535   2.035   5.944  0.7874 -0.9604  0.1878
24266SOL     OW84775   7.665   6.088   4.953 -0.1785 -0.3800  0.4257
24266SOL    HW184776   7.684   6.182   4.956 -0.3627 -0.3725  2.1039
24266SOL    HW284777   7.654   6.063   5.044 -0.7380 -1.9250 -0.0401
24267SOL     OW84778   9.969   8.557  10.334  0.2671 -0.3319 -0.2215
24267SOL    HW184779   9.875   8.537  10.328 -0.1351  1.0794  0.7864
24267SOL    HW284780   9.975   8.649  10.307  0.8836  0.5296  2.5263
24268SOL     OW84781   2.508   0.319   8.092 -0.2079  0.3034  0.1892
24268SOL    HW184782   2.418   0.289   8.101 -0.2125 -0.3750 -1.5809
24268SOL    HW284783   2.548   0.302   8.177 -1.3547 -0.8071  0.5388
24269SOL     OW84784   0.116   3.633   8.715  0.0518 -0.5028  0.4528
24269SOL    HW184785   0.053   3.597   8.652  0.6917  0.1849 -0.6068
24269SOL    HW284786   0.181   3.564   8.726  0.1593 -0.4769  0.0204
24270SOL     OW84787   7.293   2.121   7.900 -0.0343  0.4339  0.4963
24270SOL    HW184788   7.236   2.050   7.870  1.0257  0.0546 -0.6708
24270SOL    HW284789   7.328   2.160   7.820 -1.5007  3.1082  1.0114
24271SOL     OW84790   7.772   8.825   7.047 -0.4546  0.3482  0.3807
24271SOL    HW184791   7.684   8.834   7.085 -0.3463 -0.6428  0.9000
24271SOL    HW284792   7.801   8.738   7.075 -0.7593 -0.9125 -2.7579
24272SOL     OW84793   6.100   7.773  10.193 -0.4357  0.2815  0.1693
24272SOL    HW184794   6.147   7.783  10.276 -0.8101  0.9623  0.3105
24272SOL    HW284795   6.166   7.742  10.131 -0.4914 -1.8207  1.0867
24273SOL     OW84796   3.245   0.381   8.940 -0.0473  0.0418 -0.1175
24273SOL    HW184797   3.174   0.353   8.882  0.5963 -0.8805 -0.4954
24273SOL    HW284798   3.212   0.362   9.028 -0.3165 -0.2622 -0.2811
24274SOL     OW84799   2.304   0.580   0.582 -0.7295  0.0483 -0.4237
24274SOL    HW184800   2.225   0.577   0.528  1.4701  0.6796 -3.9463
24274SOL    HW284801   2.365   0.520   0.539  2.5663  3.6088 -1.2013
24275SOL     OW84802   9.136   0.907   4.188  0.1733  0.2115  0.2132
24275SOL    HW184803   9.105   0.933   4.275 -1.6561 -0.3470 -0.2266
24275SOL    HW284804   9.124   0.985   4.134  0.5164  0.3040  0.2687
24276SOL     OW84805   2.566   7.524   6.843  0.0482  0.1672 -0.3391
24276SOL    HW184806   2.573   7.429   6.842  0.5713  0.1906 -2.1675
24276SOL    HW284807   2.475   7.542   6.866 -0.2023 -0.7905 -0.5590
24277SOL     OW84808   6.346   0.743   5.559 -0.4455 -0.1122 -0.2490
24277SOL    HW184809   6.376   0.716   5.473 -0.9947 -1.1980 -0.1199
24277SOL    HW284810   6.324   0.661   5.603  2.7635  0.0517  2.0737
24278SOL     OW84811   0.899   3.695   9.722 -0.1457  0.0904  0.2664
24278SOL    HW184812   0.891   3.774   9.775 -0.5437 -0.2671  0.7519
24278SOL    HW284813   0.908   3.624   9.786 -1.3804 -0.4376 -0.1109
24279SOL     OW84814   7.537   4.655   6.811  0.5644  0.4237  0.0327
24279SOL    HW184815   7.536   4.746   6.781  1.1314  0.4871  0.2023
24279SOL    HW284816   7.459   4.647   6.866  0.7910  0.9465  0.4333
24280SOL     OW84817   4.739   6.952   6.000 -0.1997 -0.7189  0.3645
24280SOL    HW184818   4.672   6.892   5.967 -0.4900 -0.0794 -0.2091
24280SOL    HW284819   4.691   7.029   6.029  0.2886 -0.2598 -0.0362
24281SOL     OW84820   2.513   3.166   1.801 -0.5241  0.7300 -0.3413
24281SOL    HW184821   2.507   3.216   1.883 -1.2563 -0.2605  0.2362
24281SOL    HW284822   2.538   3.231   1.735  3.7142  1.0000  1.2051
24282SOL     OW84823   2.851   9.685   9.219  0.8310  0.2617 -0.2147
24282SOL    HW184824   2.812   9.628   9.285 -0.3975  0.5490 -0.6643
24282SOL    HW284825   2.884   9.624   9.152 -2.8813 -0.0638 -2.0782
24283SOL     OW84826   9.766   3.074   1.569 -0.0029 -0.7637  0.3676
24283SOL    HW184827   9.682   3.115   1.592  0.2324  0.7951 -1.3128
24283SOL    HW284828   9.832   3.130   1.609  0.2661 -0.6723 -0.1866
24284SOL     OW84829   2.698   2.535   9.889  0.4955 -0.4799 -0.3464
24284SOL    HW184830   2.684   2.441   9.900  2.0045 -0.9031 -1.6105
24284SOL    HW284831   2.678   2.551   9.797  3.3831 -0.2633 -1.0300
24285SOL     OW84832   2.041   1.170   2.162  0.1472 -0.3552  0.1800
24285SOL    HW184833   2.099   1.120   2.219  0.9858 -0.6021 -0.8366
24285SOL    HW284834   2.076   1.259   2.165  0.4374 -0.4484 -0.2224
24286SOL     OW84835   1.876   9.347   1.008 -0.4181 -0.0945  0.5617
24286SOL    HW184836   1.967   9.329   1.034 -0.3754 -0.6237  0.0660
24286SOL    HW284837   1.883   9.382   0.919 -0.8288 -2.2025 -0.3489
24287SOL     OW84838   2.522   5.204   6.515 -0.6373 -0.4210  0.3738
24287SOL    HW184839   2.430   5.206   6.540 -0.3647 -0.9806  1.4574
24287SOL    HW284840   2.554   5.293   6.532 -0.7213 -0.5094  1.0067
24288SOL     OW84841   0.385   7.057   9.976 -0.1603 -0.3921  0.1002
24288SOL    HW184842   0.395   7.019  10.063 -0.0126  0.6341  0.5527
24288SOL    HW284843   0.316   7.123   9.987 -2.7118 -2.6238 -1.3705
24289SOL     OW84844   5.553   4.098   2.230 -1.1413  0.5949  0.5901
24289SOL    HW184845   5.614   4.025   2.224 -1.8345  0.1107 -1.9490
24289SOL    HW284846   5.475   4.061   2.271 -0.7648  0.4685  1.2024
24290SOL     OW84847   0.927   0.117   3.350  0.5545 -0.0141  0.1014
24290SOL    HW184848   0.910   0.033   3.308 -1.1946 -0.4239  1.5082
24290SOL    HW284849   0.889   0.182   3.291 -1.6453 -0.5658  0.8011
24291SOL     OW84850   0.786   8.804   1.126  0.2494  0.2785  0.4586
24291SOL    HW184851   0.857   8.860   1.095  0.8965  0.0734  1.5271
24291SOL    HW284852   0.798   8.800   1.220  0.5218 -2.0353  0.3945
24292SOL     OW84853   3.003   0.890   7.002 -0.0516 -0.3634 -0.1253
24292SOL    HW184854   3.065   0.837   6.952 -0.2053 -1.6087  0.9776
24292SOL    HW284855   2.999   0.973   6.953  2.8136 -0.0370 -0.0139
24293SOL     OW84856   1.693   1.672   0.608  0.4290 -0.2752  0.1614
24293SOL    HW184857   1.780   1.665   0.648  0.8128  0.4657 -0.5060
24293SOL    HW284858   1.648   1.592   0.635  2.2260 -2.0230 -1.6351
24294SOL     OW84859   7.138   5.030   9.373 -0.3569 -0.6044  0.3773
24294SOL    HW184860   7.118   5.103   9.432  0.3606  0.2610 -0.4051
24294SOL    HW284861   7.076   4.961   9.398 -0.8723  0.1688  1.3223
24295SOL     OW84862   8.902   6.599   4.485 -0.8004 -0.5178 -0.1463
24295SOL    HW184863   8.964   6.665   4.455  0.0441  0.5649  3.4810
24295SOL    HW284864   8.944   6.516   4.463 -0.0172  0.1598 -1.3341
24296SOL     OW84865   9.349   7.813   8.345  0.1875 -0.0067  0.1495
24296SOL    HW184866   9.391   7.821   8.431 -2.3014  2.4658  1.3029
24296SOL    HW284867   9.386   7.886   8.294 -0.5529  0.4154  0.2034
24297SOL     OW84868   8.981   9.265   1.652  0.6495  0.2554 -0.5423
24297SOL    HW184869   8.998   9.206   1.578  0.0986 -0.1027 -0.3916
24297SOL    HW284870   8.914   9.325   1.620 -0.4895 -0.6681  0.0446
24298SOL     OW84871   5.733  10.185   5.544 -0.3318 -0.0666  0.1590
24298SOL    HW184872   5.695  10.102   5.571  0.2606 -0.2156  0.5643
24298SOL    HW284873   5.779  10.164   5.463 -1.5220  0.2266 -0.6115
24299SOL     OW84874   0.505   9.631   7.268  1.1408  0.1953 -0.0392
24299SOL    HW184875   0.496   9.724   7.287 -0.8376  0.2639 -1.0574
24299SOL    HW284876   0.563   9.598   7.337 -0.3098  1.6715  2.0087
24300SOL     OW84877   0.395   2.051   8.118 -0.4029 -0.7110 -1.0629
24300SOL    HW184878   0.453   2.127   8.120 -2.8696  1.3044  0.3728
24300SOL    HW284879   0.347   2.055   8.201 -2.4458 -2.3254 -2.0668
24301SOL     OW84880   6.457   1.120   8.938  0.2713  0.2315 -0.5058
24301SOL    HW184881   6.549   1.132   8.915  0.8445 -0.9033  1.0188
24301SOL    HW284882   6.442   1.026   8.930 -0.4107  0.2460  0.4239
24302SOL     OW84883   3.565   8.941   2.391 -0.4310  0.1120 -0.1653
24302SOL    HW184884   3.547   8.970   2.481 -0.3627  0.4350 -0.2554
24302SOL    HW284885   3.660   8.931   2.387 -0.4733 -0.4037 -0.0534
24303SOL     OW84886   0.893   4.439   5.978  0.6578  0.3995 -0.1754
24303SOL    HW184887   0.880   4.371   6.044  1.1336  0.1791 -0.3102
24303SOL    HW284888   0.818   4.429   5.920  0.4803  0.2948  0.0672
24304SOL     OW84889   7.227   4.761   2.198  0.3960 -0.3091  0.1600
24304SOL    HW184890   7.269   4.748   2.113  0.5842  0.1452  0.1786
24304SOL    HW284891   7.172   4.684   2.210  2.2814 -1.6264  0.7893
24305SOL     OW84892   9.352   9.573   9.190  0.2017  0.1831 -0.0496
24305SOL    HW184893   9.443   9.566   9.221  0.4956  0.1619 -0.8901
24305SOL    HW284894   9.311   9.634   9.250  1.1126  1.1622 -0.3858
24306SOL     OW84895   7.456  10.106   2.777  0.1886  0.1464 -0.6000
24306SOL    HW184896   7.406  10.151   2.846 -0.5618 -0.1262 -0.9639
24306SOL    HW284897   7.462  10.170   2.706 -1.4896 -0.5278 -1.4036
24307SOL     OW84898   5.429   0.895   0.658  0.4669 -0.4236  0.1116
24307SOL    HW184899   5.397   0.953   0.728  0.8572 -2.7221  2.3517
24307SOL    HW284900   5.517   0.927   0.639 -0.1162  1.0142 -0.2920
24308SOL     OW84901   5.004   2.219   1.929 -0.0511  0.4042  0.4983
24308SOL    HW184902   4.991   2.231   2.023 -1.7888 -1.8024  0.6413
24308SOL    HW284903   5.011   2.124   1.918 -3.4299  0.2536 -1.8619
24309SOL     OW84904   2.546   9.022   4.261  0.2143  0.7491  0.5440
24309SOL    HW184905   2.568   9.055   4.348 -0.4852  0.7049  0.7450
24309SOL    HW284906   2.473   8.961   4.276  0.8649 -0.1655  0.0675
24310SOL     OW84907   2.601   0.443   5.912 -0.2515 -0.4607  0.4134
24310SOL    HW184908   2.573   0.352   5.899  0.3954 -0.7666  1.0977
24310SOL    HW284909   2.523   0.495   5.892 -0.6466 -1.1681  0.0682
24311SOL     OW84910   6.949   5.115   3.191  0.0909 -0.8179  0.1525
24311SOL    HW184911   6.917   5.093   3.278  0.8233  1.4021  1.0360
24311SOL    HW284912   6.870   5.136   3.140 -0.4377 -3.1713 -0.1142
24312SOL     OW84913   0.911   6.583   6.896  0.2207  0.6104  0.7761
24312SOL    HW184914   0.921   6.664   6.847 -0.8097  1.7194  2.2869
24312SOL    HW284915   0.883   6.611   6.984  0.3044 -1.3484  1.4920
24313SOL     OW84916   1.666   1.963   7.992 -0.1343  0.1527  0.3596
24313SOL    HW184917   1.708   2.049   7.985 -1.3639  0.7261 -0.3288
24313SOL    HW284918   1.572   1.983   7.992 -0.4184 -1.1416  1.0481
24314SOL     OW84919   5.766   8.479   9.011 -0.2265 -0.2736  0.0159
24314SOL    HW184920   5.684   8.501   8.968 -0.5285 -0.9939  0.1979
24314SOL    HW284921   5.804   8.563   9.037 -1.4995  0.0124  1.0214
24315SOL     OW84922   7.008   8.795   8.127 -0.0225 -0.2296  0.1879
24315SOL    HW184923   7.028   8.702   8.134  0.3977 -0.0966  0.7514
24315SOL    HW284924   7.024   8.815   8.034 -1.3027 -0.9813 -0.2168
24316SOL     OW84925   7.950   6.884   3.685  0.7783 -0.2161  0.2938
24316SOL    HW184926   8.029   6.899   3.737  0.4051 -0.7204  1.0139
24316SOL    HW284927   7.878   6.915   3.740  0.5640  1.8285 -1.0156
24317SOL     OW84928   3.275   0.900   7.739  0.5467 -0.4780 -0.6942
24317SOL    HW184929   3.298   0.837   7.807 -1.4060 -1.8552 -1.2102
24317SOL    HW284930   3.262   0.847   7.660  0.4037  0.7688 -1.5405
24318SOL     OW84931   3.226   6.828   7.867  0.4516 -0.0428  0.1308
24318SOL    HW184932   3.313   6.831   7.906  0.1754 -5.2340  1.8939
24318SOL    HW284933   3.167   6.854   7.937  0.4294 -1.1507  0.5534
24319SOL     OW84934   0.819   6.482   8.872 -0.1613  0.2547  0.3909
24319SOL    HW184935   0.754   6.460   8.938 -1.3900  2.1290 -0.1412
24319SOL    HW284936   0.817   6.577   8.866  2.7128  0.4075  0.3965
24320SOL     OW84937   6.108   6.852   8.159 -0.6399 -0.0079  0.1469
24320SOL    HW184938   6.051   6.832   8.084 -1.3077 -0.3609  0.7382
24320SOL    HW284939   6.078   6.937   8.189  0.0509  0.4250 -0.3699
24321SOL     OW84940   1.808   2.146   0.467  0.0955 -0.2322 -0.7478
24321SOL    HW184941   1.752   2.222   0.451  0.8321  0.4019 -0.3721
24321SOL    HW284942   1.815   2.103   0.381 -0.4393  0.0393 -0.9322
24322SOL     OW84943   9.240   2.585   5.160 -0.3929 -0.1925 -0.1272
24322SOL    HW184944   9.226   2.678   5.138  1.1537 -0.1234 -0.9192
24322SOL    HW284945   9.152   2.548   5.160 -1.1486  1.4514  1.0960
24323SOL     OW84946   4.344  10.216   6.492 -0.8298 -0.1161 -0.5447
24323SOL    HW184947   4.292  10.178   6.563 -0.7811 -0.6349 -0.7833
24323SOL    HW284948   4.373  10.140   6.441  1.4288 -0.0027  0.4278
24324SOL     OW84949   0.103   5.282   2.646  0.4333 -0.2636 -0.3887
24324SOL    HW184950   0.074   5.373   2.645 -0.5981 -0.5320  1.4652
24324SOL    HW284951   0.152   5.272   2.564 -0.9391  1.4530 -1.4888
24325SOL     OW84952   1.840   4.486   5.139  0.1048  0.2066  0.3376
24325SOL    HW184953   1.827   4.425   5.211 -0.6095 -0.4757 -0.3588
24325SOL    HW284954   1.771   4.551   5.149 -2.1317 -1.7134 -1.5854
24326SOL     OW84955   4.005   2.893   1.821 -0.1450  0.5295 -0.1454
24326SOL    HW184956   3.968   2.824   1.876  2.0191 -1.0174 -0.5140
24326SOL    HW284957   3.929   2.938   1.785 -1.6393  0.1070  2.2284
24327SOL     OW84958  10.383   9.599   5.016  0.1258  0.3872  0.3844
24327SOL    HW184959  10.448   9.548   5.063  0.2621  0.2418  0.0475
24327SOL    HW284960  10.413   9.597   4.925 -0.5818 -0.0587  0.1534
24328SOL     OW84961   0.180  10.285   5.527  1.0078  0.5600  0.4140
24328SOL    HW184962   0.224  10.254   5.448  0.2372  2.0047 -0.6238
24328SOL    HW284963   0.228  10.243   5.599  1.1441 -1.5002 -0.8217
24329SOL     OW84964   8.324   3.307   9.183  0.4208 -0.3429  0.3189
24329SOL    HW184965   8.347   3.215   9.168  0.6180 -0.3424  0.6140
24329SOL    HW284966   8.375   3.332   9.260 -0.0713 -0.1518  0.5853
24330SOL     OW84967   6.410   6.462   5.829  0.3260  0.1225 -0.3514
24330SOL    HW184968   6.387   6.484   5.919  0.8721  1.6569 -0.5567
24330SOL    HW284969   6.505   6.465   5.826  0.3606 -0.8655 -0.7705
24331SOL     OW84970   5.546   4.829   1.346  0.8727 -0.4284 -0.5435
24331SOL    HW184971   5.600   4.888   1.397  0.4528  0.3044 -0.9276
24331SOL    HW284972   5.592   4.745   1.349  1.7760  0.0570 -0.4656
24332SOL     OW84973   3.303   4.423   8.286  0.1779  0.3153  0.2921
24332SOL    HW184974   3.259   4.348   8.327  0.1139 -1.2256 -2.3849
24332SOL    HW284975   3.388   4.428   8.331  0.4445 -1.7920  0.1174
24333SOL     OW84976   0.596   4.764   9.230  0.5506 -0.0484  0.1842
24333SOL    HW184977   0.556   4.681   9.259 -0.8167  0.9342  1.2332
24333SOL    HW284978   0.602   4.756   9.135 -0.5812 -0.9136  0.1632
24334SOL     OW84979   4.821   0.299   7.379 -0.2138  0.1048  0.1574
24334SOL    HW184980   4.818   0.218   7.327 -2.6301  1.3160 -1.8153
24334SOL    HW284981   4.890   0.351   7.337  1.2696 -0.8084  1.3619
24335SOL     OW84982   6.437   8.755   9.731  0.1920  0.2243  0.0899
24335SOL    HW184983   6.439   8.784   9.640  0.2014  0.4128  0.1509
24335SOL    HW284984   6.401   8.666   9.727 -0.2795  0.4193 -0.0498
24336SOL     OW84985   1.759  10.161   9.065  0.3001 -0.4980  0.3434
24336SOL    HW184986   1.831  10.224   9.053 -0.1215  0.0049  0.4174
24336SOL    HW284987   1.710  10.165   8.983 -0.6361  0.4486  0.9229
24337SOL     OW84988   1.676   5.698   9.802  0.1691  0.4922 -0.1814
24337SOL    HW184989   1.739   5.769   9.789 -1.7753  2.2261 -0.6170
24337SOL    HW284990   1.649   5.673   9.714  1.2273 -1.2444 -0.0672
24338SOL     OW84991   1.641  10.312   8.860 -0.2094 -0.1636  0.1636
24338SOL    HW184992   1.574  10.284   8.923  0.9295 -0.8863  1.0883
24338SOL    HW284993   1.607  10.284   8.775 -1.9210  1.0898  0.3774
24339SOL     OW84994   0.005   0.006   6.556  0.1928  0.6600 -0.1569
24339SOL    HW184995  -0.050  -0.024   6.483 -1.2251 -1.0897  1.5145
24339SOL    HW284996   0.052   0.082   6.521 -0.8244  0.2252 -2.6954
24340SOL     OW84997   6.736   0.065   1.653 -0.1078  0.0331 -0.0614
24340SOL    HW184998   6.796   0.001   1.690 -0.4863 -0.1405  0.2517
24340SOL    HW284999   6.661   0.067   1.713  0.1975  1.2706  0.3232
24341SOL     OW85000  10.388   2.257   7.124 -0.2096  0.1995 -0.6190
24341SOL    HW185001  10.339   2.337   7.104  0.9042  1.0664 -0.0033
24341SOL    HW285002  10.421   2.227   7.039 -2.7704 -1.1130 -1.2450
24342SOL     OW85003   6.062   5.184   4.002 -0.5116  0.6150  0.0499
24342SOL    HW185004   6.019   5.186   4.087 -1.0330  3.4079 -0.1923
24342SOL    HW285005   6.143   5.135   4.017 -1.9156 -1.4044  1.4279
24343SOL     OW85006   9.231   9.001   1.703  0.6550 -0.2365 -0.6555
24343SOL    HW185007   9.259   9.032   1.789 -0.5810 -0.9444  0.0244
24343SOL    HW285008   9.307   9.018   1.646  1.3955  0.4857  0.4951
24344SOL     OW85009   0.181   0.325   1.143 -0.2132  0.3819  0.0993
24344SOL    HW185010   0.227   0.358   1.065 -0.6461 -2.6288 -1.5863
24344SOL    HW285011   0.090   0.349   1.128 -0.1136  0.9732  0.3898
24345SOL     OW85012   1.645   1.295   1.601 -0.2094 -0.2125 -0.0658
24345SOL    HW185013   1.636   1.269   1.693  1.2871 -0.4328  0.0310
24345SOL    HW285014   1.676   1.216   1.557 -1.8896 -0.4156 -0.9853
24346SOL     OW85015   4.396   5.184   3.782  0.2520  0.4801  0.7985
24346SOL    HW185016   4.366   5.270   3.754 -0.2825 -0.2887 -1.2151
24346SOL    HW285017   4.320   5.127   3.770  1.4754 -0.8949 -1.2948
24347SOL     OW85018   1.077   6.973   8.092  0.5155  0.2483  0.1784
24347SOL    HW185019   1.013   7.030   8.049  0.5053  1.2727  1.4960
24347SOL    HW285020   1.154   7.028   8.105  0.8391 -0.2997  0.6697
24348SOL     OW85021   9.299   9.199   5.229 -0.3230  0.1106 -0.0081
24348SOL    HW185022   9.294   9.235   5.318 -0.6602  0.2943 -0.0975
24348SOL    HW285023   9.217   9.150   5.218  0.3727 -1.1583  0.3074
24349SOL     OW85024   7.820   8.808   9.317  0.3354  0.1437  0.2892
24349SOL    HW185025   7.763   8.780   9.245 -1.1695  1.1195  1.0495
24349SOL    HW285026   7.884   8.737   9.325 -0.2680 -0.6109 -1.1372
24350SOL     OW85027   2.223  10.014   8.001  0.2570 -0.8781 -0.3582
24350SOL    HW185028   2.232   9.923   8.031 -2.4751 -0.8948  0.7005
24350SOL    HW285029   2.185  10.060   8.075 -0.1755  0.7052 -1.5260
24351SOL     OW85030   7.549   3.898   7.418  0.1232  0.2782  0.3538
24351SOL    HW185031   7.502   3.894   7.500  0.1778 -0.2881  0.3625
24351SOL    HW285032   7.639   3.874   7.441 -0.1579 -1.3135 -0.0883
24352SOL     OW85033   9.966   9.465   4.902  0.3138  0.3970  0.2923
24352SOL    HW185034   9.879   9.504   4.903  0.4444  0.6877  1.1221
24352SOL    HW285035   9.954   9.375   4.930  0.0291 -0.1626 -1.5010
24353SOL     OW85036   2.875   2.817   0.232  0.2945 -0.0941  0.8677
24353SOL    HW185037   2.902   2.805   0.141  1.2473 -1.5020  1.3220
24353SOL    HW285038   2.809   2.887   0.228 -0.8589 -1.2271 -1.0978
24354SOL     OW85039   1.096   4.351   1.967 -0.2980 -0.2737  0.3932
24354SOL    HW185040   1.014   4.305   1.949  0.1781 -1.3235  0.8603
24354SOL    HW285041   1.109   4.342   2.061 -0.6319  1.5835  0.6640
24355SOL     OW85042   8.897   6.889   9.496 -0.4519 -0.4108  0.0352
24355SOL    HW185043   8.951   6.825   9.450  1.9974  0.9449  0.8027
24355SOL    HW285044   8.825   6.839   9.533  1.0651 -2.6258  0.1595
24356SOL     OW85045   2.690   8.206   3.076 -0.0493  0.1759  0.0355
24356SOL    HW185046   2.713   8.298   3.079  0.0408  0.1236  2.3947
24356SOL    HW285047   2.773   8.161   3.063 -0.0328  0.3684 -0.5916
24357SOL     OW85048   0.846   3.759   6.446  0.1565  0.3703 -0.0602
24357SOL    HW185049   0.905   3.684   6.434 -0.6477  0.1694 -4.4016
24357SOL    HW285050   0.904   3.835   6.450  0.8754 -0.0840 -1.2533
24358SOL     OW85051   2.869   8.562   4.053  0.0252 -0.2810  0.0442
24358SOL    HW185052   2.778   8.580   4.029  0.1771 -0.8512 -1.0232
24358SOL    HW285053   2.908   8.648   4.067 -0.0206  0.1485 -2.0832
24359SOL     OW85054   9.123   7.197   8.823 -0.0944  0.0064 -0.4411
24359SOL    HW185055   9.029   7.193   8.805 -0.4127 -1.1723  1.2551
24359SOL    HW285056   9.158   7.115   8.789 -0.1871 -0.8247  1.3676
24360SOL     OW85057   1.902   8.584   5.286 -0.3563 -0.4425  0.1046
24360SOL    HW185058   1.852   8.507   5.262 -0.9799  0.1853 -0.6633
24360SOL    HW285059   1.936   8.619   5.204  0.7836 -0.4624  0.5413
24361SOL     OW85060   5.545   3.236   4.341 -0.2750  0.2310 -0.1035
24361SOL    HW185061   5.476   3.212   4.403 -0.9671  0.8960 -0.6121
24361SOL    HW285062   5.585   3.152   4.316  1.1299  0.0102  2.4617
24362SOL     OW85063  10.175   6.999   2.687  0.5908 -0.4060  0.6807
24362SOL    HW185064  10.208   6.984   2.776  0.5045 -1.6682  0.5233
24362SOL    HW285065  10.113   6.927   2.673  2.7211 -1.9863 -1.4440
24363SOL     OW85066   6.393   8.965   2.237  0.5516  0.5056 -0.1888
24363SOL    HW185067   6.471   9.012   2.207  0.3447  2.0213  1.4576
24363SOL    HW285068   6.422   8.916   2.314  0.4658 -1.1747 -1.1600
24364SOL     OW85069   9.382   9.442   9.592 -0.1077 -0.0447 -0.1265
24364SOL    HW185070   9.289   9.430   9.607 -0.6054  0.2920 -2.5372
24364SOL    HW285071   9.396   9.537   9.595  0.7228 -0.1520  2.7298
24365SOL     OW85072   3.274   6.129  10.277 -0.0441 -0.2717  0.1975
24365SOL    HW185073   3.253   6.095  10.190  1.4211 -1.6055  0.3296
24365SOL    HW285074   3.291   6.051  10.330  1.1750  0.5751  1.1070
24366SOL     OW85075   2.711   7.531   7.752 -0.2308 -0.5709 -0.0508
24366SOL    HW185076   2.760   7.613   7.754  1.4068 -1.5218  0.6086
24366SOL    HW285077   2.725   7.493   7.839 -0.4630 -1.8267 -0.5418
24367SOL     OW85078   4.852   1.639   0.860 -0.1297  0.1570 -0.5377
24367SOL    HW185079   4.927   1.654   0.918 -0.5960  1.6324 -0.2712
24367SOL    HW285080   4.881   1.569   0.802  1.0837  0.0095  0.1961
24368SOL     OW85081   0.357   6.121   9.027  0.2045 -0.4786 -0.4540
24368SOL    HW185082   0.395   6.044   8.984  1.5235 -0.6243  0.8600
24368SOL    HW285083   0.421   6.191   9.011  0.1038 -0.2286  0.2141
24369SOL     OW85084   0.382   9.243   4.413  0.3134 -0.4540  0.3955
24369SOL    HW185085   0.389   9.338   4.399 -1.1404 -0.4932 -0.8273
24369SOL    HW285086   0.469   9.210   4.391  0.7656  0.5598  0.5918
24370SOL     OW85087   0.244   6.658   0.668 -0.2293  0.1873 -0.5181
24370SOL    HW185088   0.274   6.605   0.594  0.1180  0.0289 -0.2656
24370SOL    HW285089   0.243   6.598   0.742  0.2402  0.5448 -0.2104
24371SOL     OW85090   0.352   0.277   5.778  0.0274  0.2521  0.1675
24371SOL    HW185091   0.411   0.346   5.749  1.0664  0.2336  2.1009
24371SOL    HW285092   0.371   0.265   5.871 -1.8145 -0.9773  0.4601
24372SOL     OW85093   6.753   9.406   7.919 -0.1801 -0.0860  0.4183
24372SOL    HW185094   6.707   9.324   7.936 -0.2282 -0.1070  0.2004
24372SOL    HW285095   6.816   9.414   7.990 -0.4716 -0.0940  0.6785
24373SOL     OW85096   0.016   9.634   5.642 -0.6141 -0.2240  0.2230
24373SOL    HW185097   0.098   9.602   5.604 -1.1536 -1.3856 -0.0022
24373SOL    HW285098  -0.016   9.698   5.579 -0.4527 -0.6014 -0.2469
24374SOL     OW85099   1.729   2.990   0.693  0.8210 -0.0859  0.0489
24374SOL    HW185100   1.747   2.939   0.614  3.3451  1.9617 -0.8489
24374SOL    HW285101   1.701   3.076   0.661  0.7360  0.4119  1.3902
24375SOL     OW85102   3.730   4.931   4.137 -0.3953  0.0075  0.0480
24375SOL    HW185103   3.792   4.979   4.082 -0.2498  1.7030  1.5768
24375SOL    HW285104   3.724   4.844   4.098  0.0853  0.9711 -2.2921
24376SOL     OW85105   1.965   7.967   0.158  0.2115 -0.3676  0.1578
24376SOL    HW185106   1.871   7.971   0.141  0.4632  1.2580 -1.0859
24376SOL    HW285107   2.002   7.920   0.084  0.3452 -1.4579  0.8983
24377SOL     OW85108   9.970   9.995   3.274  0.3092 -0.3200  0.2190
24377SOL    HW185109   9.948  10.008   3.182 -0.4943  1.1288  0.5802
24377SOL    HW285110  10.056   9.953   3.273 -0.1934 -1.3627 -1.1962
24378SOL     OW85111   5.854   5.371   5.919 -0.1781 -0.3682 -0.5494
24378SOL    HW185112   5.942   5.356   5.885  0.6904 -0.6087  1.6646
24378SOL    HW285113   5.822   5.448   5.872  2.3650  1.5382  0.6232
24379SOL     OW85114   2.956   5.630   9.958  0.5253 -0.4247 -0.7518
24379SOL    HW185115   2.888   5.584  10.007  0.5965  1.7837  1.6793
24379SOL    HW285116   2.913   5.659   9.878 -1.0108 -0.3170  0.0800
24380SOL     OW85117   3.101   7.994   5.828  0.1201  0.2772  0.3089
24380SOL    HW185118   3.015   8.005   5.870 -0.8827  1.9718 -1.9556
24380SOL    HW285119   3.163   7.993   5.900 -1.5545  2.1596  1.8807
24381SOL     OW85120   9.785   7.989   8.747  0.5497  0.1653 -0.1393
24381SOL    HW185121   9.880   7.995   8.738  0.5728 -0.8560 -0.7798
24381SOL    HW285122   9.765   8.036   8.828  1.3277  2.3568 -1.1471
24382SOL     OW85123   0.772   8.535   4.310  0.0955  0.7818  0.0059
24382SOL    HW185124   0.844   8.593   4.335 -0.9345  1.6791  0.9696
24382SOL    HW285125   0.773   8.465   4.375  0.6966  0.2309 -0.5684
24383SOL     OW85126   0.490   3.045   9.610 -0.2597  0.3289  0.1296
24383SOL    HW185127   0.454   3.021   9.524 -1.9790  0.4197  0.7844
24383SOL    HW285128   0.575   3.002   9.613 -0.5256 -0.3580 -1.2915
24384SOL     OW85129   8.541   1.231   8.123  0.4410 -0.0055  0.2879
24384SOL    HW185130   8.487   1.246   8.046  1.0434  1.5656  0.1371
24384SOL    HW285131   8.485   1.255   8.197  0.4367  0.1939  0.2214
24385SOL     OW85132   0.550   5.201   6.025 -0.3908  0.2034  0.6160
24385SOL    HW185133   0.491   5.142   6.071 -1.4106  1.2438  0.6728
24385SOL    HW285134   0.626   5.146   6.003 -2.0547 -1.6321 -0.9258
24386SOL     OW85135   2.184   6.085   2.000 -0.0385  0.4956  0.6354
24386SOL    HW185136   2.224   6.169   1.982  1.5192 -0.2589  0.3705
24386SOL    HW285137   2.195   6.035   1.919  1.1715 -0.7141  1.4913
24387SOL     OW85138   0.971   9.670   9.933  0.2010 -0.6815  0.5058
24387SOL    HW185139   0.993   9.739   9.871  0.8508  1.5602  3.0563
24387SOL    HW285140   1.051   9.618   9.940  0.0137 -1.1784 -0.7008
24388SOL     OW85141   0.922   8.792   5.390 -0.2272  0.3165  0.0304
24388SOL    HW185142   0.955   8.722   5.446  2.1847 -0.0698 -1.6985
24388SOL    HW285143   1.000   8.829   5.350 -1.6863  1.9109 -1.5014
24389SOL     OW85144   1.849   8.475   4.997  0.2274  0.4460 -0.4977
24389SOL    HW185145   1.763   8.511   4.972  0.3574  0.6513 -0.6507
24389SOL    HW285146   1.907   8.500   4.925  0.8581  1.9776  0.5102
24390SOL     OW85147   3.593   9.232   3.664  0.0539  0.0731  0.1579
24390SOL    HW185148   3.601   9.323   3.633  2.0246  0.4626  1.6142
24390SOL    HW285149   3.627   9.179   3.591  2.3629  0.8104  0.6033
24391SOL     OW85150   6.678   4.359   2.728  0.2256 -0.2461 -0.2779
24391SOL    HW185151   6.679   4.451   2.756 -0.6275 -0.4286  0.3888
24391SOL    HW285152   6.599   4.323   2.767  1.0477 -1.5298  0.2867
24392SOL     OW85153   3.804   3.404   4.575  0.1048  0.0283  0.3580
24392SOL    HW185154   3.804   3.402   4.671  1.6301 -0.3598  0.3639
24392SOL    HW285155   3.825   3.315   4.549  1.4094  0.5042 -0.2995
24393SOL     OW85156   9.290  10.047   2.441 -0.4405  0.1256 -0.0892
24393SOL    HW185157   9.256   9.968   2.400  0.7871 -0.6706  0.3800
24393SOL    HW285158   9.373  10.063   2.397  0.2610  0.0159  1.1442
24394SOL     OW85159   2.719   6.630   5.596  0.2608 -0.0996 -0.4194
24394SOL    HW185160   2.790   6.670   5.545  1.6616 -1.5292  0.3066
24394SOL    HW285161   2.721   6.676   5.680  1.3535 -1.0973  0.1332
24395SOL     OW85162   1.363   9.789   4.007  0.1988 -0.4379 -0.2197
24395SOL    HW185163   1.369   9.694   4.014  1.2284 -0.4015 -0.4845
24395SOL    HW285164   1.446   9.816   3.968  0.3891  0.6693  0.8757
24396SOL     OW85165   5.264   3.124   8.702 -0.6775  0.2157  0.0035
24396SOL    HW185166   5.270   3.205   8.751 -2.4256  0.7850 -0.6209
24396SOL    HW285167   5.317   3.061   8.751 -0.8002  1.2572  1.5210
24397SOL     OW85168   6.047   7.323   9.467 -0.3863  0.5279  0.2053
24397SOL    HW185169   6.112   7.336   9.397 -0.9910  1.3443 -0.2279
24397SOL    HW285170   5.973   7.282   9.423  0.3759 -1.8467  1.0005
24398SOL     OW85171   2.536   4.340   6.910 -0.0965  0.4312  0.4648
24398SOL    HW185172   2.499   4.427   6.921  1.0347  0.7281  2.3147
24398SOL    HW285173   2.492   4.286   6.976  1.1776  0.2886  1.2362
24399SOL     OW85174   7.779   0.285   4.789 -0.5860 -0.3391  0.0452
24399SOL    HW185175   7.823   0.214   4.743 -0.6239  0.5772 -1.4664
24399SOL    HW285176   7.773   0.255   4.880  2.5988 -0.7481  0.2241
24400SOL     OW85177  10.355   3.201   1.240 -0.3800 -0.3404 -0.2320
24400SOL    HW185178  10.333   3.208   1.333 -0.1904 -0.5540 -0.1707
24400SOL    HW285179  10.444   3.236   1.234  0.0930 -1.4850 -0.1267
24401SOL     OW85180   1.428   8.422   8.354  1.0067  0.3026 -0.2444
24401SOL    HW185181   1.375   8.388   8.282 -2.6384  1.3134  1.7083
24401SOL    HW285182   1.432   8.351   8.417  1.5610  0.4356 -0.1202
24402SOL     OW85183   7.500   1.839   4.745 -0.7726 -0.3224  0.1961
24402SOL    HW185184   7.591   1.829   4.774  0.0288  1.2480 -1.5355
24402SOL    HW285185   7.451   1.776   4.797  1.3985 -1.6727  0.7428
24403SOL     OW85186   5.126   6.093   7.774  0.6361 -0.2487 -0.1823
24403SOL    HW185187   5.209   6.096   7.727  0.3719 -1.0540 -0.7139
24403SOL    HW285188   5.069   6.155   7.728  1.2355  1.1082  0.8148
24404SOL     OW85189   5.979   8.256   5.127  0.3210 -0.6875 -0.3442
24404SOL    HW185190   6.019   8.290   5.207 -0.3290 -0.4884 -0.0943
24404SOL    HW285191   5.897   8.305   5.119  1.3884  0.9755 -2.3632
24405SOL     OW85192   8.135   7.685   3.251  0.3400 -0.3938 -0.2602
24405SOL    HW185193   8.084   7.686   3.170  0.4856  0.0871 -0.3529
24405SOL    HW285194   8.213   7.634   3.231  0.3857 -0.2575 -0.4307
24406SOL     OW85195   2.746  10.258   3.955  0.0265 -0.9463  0.0802
24406SOL    HW185196   2.718  10.337   3.909  0.8940 -0.2792  0.6728
24406SOL    HW285197   2.664  10.213   3.976 -0.3952 -1.3690 -2.2390
24407SOL     OW85198   0.666   0.555   0.259 -0.0912  0.1855  0.2128
24407SOL    HW185199   0.641   0.539   0.350  1.1774 -0.1744  0.5210
24407SOL    HW285200   0.672   0.468   0.220 -0.5566  0.3349 -0.2013
24408SOL     OW85201   5.982   2.689   6.635 -0.0488 -0.1939  0.2126
24408SOL    HW185202   5.982   2.783   6.653  0.6747  0.0364 -0.8637
24408SOL    HW285203   5.965   2.684   6.541 -0.4527 -1.1612  0.3297
24409SOL     OW85204   5.193   9.670   6.076 -0.2135  0.2837  0.0706
24409SOL    HW185205   5.219   9.594   6.128 -1.7478  0.6287  1.4352
24409SOL    HW285206   5.238   9.659   5.993 -0.2640 -2.0466  0.2854
24410SOL     OW85207   7.633   5.424   8.384 -0.8612 -0.1118  0.3118
24410SOL    HW185208   7.551   5.444   8.339 -2.7752 -1.9392  2.6501
24410SOL    HW285209   7.616   5.449   8.475  0.8880 -1.2747  1.0072
24411SOL     OW85210   2.301   8.235   5.663  0.3606 -0.2546 -0.2517
24411SOL    HW185211   2.353   8.297   5.713  1.4934 -2.8287  1.9739
24411SOL    HW285212   2.210   8.260   5.681  0.7828  0.6073  0.7723
24412SOL     OW85213   9.604   2.021   9.888  0.1792 -0.1608  0.3807
24412SOL    HW185214   9.583   2.101   9.938 -1.1672  0.6444 -1.3637
24412SOL    HW285215   9.584   2.043   9.797  1.6884 -1.8752 -0.4415
24413SOL     OW85216   2.362   3.445   1.110 -0.2086  0.4921 -0.1483
24413SOL    HW185217   2.394   3.531   1.084 -1.8860  1.7290  1.5821
24413SOL    HW285218   2.284   3.463   1.163 -0.6102 -2.0968  0.3037
24414SOL     OW85219   2.911   1.567   6.797 -0.2702  0.3945 -0.3745
24414SOL    HW185220   2.918   1.623   6.874  0.6760 -1.2350  0.8039
24414SOL    HW285221   3.002   1.557   6.767 -0.4314 -0.3935 -0.6235
24415SOL     OW85222   9.181   7.863   6.267  0.2482  0.1114 -0.0015
24415SOL    HW185223   9.144   7.939   6.312  1.4529  2.6146 -2.9095
24415SOL    HW285224   9.158   7.789   6.323 -3.0373  2.2687  1.8472
24416SOL     OW85225   7.822   1.405   0.264 -0.5842 -0.8987  0.1910
24416SOL    HW185226   7.892   1.437   0.320  0.0269 -1.8501 -0.0029
24416SOL    HW285227   7.849   1.427   0.175 -0.9766 -0.4603  0.1746
24417SOL     OW85228   3.145   9.809   3.156 -0.7812  0.0796 -0.0713
24417SOL    HW185229   3.133   9.882   3.095  0.9558  0.5878  0.1470
24417SOL    HW285230   3.185   9.849   3.233  2.3541 -1.3809 -0.8047
24418SOL     OW85231   6.502   6.822   7.124  0.5404  0.1845  0.0004
24418SOL    HW185232   6.524   6.864   7.208  0.8293 -0.1792  0.1125
24418SOL    HW285233   6.470   6.735   7.149 -1.7165  0.9208 -0.1051
24419SOL     OW85234   3.110   3.474   2.773  0.6787 -0.4493 -0.7277
24419SOL    HW185235   3.112   3.382   2.745  1.0476 -0.2836 -1.2564
24419SOL    HW285236   3.202   3.500   2.779  0.5841 -0.2190 -0.2177
24420SOL     OW85237   0.131   2.778   2.226 -0.4006  0.3918  0.5425
24420SOL    HW185238   0.161   2.724   2.300  1.3096 -0.2206 -0.5435
24420SOL    HW285239   0.187   2.751   2.153 -1.6214  1.4428 -0.8250
24421SOL     OW85240   3.235   7.351   5.628  0.2972 -0.6648  0.0073
24421SOL    HW185241   3.171   7.372   5.695  1.4027 -0.5362  1.0467
24421SOL    HW285242   3.318   7.343   5.675  1.9422  3.3352 -1.7654
24422SOL     OW85243   0.751  10.093   0.619 -0.4120 -0.6052  0.0862
24422SOL    HW185244   0.678  10.118   0.561  0.1892 -1.3360 -1.0095
24422SOL    HW285245   0.717  10.020   0.671 -0.2089 -1.5108 -1.0226
24423SOL     OW85246  10.364   5.868  10.356 -0.2842  0.6651 -0.6483
24423SOL    HW185247  10.348   5.938  10.293  0.4876  0.5680 -0.9551
24423SOL    HW285248  10.411   5.910  10.428  0.4651  0.4016 -0.9791
24424SOL     OW85249   0.191   9.753  10.252  0.1606 -0.2390  0.1849
24424SOL    HW185250   0.121   9.798  10.205  0.4349  1.8176  1.6073
24424SOL    HW285251   0.272   9.792  10.218  0.4990 -0.8082  0.3191
24425SOL     OW85252   2.553   3.611   2.115  0.1767  0.4232 -0.0180
24425SOL    HW185253   2.543   3.706   2.106 -1.5708  0.2825  0.1497
24425SOL    HW285254   2.562   3.596   2.209 -1.4794  0.3021  0.1535
24426SOL     OW85255   6.690   0.524   0.192  0.4639 -0.3240 -0.7517
24426SOL    HW185256   6.773   0.572   0.192  1.0250 -1.0591  2.2267
24426SOL    HW285257   6.623   0.592   0.198  1.0992  0.2172  0.5643
24427SOL     OW85258   0.342   6.433   1.739 -0.3482  0.6898 -0.8246
24427SOL    HW185259   0.424   6.463   1.700 -0.3578  1.6041 -0.1564
24427SOL    HW285260   0.300   6.512   1.772 -0.0149 -0.1066  1.7002
24428SOL     OW85261   5.596   4.557   7.222  0.2955  0.2055 -0.2193
24428SOL    HW185262   5.522   4.529   7.168 -0.5157  0.5820  0.6664
24428SOL    HW285263   5.652   4.480   7.228  0.3375  0.1120 -1.4726
24429SOL     OW85264   2.655   9.408   7.063  0.3827  0.4760 -0.1073
24429SOL    HW185265   2.690   9.405   6.974 -0.1645  2.2286 -0.4360
24429SOL    HW285266   2.618   9.321   7.078  3.5863 -1.0190 -0.2237
24430SOL     OW85267   2.198   0.960   6.000  0.4618 -0.3883 -0.0438
24430SOL    HW185268   2.175   0.967   6.093  0.5893 -1.3083  0.0602
24430SOL    HW285269   2.118   0.927   5.958  0.6276 -0.6441 -0.1565
24431SOL     OW85270   3.787   5.782   5.917 -0.4587 -0.5581 -0.7878
24431SOL    HW185271   3.729   5.824   5.853 -0.2189 -1.0047 -1.3098
24431SOL    HW285272   3.762   5.820   6.001 -1.5194 -0.7590 -1.0052
24432SOL     OW85273   9.767   8.858   6.163  0.0135  0.1913 -0.3305
24432SOL    HW185274   9.755   8.896   6.076  1.3822 -0.1344 -0.6874
24432SOL    HW285275   9.851   8.813   6.158  0.7697  1.2834  1.5634
24433SOL     OW85276   8.733   0.169   0.864  0.5671  0.6349 -0.4254
24433SOL    HW185277   8.651   0.123   0.846  0.5734  0.4256  0.0463
24433SOL    HW285278   8.706   0.248   0.911  0.7378 -0.3461  1.4110
24434SOL     OW85279   9.347   5.238   8.979  0.5764  0.4007  0.2267
24434SOL    HW185280   9.421   5.269   9.030  2.0071 -0.6383 -1.1361
24434SOL    HW285281   9.383   5.172   8.920 -1.1704  0.8097 -1.4300
24435SOL     OW85282   0.493   7.362   0.350  0.1441  0.3201  0.6107
24435SOL    HW185283   0.432   7.292   0.371 -1.9241  1.3411 -1.5970
24435SOL    HW285284   0.454   7.440   0.389 -0.4694  1.1151 -1.4570
24436SOL     OW85285   8.412   6.842   5.847 -0.2023  0.3877  0.2801
24436SOL    HW185286   8.462   6.892   5.912 -0.7531  0.5026  0.6191
24436SOL    HW285287   8.350   6.791   5.899  0.1569 -0.4285 -0.0822
24437SOL     OW85288   1.675   6.479   4.837  0.1540 -0.0574 -0.2736
24437SOL    HW185289   1.712   6.567   4.845 -0.4087  0.0534  1.7976
24437SOL    HW285290   1.594   6.482   4.887 -0.2371 -1.5677 -0.7550
24438SOL     OW85291   7.910   7.517   6.868  0.2617 -0.1942  0.2920
24438SOL    HW185292   7.826   7.558   6.846  1.7356  0.8238 -4.8135
24438SOL    HW285293   7.964   7.589   6.902  0.1839  0.0425 -0.0799
24439SOL     OW85294   2.384   1.120   7.898  0.1759 -0.0002  0.8552
24439SOL    HW185295   2.443   1.192   7.918  0.6338  0.0864 -0.6537
24439SOL    HW285296   2.342   1.099   7.981  1.0859  1.0545  1.6085
24440SOL     OW85297   9.831   0.330   6.999  0.1462 -0.3478  1.3152
24440SOL    HW185298   9.850   0.272   6.925  0.4296  1.5424 -0.1705
24440SOL    HW285299   9.746   0.369   6.977  1.0256  1.5159  1.1114
24441SOL     OW85300   5.492   7.129   6.988  0.1306 -0.3085 -0.8823
24441SOL    HW185301   5.471   7.036   6.978 -0.6717 -0.1358 -0.8520
24441SOL    HW285302   5.568   7.131   7.045  1.3842 -1.0512 -2.4416
24442SOL     OW85303   2.635   7.225  10.064  0.1292 -0.7007 -0.0924
24442SOL    HW185304   2.675   7.194   9.983  0.6625 -1.4598  0.4469
24442SOL    HW285305   2.695   7.197  10.133 -0.5794 -0.5361  0.6116
24443SOL     OW85306   0.660   3.296   0.007 -0.4364  0.6367  0.2984
24443SOL    HW185307   0.725   3.328  -0.056  0.7469 -2.2005 -0.0536
24443SOL    HW285308   0.617   3.376   0.038  0.8685  2.3729 -1.9737
24444SOL     OW85309   7.677   9.657   0.389 -0.1369 -0.2891 -0.4135
24444SOL    HW185310   7.593   9.650   0.345 -0.9683  0.3444  1.0280
24444SOL    HW285311   7.678   9.585   0.452  0.9823 -1.0998 -1.3004
24445SOL     OW85312   8.585   6.764   4.545 -0.5230 -0.4388 -0.3319
24445SOL    HW185313   8.587   6.858   4.529  1.0384 -0.5762 -1.1565
24445SOL    HW285314   8.595   6.756   4.640 -0.0277  0.2094 -0.3242
24446SOL     OW85315   0.265   7.449   9.686  0.0150 -0.3011  0.7208
24446SOL    HW185316   0.219   7.366   9.700  4.2244 -2.9265  0.4354
24446SOL    HW285317   0.274   7.486   9.774 -1.0762 -0.5670  0.9637
24447SOL     OW85318   9.949   5.988   7.205  0.4286 -0.6056 -0.1077
24447SOL    HW185319   9.866   5.973   7.250  0.2487  1.0054  0.1791
24447SOL    HW285320   9.926   5.987   7.112  0.0217  0.0321 -0.0234
24448SOL     OW85321   3.743   1.154   9.228 -0.2181  0.6141 -0.8412
24448SOL    HW185322   3.677   1.157   9.298  0.1813  0.7284 -0.4635
24448SOL    HW285323   3.747   1.062   9.203  0.3285  0.4100 -0.0348
24449SOL     OW85324   7.648   5.921   5.205  0.0697  0.2485  0.3052
24449SOL    HW185325   7.672   5.989   5.267 -0.0345  0.5254  0.0423
24449SOL    HW285326   7.554   5.907   5.219 -0.1795  1.0434 -0.4987
24450SOL     OW85327   5.456   7.981   7.734  0.6153 -0.6103 -0.4877
24450SOL    HW185328   5.391   7.937   7.680  0.6182 -0.4004 -0.6655
24450SOL    HW285329   5.534   7.925   7.729  0.6629 -0.5148 -0.8235
24451SOL     OW85330   6.593  10.262   5.946  0.4233  0.4358  0.4322
24451SOL    HW185331   6.634  10.321   6.009 -0.9871  0.0358  1.7991
24451SOL    HW285332   6.649  10.185   5.945  0.6717  0.6036  0.9229
24452SOL     OW85333   9.366   1.134   7.780  0.4097  0.0309  0.3828
24452SOL    HW185334   9.376   1.040   7.766 -0.9453 -0.2663  1.2075
24452SOL    HW285335   9.449   1.162   7.818  1.4101 -0.5168 -1.3178
24453SOL     OW85336  10.062   5.947   1.635 -0.7439 -0.0911  0.1327
24453SOL    HW185337  10.086   5.902   1.554 -0.0908 -0.2043  0.3822
24453SOL    HW285338  10.099   5.893   1.704  0.0259  0.8044  0.4448
24454SOL     OW85339   0.967   6.568   4.117 -0.3791 -0.3587  0.2191
24454SOL    HW185340   0.994   6.632   4.050 -0.1434  0.9164  1.4947
24454SOL    HW285341   0.873   6.583   4.129 -0.1454  0.3852  1.1703
24455SOL     OW85342   0.459   4.815   8.256 -0.1227 -0.4654 -0.3113
24455SOL    HW185343   0.474   4.732   8.211 -0.6881 -0.8424  0.1862
24455SOL    HW285344   0.507   4.806   8.339 -0.9635 -0.6929  0.1720
24456SOL     OW85345   9.278   9.695   7.815  0.0568 -0.3640 -0.3773
24456SOL    HW185346   9.350   9.743   7.774  0.3407 -2.1820 -2.1962
24456SOL    HW285347   9.200   9.721   7.765 -0.1866 -0.0213  0.1772
24457SOL     OW85348   6.902   0.943   6.445  0.1077 -0.2919 -0.7359
24457SOL    HW185349   6.892   0.918   6.353  0.1481 -1.9846 -0.3214
24457SOL    HW285350   6.898   0.860   6.493  2.5941  0.2565  0.5925
24458SOL     OW85351  10.199   6.254   0.725  0.8599  0.7039 -0.8248
24458SOL    HW185352  10.193   6.325   0.661 -2.3667  1.5684  0.2548
24458SOL    HW285353  10.213   6.299   0.808  2.0572 -0.2146 -0.5039
24459SOL     OW85354   2.490   4.525  10.332  0.1336 -0.1954  0.5268
24459SOL    HW185355   2.571   4.477  10.347 -0.3433 -1.1024  0.2578
24459SOL    HW285356   2.442   4.520  10.415 -0.2376 -0.8353  0.2866
24460SOL     OW85357   6.586   0.957   7.062 -0.2263 -0.3217  0.3045
24460SOL    HW185358   6.677   0.947   7.034  0.1558  3.2584 -0.2279
24460SOL    HW285359   6.537   0.958   6.980 -0.5137 -0.4326  0.4746
24461SOL     OW85360   1.126   9.591   3.415  0.2257  0.4585 -0.5393
24461SOL    HW185361   1.079   9.629   3.490  0.1469  1.2104 -0.9625
24461SOL    HW285362   1.218   9.601   3.437  0.2061  1.0826 -0.7411
24462SOL     OW85363   0.260   8.500   8.964 -0.2624  0.0754  0.6406
24462SOL    HW185364   0.212   8.580   8.943  0.3589  0.5204  0.8761
24462SOL    HW285365   0.313   8.523   9.041  1.1721 -0.0466 -0.2752
24463SOL     OW85366   0.067   9.802   6.048 -0.4414  0.1530 -0.0570
24463SOL    HW185367   0.088   9.870   5.984 -0.0212  0.3271  0.2529
24463SOL    HW285368   0.089   9.843   6.133  0.4354 -0.5929  0.0934
24464SOL     OW85369   3.865   9.101   7.333  0.5386  0.1321  0.3914
24464SOL    HW185370   3.914   9.046   7.272  0.3922  1.0219 -0.5368
24464SOL    HW285371   3.910   9.089   7.417  0.3341 -1.6310  0.2877
24465SOL     OW85372   9.827   7.726   4.686 -0.4954  0.1617 -0.0381
24465SOL    HW185373   9.784   7.742   4.770 -0.8337  1.9426 -0.4958
24465SOL    HW285374   9.907   7.678   4.708 -1.9033 -1.8247  0.9817
24466SOL     OW85375   2.223   9.977   9.727 -0.1395  0.1385  0.0927
24466SOL    HW185376   2.192   9.986   9.637  2.4256  3.1886 -0.6299
24466SOL    HW285377   2.283   9.903   9.724 -1.0891 -0.6438 -0.3246
24467SOL     OW85378   7.763   3.050   7.838 -0.2055  0.2696 -0.2934
24467SOL    HW185379   7.766   3.012   7.750  3.8087 -0.0418 -0.2181
24467SOL    HW285380   7.716   2.985   7.890 -2.3043  0.2688 -2.0209
24468SOL     OW85381   2.784   2.361   8.281 -0.2131  0.0103  0.1951
24468SOL    HW185382   2.838   2.291   8.245 -0.8818 -0.8549  0.8264
24468SOL    HW285383   2.727   2.387   8.209 -0.2223 -0.3731  0.0623
24469SOL     OW85384   2.236   2.689   7.347 -0.0815  0.5381 -0.4213
24469SOL    HW185385   2.213   2.702   7.256 -2.0566 -0.2066 -0.0626
24469SOL    HW285386   2.158   2.715   7.396  0.4834 -0.2863  0.9804
24470SOL     OW85387   3.021   9.592   0.205  0.0854  0.1860  0.0897
24470SOL    HW185388   3.029   9.675   0.157  2.4381 -0.3149 -0.5099
24470SOL    HW285389   3.107   9.552   0.198 -0.5004 -1.5389  1.8425
24471SOL     OW85390   9.860   3.299   4.685  0.1842 -0.0606 -0.8376
24471SOL    HW185391   9.939   3.248   4.703 -0.0517 -1.3946 -3.1277
24471SOL    HW285392   9.797   3.270   4.751  1.2395  0.1674  0.2931
24472SOL     OW85393   6.059   0.383   0.052 -0.4257  0.7837 -0.0302
24472SOL    HW185394   6.071   0.299   0.098  0.3170 -0.2098 -1.9530
24472SOL    HW285395   6.090   0.449   0.114  1.4024 -0.5718  0.5772
24473SOL     OW85396   4.516   4.741   8.553  0.3486  0.0052  0.1070
24473SOL    HW185397   4.492   4.793   8.476 -0.2334  2.6823  1.9298
24473SOL    HW285398   4.432   4.720   8.595  0.7107  0.9630  1.3893
24474SOL     OW85399   5.405   5.292   4.406  0.3697 -0.1169 -0.2864
24474SOL    HW185400   5.353   5.265   4.330  0.9759  1.0717 -1.1509
24474SOL    HW285401   5.386   5.385   4.417  0.7283 -0.1413  0.6782
24475SOL     OW85402   8.069   4.548   0.088 -0.0014  0.3398 -0.2022
24475SOL    HW185403   8.092   4.629   0.041 -0.8100  1.4717  1.2597
24475SOL    HW285404   7.975   4.554   0.102 -0.0533 -0.8259  0.0358
24476SOL     OW85405   6.031   1.254   7.247 -0.5091 -0.0358 -0.0770
24476SOL    HW185406   6.102   1.306   7.284 -0.1057 -0.4039 -0.3392
24476SOL    HW285407   6.074   1.182   7.202 -1.0454 -0.2396 -0.2710
24477SOL     OW85408   5.087   7.825   4.128 -0.7651 -0.3747  0.2357
24477SOL    HW185409   5.099   7.734   4.154  0.1858 -0.4195 -0.3069
24477SOL    HW285410   5.010   7.854   4.177 -1.0616 -1.4555  0.4351
24478SOL     OW85411   1.068   7.561   2.840 -0.0136  0.5113  0.1266
24478SOL    HW185412   1.041   7.652   2.830 -3.5676 -0.3855  0.0131
24478SOL    HW285413   1.094   7.533   2.752 -0.3048  1.0545 -0.1363
24479SOL     OW85414   4.212   0.581   0.297 -0.3135 -0.1547 -0.3987
24479SOL    HW185415   4.146   0.650   0.283 -0.2528 -0.1101 -0.4664
24479SOL    HW285416   4.270   0.588   0.221 -0.5807 -0.5935 -0.6418
24480SOL     OW85417   0.975   2.835   9.089 -0.5169  0.2349  0.1480
24480SOL    HW185418   0.881   2.828   9.071 -0.4207  0.2141 -0.3597
24480SOL    HW285419   0.999   2.750   9.125 -0.7087  0.2659  0.3499
24481SOL     OW85420   9.203   4.164   4.405  0.1154  0.3603 -0.0083
24481SOL    HW185421   9.245   4.236   4.358 -2.5110  1.7911 -0.3625
24481SOL    HW285422   9.118   4.154   4.362 -0.4361 -1.5426  1.4061
24482SOL     OW85423   6.590   5.366   7.291 -0.3527  0.2163 -0.1112
24482SOL    HW185424   6.648   5.295   7.264  0.2094  1.3667 -2.1871
24482SOL    HW285425   6.637   5.411   7.361  1.7136  1.5103 -2.1757
24483SOL     OW85426   0.324   1.507   7.766 -0.1322 -0.1274  0.2104
24483SOL    HW185427   0.360   1.420   7.751 -1.1343 -0.3787 -0.9478
24483SOL    HW285428   0.254   1.515   7.701  1.5474  2.5069 -1.5026
24484SOL     OW85429   6.586   8.195   9.445 -0.0683  0.0068 -0.5557
24484SOL    HW185430   6.664   8.213   9.393  0.1790 -1.3609 -0.7066
24484SOL    HW285431   6.515   8.190   9.381 -0.2025  0.7474 -0.4741
24485SOL     OW85432   7.057   0.712   1.683  0.2740  0.3456  0.0395
24485SOL    HW185433   7.015   0.632   1.714  0.0271  0.3518 -0.2751
24485SOL    HW285434   6.986   0.763   1.643  0.2929  1.0298  0.8363
24486SOL     OW85435   2.172   4.070   0.765 -0.2453 -0.7519 -0.3136
24486SOL    HW185436   2.206   4.021   0.839  1.8728  0.5962 -0.3187
24486SOL    HW285437   2.214   4.032   0.689  0.2170  0.0170 -0.4599
24487SOL     OW85438   4.796   9.433   3.802 -0.6304 -0.4490  0.2523
24487SOL    HW185439   4.724   9.490   3.774 -0.3461 -1.1873 -2.1956
24487SOL    HW285440   4.755   9.348   3.819 -0.3114 -1.1211 -2.0096
24488SOL     OW85441   4.979   2.899   2.190 -0.4290 -0.1615 -0.1489
24488SOL    HW185442   4.953   2.948   2.111  1.4705 -0.6376 -1.1185
24488SOL    HW285443   4.897   2.883   2.236 -1.3905  1.7398 -1.0831
24489SOL     OW85444   5.116   5.754   6.664  0.3371  0.1702  0.1594
24489SOL    HW185445   5.206   5.720   6.666 -0.1169 -1.0612  0.2546
24489SOL    HW285446   5.090   5.757   6.756 -0.3085 -1.1531  0.0471
24490SOL     OW85447   2.148   3.799   9.234  0.3986 -0.4829  0.0067
24490SOL    HW185448   2.107   3.794   9.148 -0.5860  2.1575  0.2314
24490SOL    HW285449   2.077   3.787   9.296  1.0529 -2.0548  0.5022
24491SOL     OW85450   4.925   8.837   7.691  0.1388  0.2283  0.2550
24491SOL    HW185451   4.859   8.823   7.759 -0.5498  0.4842 -0.3399
24491SOL    HW285452   4.876   8.875   7.618  0.0691 -3.4434 -1.8315
24492SOL     OW85453   0.414   6.157   9.812  0.3234  0.4608  0.1007
24492SOL    HW185454   0.425   6.219   9.741 -0.4000 -0.0293 -0.4570
24492SOL    HW285455   0.480   6.182   9.876  1.0497  0.8610 -0.7771
24493SOL     OW85456   4.951   2.518   8.974 -0.0831  0.4619  0.4364
24493SOL    HW185457   5.034   2.484   9.006 -0.7216 -1.5019  0.1548
24493SOL    HW285458   4.915   2.567   9.048  0.0953 -0.9867  1.5220
24494SOL     OW85459   6.372   2.766   7.615  0.4932  0.4439 -0.2837
24494SOL    HW185460   6.395   2.833   7.550 -1.9121  1.7571  0.1169
24494SOL    HW285461   6.322   2.812   7.682 -0.5564 -1.5927  0.4420
24495SOL     OW85462   8.011   1.262   8.363  0.1525  0.0898  0.6166
24495SOL    HW185463   8.064   1.292   8.437  0.2782 -1.8190  1.3604
24495SOL    HW285464   8.061   1.191   8.324 -0.4168  0.3525 -0.6679
24496SOL     OW85465   9.596   3.304   4.999 -0.0397  0.0640  0.4258
24496SOL    HW185466   9.549   3.238   5.050  0.6821 -1.4511 -0.7996
24496SOL    HW285467   9.552   3.386   5.020 -2.3574 -1.0905  0.3661
24497SOL     OW85468   0.149   2.517   6.943  0.6911 -0.1651 -0.0667
24497SOL    HW185469   0.123   2.609   6.954  2.5769  0.4005 -0.1086
24497SOL    HW285470   0.066   2.471   6.928 -0.4348  1.3184  1.1905
24498SOL     OW85471   2.074   8.422   1.993 -0.1691  0.2592  0.4862
24498SOL    HW185472   2.042   8.410   1.903 -0.4723  2.0607  0.3073
24498SOL    HW285473   2.160   8.462   1.982 -0.1305  0.3179  0.9856
24499SOL     OW85474   6.614   6.088   2.265 -0.0505 -0.3624 -0.4330
24499SOL    HW185475   6.567   6.115   2.343 -1.1682 -1.7611 -0.5726
24499SOL    HW285476   6.641   5.998   2.283  1.7326  0.0666 -0.7662
24500SOL     OW85477   5.027   3.201   8.853  0.6251  0.3900  0.4201
24500SOL    HW185478   4.989   3.126   8.899  0.4118  0.2896  0.0871
24500SOL    HW285479   5.094   3.162   8.796 -0.1336  0.3409 -0.4522
24501SOL     OW85480   8.543   1.719   9.590  0.0755  0.0391 -0.3845
24501SOL    HW185481   8.554   1.696   9.683 -4.1397 -1.5662 -0.0917
24501SOL    HW285482   8.542   1.635   9.545  1.1035  0.7608 -1.8381
24502SOL     OW85483   4.200   5.951   7.303  0.0997 -0.5767 -0.0257
24502SOL    HW185484   4.168   5.867   7.269 -1.3193  0.0207 -0.2475
24502SOL    HW285485   4.152   5.964   7.384  1.1487 -0.4855  0.6019
24503SOL     OW85486   7.779   1.401   3.631 -0.1964 -0.3932  0.5057
24503SOL    HW185487   7.685   1.392   3.646 -0.3599  0.0483 -0.1558
24503SOL    HW285488   7.819   1.403   3.718 -0.8427 -0.1879  0.7976
24504SOL     OW85489   3.203   0.814   0.539 -0.0277  0.3365  0.3182
24504SOL    HW185490   3.181   0.832   0.631 -0.9764  0.1074  0.1554
24504SOL    HW285491   3.122   0.834   0.492  0.3577  0.1487 -0.4303
24505SOL     OW85492   8.573   5.864   8.859  0.1057 -0.1568 -0.0751
24505SOL    HW185493   8.572   5.890   8.952  1.1887 -3.9623  1.1740
24505SOL    HW285494   8.661   5.888   8.829 -0.3133  1.2674 -0.2495
24506SOL     OW85495   6.267   9.328   6.811 -0.0527 -0.5982  0.3720
24506SOL    HW185496   6.220   9.378   6.743  1.3442  0.3885  0.1013
24506SOL    HW285497   6.312   9.259   6.763  0.3979 -0.3090  0.3798
24507SOL     OW85498   4.565   4.561  10.125  0.4905 -1.0374 -0.1834
24507SOL    HW185499   4.618   4.592  10.052 -0.7243 -1.5722 -1.3606
24507SOL    HW285500   4.497   4.507  10.083 -0.9974 -0.3546  1.2226
24508SOL     OW85501   9.930   3.320   0.966 -0.0358  0.3610 -0.1471
24508SOL    HW185502   9.920   3.376   0.889  2.3063  0.7694 -0.2491
24508SOL    HW285503   9.957   3.381   1.035  2.4801 -0.5292 -0.2369
24509SOL     OW85504   9.894   6.666   2.283 -0.5510  0.9931  1.1066
24509SOL    HW185505   9.923   6.637   2.369 -0.5206  0.7957  1.0311
24509SOL    HW285506   9.824   6.606   2.260  0.9716 -0.4616 -0.0065
24510SOL     OW85507   8.283   4.758   9.276 -0.5832 -0.4225 -0.1455
24510SOL    HW185508   8.197   4.785   9.307 -0.8278 -1.3746  0.0391
24510SOL    HW285509   8.335   4.745   9.355 -0.3179  0.0052 -0.2496
24511SOL     OW85510   4.095   7.215   4.303  0.7548 -0.1242  0.2093
24511SOL    HW185511   4.061   7.179   4.385 -0.4499  1.9056  0.6902
24511SOL    HW285512   4.190   7.212   4.314  0.6281  0.4347  1.8908
24512SOL     OW85513   3.684   8.317   3.399  0.1434  0.2452  0.2796
24512SOL    HW185514   3.765   8.351   3.437  1.4179 -0.5669 -1.5739
24512SOL    HW285515   3.660   8.382   3.332  0.1982 -0.3489 -0.3218
24513SOL     OW85516   7.576  10.233   8.392  0.4069 -0.1059  0.4543
24513SOL    HW185517   7.579  10.278   8.476 -2.8817  0.7495  0.2386
24513SOL    HW285518   7.610  10.297   8.329 -1.0299  0.8740  0.6274
24514SOL     OW85519   8.944   1.397   8.667  0.2806  0.7469  0.0279
24514SOL    HW185520   8.899   1.342   8.731  2.8989  0.3774  1.7080
24514SOL    HW285521   8.981   1.334   8.604  0.4554  0.8418  0.0358
24515SOL     OW85522   8.019   5.708   4.027  0.2132 -0.5501 -1.0926
24515SOL    HW185523   7.994   5.797   4.052 -0.3184 -1.2076  0.9200
24515SOL    HW285524   8.018   5.709   3.931 -1.5598  1.1205 -1.1212
24516SOL     OW85525   7.459   7.204   8.238  0.5893 -0.0548  0.0875
24516SOL    HW185526   7.531   7.244   8.191  1.1781 -1.3621 -0.1682
24516SOL    HW285527   7.485   7.206   8.330 -0.2796  1.9203  0.3368
24517SOL     OW85528   0.039   9.866   5.051  0.3425 -0.1177 -0.0976
24517SOL    HW185529   0.100   9.838   5.119  0.5125  0.5071  0.0177
24517SOL    HW285530  -0.007   9.787   5.025  1.4261 -0.6625 -0.4047
24518SOL     OW85531   9.220   5.109   3.004 -0.3558  0.7713  0.5342
24518SOL    HW185532   9.153   5.158   2.956 -0.3334  1.4325  1.1681
24518SOL    HW285533   9.174   5.029   3.033 -0.3588  0.3528 -0.5914
24519SOL     OW85534   3.948   9.687   6.251  0.2663 -0.4937  0.3030
24519SOL    HW185535   3.969   9.604   6.207 -0.4889 -0.1913 -0.6742
24519SOL    HW285536   4.011   9.692   6.323 -0.4347 -2.5001  1.1398
24520SOL     OW85537   5.164   5.288   8.145 -0.2860 -0.0056 -0.3830
24520SOL    HW185538   5.196   5.197   8.144 -1.8493 -0.6349  1.4497
24520SOL    HW285539   5.161   5.313   8.052  1.5435 -1.2978 -0.8444
24521SOL     OW85540   4.548   7.083   9.476  0.0104 -0.3220 -0.1403
24521SOL    HW185541   4.488   7.057   9.546  0.9413  0.7399  1.1230
24521SOL    HW285542   4.582   7.169   9.504 -0.4054  0.6727 -2.4504
24522SOL     OW85543   7.872   2.068   0.808  0.0445 -0.4187  1.1004
24522SOL    HW185544   7.798   2.010   0.789 -1.1321  1.2330  0.3762
24522SOL    HW285545   7.859   2.094   0.899  0.2753 -0.8624  1.2624
24523SOL     OW85546   8.102   8.402   1.944 -0.0083  0.3829  0.0268
24523SOL    HW185547   8.167   8.466   1.971 -0.3823  0.2638  1.2343
24523SOL    HW285548   8.148   8.318   1.951 -0.3292  0.2855  1.0200
24524SOL     OW85549  10.136  10.216   5.818 -0.5176 -0.4723 -0.3106
24524SOL    HW185550  10.058  10.272   5.818 -1.3514 -1.5939  0.1062
24524SOL    HW285551  10.189  10.249   5.745 -3.2922 -2.1911 -3.3904
24525SOL     OW85552   6.461   2.680   2.491  0.5946  0.3105  0.1977
24525SOL    HW185553   6.487   2.719   2.575  2.7195  0.8272 -0.6400
24525SOL    HW285554   6.406   2.747   2.450  0.9673  0.7737  0.4505
24526SOL     OW85555   4.381   9.155   6.177  0.0414  0.5165  0.1579
24526SOL    HW185556   4.297   9.114   6.198 -0.4149  1.0213 -0.6394
24526SOL    HW285557   4.380   9.236   6.227 -0.8206  1.4693 -1.3444
24527SOL     OW85558   1.605   0.741   7.995 -0.0901 -0.3298 -0.2511
24527SOL    HW185559   1.646   0.747   7.909 -0.4247  0.6704 -0.3443
24527SOL    HW285560   1.573   0.651   7.999  0.5509 -0.5986 -0.8832
24528SOL     OW85561   9.346   1.605   5.571  0.1616  0.1686 -0.1323
24528SOL    HW185562   9.377   1.693   5.592  0.4613 -0.1383  0.7780
24528SOL    HW285563   9.425   1.553   5.560  0.0083 -0.4215  1.3324
24529SOL     OW85564   1.069   3.565   4.288  0.3942 -0.0144  0.1428
24529SOL    HW185565   1.160   3.580   4.265  0.5978  0.1623  1.0240
24529SOL    HW285566   1.057   3.470   4.279  0.4094  0.0672 -0.8333
24530SOL     OW85567   8.833   2.804   2.498  0.3945  0.0895  0.2953
24530SOL    HW185568   8.765   2.860   2.535  1.3638  0.6288  1.3456
24530SOL    HW285569   8.874   2.763   2.575  1.2469 -0.2154 -0.3089
24531SOL     OW85570   8.096   6.735   1.464  0.1481  0.4896  0.0531
24531SOL    HW185571   8.167   6.791   1.494  0.2032 -0.4391  1.7888
24531SOL    HW285572   8.115   6.718   1.372  2.6730 -0.4457  0.6780
24532SOL     OW85573   4.951   3.657   6.495  0.7438 -0.0011  0.5386
24532SOL    HW185574   5.010   3.602   6.545 -0.7672 -0.5315  1.8169
24532SOL    HW285575   4.913   3.717   6.560  1.1735  1.5302 -0.5492
24533SOL     OW85576   4.457   6.639   8.483 -0.5398  0.6649  0.4677
24533SOL    HW185577   4.511   6.688   8.546 -0.6799  0.7846  0.4923
24533SOL    HW285578   4.373   6.627   8.528  0.0919 -1.2565  1.2524
24534SOL     OW85579   7.117   2.640   8.993 -0.3259 -0.7345 -0.2679
24534SOL    HW185580   7.098   2.649   8.899  0.2839 -1.5060 -0.4749
24534SOL    HW285581   7.111   2.546   9.010  0.4892 -0.6971  0.2654
24535SOL     OW85582   6.727   8.343   6.608  0.1116 -0.4867 -1.0273
24535SOL    HW185583   6.817   8.311   6.610  0.4908  0.5550 -0.1223
24535SOL    HW285584   6.730   8.416   6.546 -0.0464 -0.3042 -0.8212
24536SOL     OW85585   5.209   3.575   3.284 -0.0346 -0.0942  0.2069
24536SOL    HW185586   5.154   3.633   3.336 -1.7899 -0.0321 -1.5897
24536SOL    HW285587   5.187   3.487   3.315  0.4548  0.0318  0.9348
24537SOL     OW85588   5.219  10.307   9.222  0.3418  0.2981 -0.0942
24537SOL    HW185589   5.202  10.228   9.273  0.9815  0.7901  0.9117
24537SOL    HW285590   5.133  10.340   9.198  0.0501 -0.2444  0.2058
24538SOL     OW85591   2.477   9.595   7.208 -0.5377  0.2118 -0.2270
24538SOL    HW185592   2.562   9.553   7.189 -1.0109 -1.3427  0.8877
24538SOL    HW285593   2.493   9.688   7.196  1.3562 -0.0426 -0.0046
24539SOL     OW85594   3.033   2.328   6.449 -0.7754 -0.0385  0.5717
24539SOL    HW185595   3.015   2.288   6.534 -2.6596  0.3070  0.3837
24539SOL    HW285596   3.000   2.265   6.386 -2.2269  1.0332  0.2192
24540SOL     OW85597   2.374   5.078   9.525  0.3060 -0.1497  0.3134
24540SOL    HW185598   2.377   5.008   9.460 -1.0768 -1.5602  1.6771
24540SOL    HW285599   2.307   5.138   9.493  0.0646 -0.5115  0.1436
24541SOL     OW85600   3.464   9.396   3.414  0.1965  0.2755 -0.1868
24541SOL    HW185601   3.421   9.313   3.395 -2.0901  0.6238  2.7179
24541SOL    HW285602   3.403   9.463   3.384 -0.4188  0.7977  2.0315
24542SOL     OW85603   8.508   1.090   4.772 -0.5887  0.2384 -0.0705
24542SOL    HW185604   8.504   1.157   4.703 -0.7142  0.8778  0.5495
24542SOL    HW285605   8.507   1.007   4.724  0.6751  0.6749 -0.9229
24543SOL     OW85606  10.212   2.312   4.176  0.0100  0.5401 -0.5419
24543SOL    HW185607  10.214   2.225   4.216 -0.4997  0.4278 -0.7529
24543SOL    HW285608  10.185   2.371   4.247  0.1056  0.4908 -0.4646
24544SOL     OW85609   2.175   6.865   7.332  0.2053 -0.2702  0.5122
24544SOL    HW185610   2.262   6.873   7.293  0.0494 -1.2262 -0.0688
24544SOL    HW285611   2.140   6.783   7.296 -1.3323  0.6095 -0.0538
24545SOL     OW85612   5.695   9.538   3.159 -0.0144 -0.4758 -0.6006
24545SOL    HW185613   5.776   9.527   3.110  0.8436  1.9285  0.1597
24545SOL    HW285614   5.644   9.601   3.108 -0.0412  0.3886  0.4577
24546SOL     OW85615   3.837   9.951   1.095 -0.0737 -0.2524 -0.2934
24546SOL    HW185616   3.790  10.026   1.059  1.3570  1.6216  1.4923
24546SOL    HW285617   3.772   9.906   1.149 -0.4652  0.9580  0.2991
24547SOL     OW85618   8.074   3.880   7.751 -0.1390  0.5809  0.7203
24547SOL    HW185619   8.162   3.890   7.788  0.3761 -0.6597 -0.0981
24547SOL    HW285620   8.031   3.817   7.808 -0.5852  1.3667  1.2562
24548SOL     OW85621  10.175   6.199   1.890  0.6511  0.1215  0.2557
24548SOL    HW185622  10.198   6.145   1.814 -1.0239 -0.2765 -0.0058
24548SOL    HW285623  10.212   6.285   1.870 -0.5150  0.2824 -1.4665
24549SOL     OW85624   0.841   3.484   5.664 -0.0412  0.1950 -0.0555
24549SOL    HW185625   0.867   3.569   5.700 -0.3219  0.4225 -0.3758
24549SOL    HW285626   0.746   3.482   5.674 -0.2485  0.7058 -1.6929
24550SOL     OW85627   8.038  10.167   2.408  0.3089  0.1887 -0.2221
24550SOL    HW185628   8.062  10.157   2.316  0.2757  1.5122 -0.3878
24550SOL    HW285629   8.043  10.261   2.425 -2.5156  0.3408  0.3442
24551SOL     OW85630   1.810   0.447   5.292  0.5832 -0.2956 -0.3525
24551SOL    HW185631   1.786   0.477   5.379  0.6883 -0.7093 -0.1768
24551SOL    HW285632   1.731   0.459   5.239  0.1973 -0.9902  0.0507
24552SOL     OW85633   2.753   7.766   5.814  0.5860  0.2232 -0.2865
24552SOL    HW185634   2.765   7.763   5.909  0.8439 -0.5886 -0.3380
24552SOL    HW285635   2.742   7.675   5.788 -0.7547  0.5320 -0.8885
24553SOL     OW85636   0.538   0.186   2.194  0.1515  0.1783  0.6583
24553SOL    HW185637   0.514   0.101   2.157 -0.7669  1.3883 -1.7335
24553SOL    HW285638   0.589   0.229   2.125 -1.0108  2.2938  1.0279
24554SOL     OW85639   4.610   1.558   0.996 -0.1760  0.5157  0.1360
24554SOL    HW185640   4.682   1.616   0.972 -1.4535  1.6961 -1.1121
24554SOL    HW285641   4.600   1.501   0.920 -0.2612  0.0630  0.4892
24555SOL     OW85642   7.195   3.987   7.134 -0.3524 -0.1539 -0.0510
24555SOL    HW185643   7.206   4.069   7.085 -0.8501 -0.2804 -0.3842
24555SOL    HW285644   7.212   4.011   7.225 -0.7822  0.3939 -0.1047
24556SOL     OW85645   6.252   4.528   4.218  0.1770  0.3582  0.5724
24556SOL    HW185646   6.165   4.537   4.257 -0.8165  0.4541 -1.4999
24556SOL    HW285647   6.290   4.452   4.261 -2.1175 -1.4984 -0.4067
24557SOL     OW85648   9.953   6.712   2.016 -0.0354  0.2244  0.1578
24557SOL    HW185649   9.871   6.671   1.991 -0.3420  1.0324 -0.2006
24557SOL    HW285650   9.960   6.697   2.111 -0.9729  0.7976  0.3253
24558SOL     OW85651   2.114   0.947   8.492 -0.7800  0.2502 -0.1953
24558SOL    HW185652   2.061   1.025   8.474  0.2879  1.4214  1.4567
24558SOL    HW285653   2.196   0.964   8.447 -1.3047 -0.9661 -1.6642
24559SOL     OW85654   6.156   4.399   5.887 -0.0381 -0.4426  0.6673
24559SOL    HW185655   6.115   4.322   5.849 -2.0165  0.5004  0.7789
24559SOL    HW285656   6.110   4.413   5.970  0.9892  0.2691  1.1402
24560SOL     OW85657   5.823   9.811   4.832  0.4359  0.1016 -0.0320
24560SOL    HW185658   5.831   9.879   4.899  0.3006 -1.2493  1.4184
24560SOL    HW285659   5.908   9.768   4.832 -0.5842 -2.1094  1.8015
24561SOL     OW85660   5.425   0.783   8.578 -0.4328 -0.5418  0.2474
24561SOL    HW185661   5.331   0.773   8.594 -0.7386 -0.5368 -1.3995
24561SOL    HW285662   5.433   0.868   8.536  0.3450 -0.4787  0.5131
24562SOL     OW85663   7.569   5.605   6.165  0.2645 -0.6833 -0.1964
24562SOL    HW185664   7.590   5.517   6.196  1.4593 -0.1742  0.5174
24562SOL    HW285665   7.639   5.625   6.102  0.0742 -0.1967 -0.2580
24563SOL     OW85666   8.193   4.139   7.997  0.7452  0.1512  0.1168
24563SOL    HW185667   8.256   4.205   7.966 -0.7100 -0.0979 -4.0598
24563SOL    HW285668   8.113   4.189   8.014  0.7170 -0.0865  0.6776
24564SOL     OW85669   0.985   1.517   1.986 -0.7253  0.1113 -0.6376
24564SOL    HW185670   0.981   1.428   2.020  1.5796 -0.1097 -0.7981
24564SOL    HW285671   1.069   1.522   1.940  0.0894  2.8793  0.8810
24565SOL     OW85672   7.083   6.878   8.353  0.7009  0.4019 -0.6385
24565SOL    HW185673   6.996   6.916   8.339  0.3318  0.6101  1.7816
24565SOL    HW285674   7.067   6.783   8.354  0.5716  0.4245 -0.5563
24566SOL     OW85675   2.637   8.677   3.555 -0.0433 -0.3244 -0.2347
24566SOL    HW185676   2.652   8.685   3.461  0.6246 -1.2541 -0.2268
24566SOL    HW285677   2.614   8.765   3.584 -3.3245 -0.5096 -1.7808
24567SOL     OW85678   8.940   2.312   9.424  0.3202  0.0582  0.2123
24567SOL    HW185679   8.985   2.331   9.342  2.5772 -0.3935  1.2686
24567SOL    HW285680   9.010   2.284   9.484 -1.5111 -1.7528  1.6518
24568SOL     OW85681   2.317   1.835   2.054  0.0329 -0.5054  0.3386
24568SOL    HW185682   2.250   1.833   1.985  2.5233  2.0268 -2.4658
24568SOL    HW285683   2.377   1.764   2.031  0.8004  0.2665 -0.1319
24569SOL     OW85684   1.751   6.952   3.194 -0.2996 -0.0360  0.0127
24569SOL    HW185685   1.719   7.023   3.250 -0.2529  0.2854 -0.3647
24569SOL    HW285686   1.746   6.874   3.250 -2.9334 -0.2387 -0.3724
24570SOL     OW85687   8.038   8.434   4.166  0.3596  0.1088 -0.9692
24570SOL    HW185688   8.011   8.519   4.131 -0.3932  1.1667  1.9033
24570SOL    HW285689   7.965   8.376   4.145  0.1620  0.5644 -1.5823
24571SOL     OW85690   8.720   6.728   3.083 -0.4170  0.3314  0.8529
24571SOL    HW185691   8.624   6.725   3.084 -0.5258 -2.3515 -1.8477
24571SOL    HW285692   8.741   6.797   3.020 -0.8184 -1.4584 -1.3964
24572SOL     OW85693   8.387   8.352   8.323  0.1055 -0.0010 -0.5428
24572SOL    HW185694   8.368   8.285   8.388 -0.7057  1.1487  0.4736
24572SOL    HW285695   8.354   8.316   8.241 -0.9173 -0.5816  0.1024
24573SOL     OW85696   1.063  10.018   5.484 -0.1983 -0.0215  0.0559
24573SOL    HW185697   1.003  10.065   5.426 -0.8474 -2.8311 -1.7203
24573SOL    HW285698   1.017  10.014   5.568 -1.7375 -0.5408 -0.7675
24574SOL     OW85699   0.431   4.573   8.064  0.0497 -0.6530 -0.6068
24574SOL    HW185700   0.359   4.635   8.055 -0.5685 -1.3699 -0.6547
24574SOL    HW285701   0.406   4.516   8.136  0.0958 -1.5221 -1.2511
24575SOL     OW85702   8.741   2.465   3.573 -0.0996 -0.1289 -0.4465
24575SOL    HW185703   8.831   2.483   3.546  0.3460  1.7933  1.9542
24575SOL    HW285704   8.687   2.501   3.502  1.0233  1.4874 -0.5327
24576SOL     OW85705   2.345  10.262   5.518  0.0934 -0.1626 -0.2946
24576SOL    HW185706   2.433  10.289   5.490  1.1015 -2.3615  0.4869
24576SOL    HW285707   2.298  10.246   5.436  1.6834 -2.5228 -0.8606
24577SOL     OW85708   8.216   0.563   9.701  0.4421 -0.4184 -0.2124
24577SOL    HW185709   8.168   0.546   9.620  0.9932  0.7833 -0.8178
24577SOL    HW285710   8.172   0.508   9.767  0.3498 -1.8740 -1.4223
24578SOL     OW85711   7.752   1.617   3.911 -0.1469  0.7235 -0.3241
24578SOL    HW185712   7.668   1.621   3.865  0.1340  0.5604 -0.8495
24578SOL    HW285713   7.783   1.528   3.898  0.8462  1.2201 -1.4429
24579SOL     OW85714   4.617   5.240   0.978  0.5964  0.7295  0.4128
24579SOL    HW185715   4.680   5.169   0.982  0.7988  0.7025 -2.0649
24579SOL    HW285716   4.535   5.199   0.949  0.3509  1.2772  0.3080
24580SOL     OW85717   8.700   1.331   6.118  0.6359  0.2680  0.5144
24580SOL    HW185718   8.771   1.363   6.173 -0.5287  3.4627  0.3413
24580SOL    HW285719   8.676   1.405   6.063 -0.5441 -1.7623 -1.9459
24581SOL     OW85720   6.130   3.532   2.776 -0.1392 -0.3759  0.0513
24581SOL    HW185721   6.107   3.550   2.867  0.0497  2.5659 -0.4156
24581SOL    HW285722   6.200   3.467   2.782  1.0843  1.0026  2.1165
24582SOL     OW85723   0.364   2.966   9.396  0.2789  0.2524 -0.0987
24582SOL    HW185724   0.270   2.971   9.384 -0.0536  0.3895  2.0447
24582SOL    HW285725   0.390   2.883   9.356 -0.7044  0.2999 -0.8668
24583SOL     OW85726   3.801   1.375   6.934  0.2558  0.0835  1.0937
24583SOL    HW185727   3.813   1.451   6.991  0.8983  0.5175  0.3975
24583SOL    HW285728   3.881   1.372   6.881 -0.0351 -0.7102  0.6821
24584SOL     OW85729   2.599   9.037   5.063  0.0121 -0.3515 -0.1145
24584SOL    HW185730   2.610   8.945   5.038  0.7233 -0.8183  1.6888
24584SOL    HW285731   2.526   9.068   5.011  0.1568 -1.7610 -1.2211
24585SOL     OW85732   1.656   2.435   0.173 -0.6145  1.0068  0.6054
24585SOL    HW185733   1.575   2.453   0.126 -0.1708 -1.5728 -1.4170
24585SOL    HW285734   1.633   2.444   0.266 -4.0057 -2.0013  0.2886
24586SOL     OW85735   5.991   8.744   5.606 -0.2581 -0.3171 -0.1783
24586SOL    HW185736   5.981   8.662   5.655 -4.0106  0.7895  1.2054
24586SOL    HW285737   5.951   8.726   5.521  0.0023 -0.2436 -0.3181
24587SOL     OW85738   4.163   4.791   9.535 -0.1972  0.4442  0.1919
24587SOL    HW185739   4.082   4.805   9.485 -0.2664  0.4575  0.3072
24587SOL    HW285740   4.142   4.719   9.594  0.7163 -1.4301 -1.6652
24588SOL     OW85741   5.773   9.085   3.830 -0.6940  0.0651 -0.2060
24588SOL    HW185742   5.814   9.136   3.760  1.6047 -0.0986  0.9324
24588SOL    HW285743   5.753   9.150   3.898  1.5121 -0.3194  0.9139
24589SOL     OW85744   8.156   6.594   5.204  0.1600  0.0477 -0.3069
24589SOL    HW185745   8.216   6.656   5.246 -0.0461 -0.4495  0.7766
24589SOL    HW285746   8.114   6.549   5.278 -1.1164 -0.0160 -1.0462
24590SOL     OW85747   5.172   4.955   3.235 -0.6809  0.1567 -0.5969
24590SOL    HW185748   5.102   4.892   3.217  0.2846 -1.0941 -0.1571
24590SOL    HW285749   5.200   4.984   3.148 -1.3069  0.1673 -0.8015
24591SOL     OW85750  10.265   1.691   2.801 -0.6989  0.2497 -0.2670
24591SOL    HW185751  10.258   1.605   2.841 -0.9573 -0.2775 -1.4092
24591SOL    HW285752  10.334   1.682   2.736  0.4730  1.3937  0.7674
24592SOL     OW85753   7.093   3.731   6.582 -0.2787 -0.1207  0.2212
24592SOL    HW185754   7.058   3.661   6.636  2.4361 -2.1674 -0.4391
24592SOL    HW285755   7.016   3.771   6.542 -2.1030 -0.9996  2.5991
24593SOL     OW85756   2.281   5.536   7.246  0.0593  0.5283  0.1349
24593SOL    HW185757   2.272   5.552   7.152  0.2729 -0.6762 -0.1140
24593SOL    HW285758   2.375   5.525   7.259 -0.1389 -2.7811 -0.2025
24594SOL     OW85759   6.996   9.451   9.341  0.5881 -0.2526  0.1964
24594SOL    HW185760   7.054   9.375   9.338  0.1392 -0.7273  2.1812
24594SOL    HW285761   6.994   9.477   9.433  3.0014  4.0301 -0.6686
24595SOL     OW85762   9.825   2.987  10.367 -0.3687  0.1219  0.1662
24595SOL    HW185763   9.752   2.957  10.314 -1.5573  1.0413  1.2259
24595SOL    HW285764   9.898   2.994  10.306 -1.4105  0.1355 -1.1099
24596SOL     OW85765   5.251   9.777   1.210 -0.1972 -0.0470  0.0971
24596SOL    HW185766   5.193   9.810   1.278 -1.5580 -0.6606 -0.7409
24596SOL    HW285767   5.332   9.755   1.257 -0.0976  2.1066  1.0585
24597SOL     OW85768   0.647   0.364   4.095  0.0512  0.1900  0.3376
24597SOL    HW185769   0.687   0.432   4.042  0.7873 -2.4290 -2.7752
24597SOL    HW285770   0.557   0.358   4.063  0.9741 -2.5831 -2.1479
24598SOL     OW85771   7.993  10.263   7.768  0.2781 -0.4221  0.8495
24598SOL    HW185772   8.005  10.346   7.814  0.1364 -0.1087  0.3301
24598SOL    HW285773   8.078  10.244   7.729 -0.0805  0.2419 -0.2748
24599SOL     OW85774   9.137   2.044   4.264 -0.0234  0.2211  0.3752
24599SOL    HW185775   9.128   2.139   4.257 -0.7083  0.1943  0.7925
24599SOL    HW285776   9.228   2.027   4.240 -0.0701  0.9149 -0.3234
24600SOL     OW85777   4.485   0.455   1.121 -0.1588 -0.2570 -0.1612
24600SOL    HW185778   4.439   0.536   1.145 -0.0902  0.1570 -1.3644
24600SOL    HW285779   4.509   0.415   1.204  2.1676  2.2787  0.5327
24601SOL     OW85780   5.572   6.098   7.109  0.2800  0.6775 -0.4226
24601SOL    HW185781   5.664   6.077   7.129  0.4639  1.2448 -0.6694
24601SOL    HW285782   5.576   6.160   7.036 -0.3271  0.1674 -0.9036
24602SOL     OW85783   9.452   0.545   8.801  0.1141 -0.4299  0.3771
24602SOL    HW185784   9.544   0.571   8.793 -0.3173  1.1882  0.2405
24602SOL    HW285785   9.439   0.480   8.732  1.0693 -0.3806  0.1469
24603SOL     OW85786   0.842   9.301   5.026 -0.1484  0.4012 -0.2116
24603SOL    HW185787   0.855   9.206   5.029  2.0098  0.6592  1.3223
24603SOL    HW285788   0.763   9.313   4.973  1.0936 -2.1102 -2.9813
24604SOL     OW85789   4.486   1.333   6.434 -0.2583 -0.3742  0.7239
24604SOL    HW185790   4.439   1.318   6.517  0.3079  0.0911  1.1357
24604SOL    HW285791   4.474   1.252   6.385 -2.2543  0.0288  0.4321
24605SOL     OW85792   7.300   0.590   2.694 -0.1924  0.0132 -0.0745
24605SOL    HW185793   7.380   0.561   2.738  0.0985 -0.6527 -1.0148
24605SOL    HW285794   7.249   0.633   2.763 -1.1562 -3.6187  1.7537
24606SOL     OW85795   9.337   5.228   3.212 -0.6055  0.1728  0.3255
24606SOL    HW185796   9.307   5.200   3.126  0.8358  0.1602 -0.2010
24606SOL    HW285797   9.408   5.167   3.233  0.1168  1.1618  0.8009
24607SOL     OW85798   9.125   5.821   7.731  0.3686  0.1877  0.3802
24607SOL    HW185799   9.137   5.734   7.768 -0.0914  0.2486  0.6747
24607SOL    HW285800   9.124   5.880   7.807  1.5974  0.5579  0.1302
24608SOL     OW85801   8.605   7.255   1.010  0.0031 -0.8235 -0.5325
24608SOL    HW185802   8.523   7.299   0.990  0.3370  0.2842  0.4328
24608SOL    HW285803   8.672   7.306   0.964  0.3797 -0.3870  0.4791
24609SOL     OW85804   8.139   4.654   8.321 -0.1767 -0.3465  0.4921
24609SOL    HW185805   8.087   4.614   8.391 -0.2841 -1.9098 -0.4353
24609SOL    HW285806   8.102   4.742   8.311 -0.2520 -0.1383  2.2789
24610SOL     OW85807   4.453   0.304   5.549 -0.3586 -0.4320 -0.1493
24610SOL    HW185808   4.489   0.270   5.631 -0.3154  0.4409  0.2139
24610SOL    HW285809   4.445   0.228   5.492  0.2641 -0.9414  0.4271
24611SOL     OW85810   5.889  10.354   1.427  0.2945  0.3651 -0.0479
24611SOL    HW185811   5.866  10.348   1.520  0.6496  1.7925  0.1452
24611SOL    HW285812   5.985  10.351   1.425  0.2686 -0.8988 -0.4872
24612SOL     OW85813   5.321   8.347   6.595  0.6153 -0.8256 -0.4232
24612SOL    HW185814   5.358   8.373   6.679  0.8362 -2.0367 -0.1292
24612SOL    HW285815   5.376   8.391   6.530 -0.0496  0.7712  0.0403
24613SOL     OW85816   5.489   9.988   7.126  0.2463 -0.1057  0.5813
24613SOL    HW185817   5.566  10.019   7.173 -0.4203 -1.3569  2.6268
24613SOL    HW285818   5.415  10.022   7.176 -0.5210 -0.5477 -0.2266
24614SOL     OW85819   4.229   1.504   4.579 -0.1039 -0.3298  0.0983
24614SOL    HW185820   4.165   1.567   4.614  2.4423  1.4452  2.0065
24614SOL    HW285821   4.187   1.419   4.590 -1.8614  0.6708  2.0205
24615SOL     OW85822   7.216   3.170   9.430 -0.5618  0.4423 -0.2784
24615SOL    HW185823   7.300   3.203   9.462 -0.6934 -1.1538  1.9504
24615SOL    HW285824   7.232   3.145   9.339  1.4989 -0.1868  0.2240
24616SOL     OW85825   5.909   9.211   9.180 -0.3060  0.2906 -0.0104
24616SOL    HW185826   5.981   9.229   9.119 -0.4938  0.9626 -0.0318
24616SOL    HW285827   5.842   9.276   9.159  0.6557  2.3022  2.6270
24617SOL     OW85828   1.463   8.389   9.424 -0.0409 -0.0580  1.0732
24617SOL    HW185829   1.461   8.368   9.330  0.4190  0.2093  1.0018
24617SOL    HW285830   1.387   8.446   9.437  0.0084  0.0689  0.8237
24618SOL     OW85831   4.872   6.201   3.372  0.2186 -0.3263 -0.4478
24618SOL    HW185832   4.808   6.144   3.328 -1.2862  0.2298  0.9365
24618SOL    HW285833   4.865   6.284   3.326 -0.2026 -0.2081 -0.1724
24619SOL     OW85834   4.886   7.909   5.243 -0.5300 -0.1880 -0.3820
24619SOL    HW185835   4.928   7.831   5.277  0.8452  1.3049  1.5732
24619SOL    HW285836   4.912   7.911   5.150  0.1815 -1.5406 -0.2412
24620SOL     OW85837   7.666   4.767   6.454 -0.4016 -0.4057  0.2276
24620SOL    HW185838   7.702   4.693   6.405  2.1545  0.8127  0.0963
24620SOL    HW285839   7.647   4.832   6.386  0.0470  0.0830  0.5702
24621SOL     OW85840   9.291   5.843   8.888 -0.0024  0.1235  0.0535
24621SOL    HW185841   9.383   5.826   8.869  0.9466  2.0138  2.4316
24621SOL    HW285842   9.256   5.758   8.915  1.2029 -0.5087 -0.2971
24622SOL     OW85843   0.010   1.751   8.315  0.2562 -0.3205  0.4592
24622SOL    HW185844   0.003   1.691   8.240  0.3466  0.4604 -0.1938
24622SOL    HW285845  -0.057   1.817   8.299 -1.0985 -1.2203  2.1225
24623SOL     OW85846   1.778   5.775   4.182 -0.4876 -0.5212 -0.0571
24623SOL    HW185847   1.754   5.837   4.114  2.1590  0.1222 -0.5251
24623SOL    HW285848   1.716   5.792   4.254 -1.0862  1.2453 -0.9405
24624SOL     OW85849   9.896   0.111   9.108  0.1070 -0.3729 -0.2981
24624SOL    HW185850   9.884   0.021   9.078 -1.2469 -0.0046 -0.9059
24624SOL    HW285851   9.987   0.131   9.085  0.5108 -1.6612  0.0903
24625SOL     OW85852   2.821   7.773   3.517  0.0315  0.0057  0.3721
24625SOL    HW185853   2.913   7.749   3.501 -0.3598 -1.2196 -0.1321
24625SOL    HW285854   2.776   7.690   3.524 -1.1244  0.6078  0.2426
24626SOL     OW85855   6.096   0.030   0.114  0.1531  0.3833  0.0111
24626SOL    HW185856   6.071   0.020   0.206  2.4139 -1.1064  0.5464
24626SOL    HW285857   6.091  -0.058   0.078 -1.9749  1.1246 -1.7488
24627SOL     OW85858   6.998   3.212   7.569 -0.0117  0.0012 -0.0924
24627SOL    HW185859   6.994   3.278   7.638  1.1127 -0.4665  0.4600
24627SOL    HW285860   7.063   3.149   7.601 -0.1324 -0.6965 -1.1803
24628SOL     OW85861   0.500   1.463   4.294 -0.4221  0.0196  0.9321
24628SOL    HW185862   0.437   1.420   4.236  0.7776  2.2079 -2.2284
24628SOL    HW285863   0.567   1.396   4.310 -1.3692 -0.9873  0.8618
24629SOL     OW85864   0.417   6.139   1.041  0.7003 -0.1975  0.0050
24629SOL    HW185865   0.407   6.130   1.136 -0.5724  1.1491  0.0294
24629SOL    HW285866   0.419   6.049   1.008 -0.0792 -0.6644  1.1894
24630SOL     OW85867   3.713   9.474   8.284 -0.0545 -0.5586  0.3757
24630SOL    HW185868   3.686   9.537   8.218 -1.1634 -3.2156 -1.9186
24630SOL    HW285869   3.655   9.490   8.358  0.8317  2.1115  0.6131
24631SOL     OW85870   5.080   8.108   6.318  0.1905  0.6004 -0.0413
24631SOL    HW185871   5.081   8.170   6.392 -1.2014 -0.0523  0.5688
24631SOL    HW285872   5.030   8.034   6.351  1.8084 -0.8786 -0.7699
24632SOL     OW85873   3.606   9.553   2.375 -0.1364  0.1082 -0.1485
24632SOL    HW185874   3.619   9.466   2.339  1.0161  1.0060 -2.0472
24632SOL    HW285875   3.596   9.610   2.299 -1.2083  1.6116  1.0388
24633SOL     OW85876   6.922   7.176  10.177 -0.2201  0.0644  0.2213
24633SOL    HW185877   6.937   7.151  10.086  0.6585  0.8149  0.1485
24633SOL    HW285878   6.900   7.269  10.173  0.3477  0.2340  0.8155
24634SOL     OW85879   5.368   9.442   6.167 -0.2622  0.3224  0.0033
24634SOL    HW185880   5.317   9.426   6.247  0.8545  1.7249  1.0399
24634SOL    HW285881   5.458   9.451   6.197  0.4820 -0.9702 -1.6606
24635SOL     OW85882   6.630   1.746   9.280  0.4412 -0.2096  0.3389
24635SOL    HW185883   6.692   1.741   9.353  0.2896 -1.7511  0.3860
24635SOL    HW285884   6.676   1.704   9.207  0.0459  0.0330 -0.0541
24636SOL     OW85885   8.352   5.509   5.687 -0.0349  0.3055  0.9925
24636SOL    HW185886   8.320   5.486   5.774  1.8392  1.7076  2.1351
24636SOL    HW285887   8.448   5.501   5.694  0.1855  0.9342 -0.7838
24637SOL     OW85888   5.310   2.811   8.876  0.8861 -0.1676  0.5416
24637SOL    HW185889   5.383   2.866   8.903  0.7619 -0.9040  2.5916
24637SOL    HW285890   5.346   2.753   8.809  1.7795  0.4271  0.5004
24638SOL     OW85891   3.086   8.206   0.163  0.2481 -0.3763  0.3823
24638SOL    HW185892   2.994   8.230   0.160  0.4158  0.2629  0.0713
24638SOL    HW285893   3.087   8.111   0.152 -0.2586 -0.1853 -1.6092
24639SOL     OW85894   8.484  10.317   5.655  0.2953 -0.4138  0.2299
24639SOL    HW185895   8.397  10.297   5.621  0.5873  0.0805 -0.8520
24639SOL    HW285896   8.528  10.231   5.659  0.1203 -0.5370 -0.3026
24640SOL     OW85897   1.161   5.966   8.302  0.4285  0.1064 -0.5307
24640SOL    HW185898   1.070   5.965   8.332  0.2454  2.5251 -0.8241
24640SOL    HW285899   1.212   5.994   8.378  0.4231  2.4362 -1.3068
24641SOL     OW85900   6.194  10.157   8.812  0.0290 -0.3047 -0.4555
24641SOL    HW185901   6.186  10.203   8.729  0.5386 -0.9409 -0.8596
24641SOL    HW285902   6.288  10.154   8.829 -0.0655 -0.2615  0.1017
24642SOL     OW85903   3.070   3.222   6.504 -0.0129  0.0401 -0.1571
24642SOL    HW185904   3.029   3.263   6.581  1.1620  1.8733 -0.4317
24642SOL    HW285905   3.150   3.182   6.539  0.6465  1.0853 -0.4308
24643SOL     OW85906   1.577   0.702   8.601  0.4234 -0.1972 -0.1050
24643SOL    HW185907   1.547   0.680   8.689  0.9968  0.1809  0.1936
24643SOL    HW285908   1.583   0.618   8.556  0.3880 -0.4220  0.3058
24644SOL     OW85909   6.159   8.351   8.072 -0.1558 -0.0385 -0.0819
24644SOL    HW185910   6.073   8.371   8.107  0.1286  1.7196 -0.2931
24644SOL    HW285911   6.143   8.328   7.980 -0.3193  1.1711 -0.3629
24645SOL     OW85912   2.341   6.292   6.966  0.1853 -0.6495  0.4390
24645SOL    HW185913   2.290   6.365   7.002  0.0103 -0.8723  0.6407
24645SOL    HW285914   2.280   6.245   6.910  0.8090  0.5004 -1.3023
24646SOL     OW85915   5.055   9.657   8.086  0.3661  0.1420 -0.1442
24646SOL    HW185916   5.073   9.733   8.141  2.5144 -0.9650  0.8247
24646SOL    HW285917   5.089   9.682   8.000  1.8226  0.0272  0.3701
24647SOL     OW85918   1.499   2.266   2.138  0.2324 -0.2233 -0.1589
24647SOL    HW185919   1.463   2.186   2.100  0.5903 -0.6010  0.2809
24647SOL    HW285920   1.481   2.258   2.232 -0.9295  0.8456 -0.2684
24648SOL     OW85921   6.149   6.999   7.567  0.3460  0.1956  0.0354
24648SOL    HW185922   6.150   6.949   7.485 -1.1983  1.1173 -0.5871
24648SOL    HW285923   6.202   7.076   7.550 -0.8798  0.9503 -0.5151
24649SOL     OW85924   7.749   5.293   9.950 -0.6981 -0.2282  0.1127
24649SOL    HW185925   7.670   5.308  10.001 -0.1356 -2.4896  1.8307
24649SOL    HW285926   7.743   5.201   9.922  0.1910  0.2509 -1.8548
24650SOL     OW85927   8.987   6.365   4.362 -0.0583  0.2956 -0.3440
24650SOL    HW185928   8.957   6.356   4.271  0.4269 -0.7752 -0.4059
24650SOL    HW285929   8.962   6.283   4.404 -1.6333  1.3386  0.9219
24651SOL     OW85930   7.743   7.801   1.275  0.4153  0.3583 -0.3112
24651SOL    HW185931   7.653   7.819   1.299 -0.3161 -0.2558 -2.4095
24651SOL    HW285932   7.789   7.793   1.358 -1.8933 -1.6129  0.8832
24652SOL     OW85933   3.682   9.199   4.943  0.0034  0.2904  0.7243
24652SOL    HW185934   3.768   9.158   4.931 -0.0472  0.1855  0.7202
24652SOL    HW285935   3.669   9.252   4.864 -0.1565 -0.0878  0.4989
24653SOL     OW85936   2.145   6.955   0.720  0.5558  0.2135  0.5033
24653SOL    HW185937   2.127   7.019   0.789 -1.0482 -0.5392  0.8169
24653SOL    HW285938   2.107   6.992   0.641 -0.3813 -0.3275  0.6860
24654SOL     OW85939   5.172   7.536   2.122  0.4804  0.1191 -0.5859
24654SOL    HW185940   5.199   7.561   2.034  1.5421  2.8003  0.3741
24654SOL    HW285941   5.168   7.441   2.120  1.0709  0.0620 -3.3331
24655SOL     OW85942   0.642   1.105   1.581  0.1721 -0.1324 -0.0886
24655SOL    HW185943   0.560   1.076   1.541 -0.5174  1.2349  0.2590
24655SOL    HW285944   0.710   1.074   1.522 -0.5517 -1.7187 -0.1373
24656SOL     OW85945   4.545   2.324   6.055 -0.5606  0.3973  0.0012
24656SOL    HW185946   4.452   2.312   6.039 -0.4545 -1.1004  0.3773
24656SOL    HW285947   4.552   2.412   6.094 -1.7072  0.8198 -0.7037
24657SOL     OW85948   6.870   9.641   3.609  0.1295  0.5143 -0.2607
24657SOL    HW185949   6.874   9.590   3.690 -2.3398 -0.2039 -0.4772
24657SOL    HW285950   6.940   9.605   3.554  1.5493  0.7103  1.3525
24658SOL     OW85951   0.397   3.893   1.581 -0.0048 -0.4344  0.2718
24658SOL    HW185952   0.431   3.979   1.605 -0.5561 -0.1499  0.0692
24658SOL    HW285953   0.321   3.912   1.525  0.2682 -1.0614 -0.3278
24659SOL     OW85954   0.498   5.622   8.087  0.0431 -0.3121  1.1235
24659SOL    HW185955   0.437   5.562   8.045  1.0771  1.4798 -3.5023
24659SOL    HW285956   0.446   5.662   8.157 -4.0033  0.4770 -1.9063
24660SOL     OW85957   3.452   7.655   1.491 -0.1530  0.6450  0.5324
24660SOL    HW185958   3.388   7.726   1.495  1.5871  2.3333 -0.1986
24660SOL    HW285959   3.412   7.590   1.434 -1.8331  0.9335  1.3002
24661SOL     OW85960   0.926   0.420   6.485 -0.6093  0.3063  0.1108
24661SOL    HW185961   0.907   0.345   6.429 -0.2815  1.0336 -1.0089
24661SOL    HW285962   0.918   0.496   6.428  0.7176  1.0048  0.7897
24662SOL     OW85963   6.929   2.791   6.415  0.4773 -0.3023  0.2256
24662SOL    HW185964   6.999   2.819   6.474 -0.0549  0.8604  0.3369
24662SOL    HW285965   6.918   2.698   6.433  1.7591 -0.4219  0.4440
24663SOL     OW85966   7.620   5.758   7.009  0.2268  0.3764  0.2152
24663SOL    HW185967   7.704   5.726   7.041  0.0865 -0.9045 -0.6423
24663SOL    HW285968   7.562   5.754   7.085  0.4151 -0.7097  0.3157
24664SOL     OW85969   1.394   3.455   8.564  0.2743  0.2464 -0.1453
24664SOL    HW185970   1.489   3.459   8.553  0.1697  0.1843 -1.1997
24664SOL    HW285971   1.359   3.462   8.475 -0.6236 -2.5406 -0.1355
24665SOL     OW85972   8.789   8.571   2.804  0.1449 -0.3123  0.1676
24665SOL    HW185973   8.877   8.571   2.843 -0.1566  1.2069  0.9212
24665SOL    HW285974   8.736   8.518   2.864  0.7662 -2.2960 -0.9416
24666SOL     OW85975   8.596   7.445   9.443 -0.2430 -0.3080  0.5411
24666SOL    HW185976   8.515   7.464   9.395  0.1260 -0.7480 -0.2935
24666SOL    HW285977   8.652   7.403   9.377  0.1764 -1.2016  1.4517
24667SOL     OW85978   9.066   6.480   9.304 -0.2578  0.3059 -0.1806
24667SOL    HW185979   8.984   6.430   9.310  0.0784 -0.1801  0.5367
24667SOL    HW285980   9.133   6.413   9.292 -0.1416  0.8052 -2.8504
24668SOL     OW85981   8.529   3.826   0.913  0.7193 -0.3707  0.4345
24668SOL    HW185982   8.621   3.846   0.930  0.9279 -0.9545  0.0254
24668SOL    HW285983   8.488   3.912   0.899  1.2691 -0.1301  0.2674
24669SOL     OW85984   3.052   7.150   5.873  0.1121  0.2410 -0.5179
24669SOL    HW185985   3.092   7.234   5.850 -0.8456  1.1761  1.0692
24669SOL    HW285986   3.058   7.146   5.968 -0.6761 -1.0737 -0.5065
24670SOL     OW85987   7.852   0.497   9.666  0.5394 -0.5234  0.0954
24670SOL    HW185988   7.799   0.436   9.615 -1.5460  0.1732  1.3150
24670SOL    HW285989   7.887   0.445   9.738  0.7045 -0.7649 -0.1560
24671SOL     OW85990   3.263   1.072   5.342  0.2558 -1.1130  0.3873
24671SOL    HW185991   3.285   0.990   5.297  1.8656 -1.1230  1.1249
24671SOL    HW285992   3.267   1.050   5.435 -1.0284 -0.5938  0.5832
24672SOL     OW85993   4.248   1.153   3.119  0.3440 -0.5235  0.2060
24672SOL    HW185994   4.266   1.100   3.196  2.6871 -1.1243 -0.6861
24672SOL    HW285995   4.265   1.243   3.148  1.7858 -0.7956  0.2765
24673SOL     OW85996   9.038   2.787   1.639  0.3286 -0.2446 -0.2126
24673SOL    HW185997   8.988   2.733   1.578 -0.3249 -0.7173  0.7178
24673SOL    HW285998   9.129   2.762   1.623  0.0768 -1.2650 -0.1427
24674SOL     OW85999   2.847   7.066   7.762  0.3557  0.0322  0.4658
24674SOL    HW186000   2.822   7.127   7.694  0.8760 -1.0358 -0.7234
24674SOL    HW286001   2.943   7.061   7.757  0.3169 -1.0188  0.3861
24675SOL     OW86002   2.238   9.157   9.977 -0.1664 -0.4886  0.3053
24675SOL    HW186003   2.233   9.129  10.069 -0.5270  1.5921  0.9769
24675SOL    HW286004   2.331   9.152   9.955 -0.2170 -2.1610  0.3667
24676SOL     OW86005   4.331   9.732   5.535 -0.4540 -0.1169 -0.0649
24676SOL    HW186006   4.420   9.714   5.566 -0.7694  0.9032  1.5316
24676SOL    HW286007   4.337   9.818   5.494 -0.5556 -0.4195 -0.7389
24677SOL     OW86008   3.041   7.233   0.863  0.1265 -0.5630 -0.2486
24677SOL    HW186009   2.987   7.302   0.823  0.9332 -0.2264 -0.7771
24677SOL    HW286010   3.092   7.197   0.790  1.6355  0.0753  0.4499
24678SOL     OW86011   7.635   1.387   0.477  0.1860  0.2076  0.2349
24678SOL    HW186012   7.690   1.385   0.399  0.0515  0.3660  0.1349
24678SOL    HW286013   7.696   1.374   0.550  0.3416  0.2820  0.1188
24679SOL     OW86014   0.124   9.028   5.949  0.0496 -0.0897  0.1652
24679SOL    HW186015   0.199   9.073   5.989 -0.3062  0.7427 -0.0735
24679SOL    HW286016   0.071   9.099   5.912  0.3746 -0.8296 -1.8109
24680SOL     OW86017   8.180   1.086   4.219 -0.0851  0.0243  0.4676
24680SOL    HW186018   8.212   1.021   4.156 -0.5809  2.5674 -2.6752
24680SOL    HW286019   8.241   1.159   4.211 -0.5792  0.7296  2.5196
24681SOL     OW86020   1.854   8.459   8.391  0.1746  0.2616  0.5634
24681SOL    HW186021   1.799   8.492   8.462 -1.5840  1.2276 -1.1531
24681SOL    HW286022   1.877   8.537   8.339  2.0477 -0.3133  0.4360
24682SOL     OW86023   8.689   5.292   4.457 -0.2041  0.0590  0.2079
24682SOL    HW186024   8.765   5.238   4.437  0.3692  1.1140 -0.6226
24682SOL    HW286025   8.684   5.293   4.552  1.1268  0.3641  0.2891
24683SOL     OW86026   0.102   5.559   7.626  0.7632 -0.1222  0.0579
24683SOL    HW186027   0.167   5.503   7.668  1.1961 -0.3939 -0.9410
24683SOL    HW286028   0.023   5.505   7.621  1.1817 -0.6681 -0.9114
24684SOL     OW86029   6.547   1.905   9.041 -0.0673  0.2690 -0.6663
24684SOL    HW186030   6.517   1.885   9.129 -1.7913 -0.0789 -1.2927
24684SOL    HW286031   6.606   1.833   9.018 -1.1927 -0.7137 -0.5302
24685SOL     OW86032   0.915   9.358   7.671 -0.5152  0.2133  0.4174
24685SOL    HW186033   0.926   9.372   7.765 -2.4519 -0.3848  0.7692
24685SOL    HW286034   0.862   9.432   7.642 -1.3347 -0.4713  0.1330
24686SOL     OW86035   4.204   0.739   7.528  0.1255 -0.2402 -0.0097
24686SOL    HW186036   4.291   0.776   7.542 -0.1720  1.3714 -1.8601
24686SOL    HW286037   4.145   0.814   7.533 -0.8502 -0.8828 -1.2329
24687SOL     OW86038   4.318   2.327   6.690 -0.5473  0.2306  0.5855
24687SOL    HW186039   4.325   2.237   6.721 -0.9348 -0.7948 -2.1000
24687SOL    HW286040   4.233   2.331   6.647  0.4105  1.1930 -1.3181
24688SOL     OW86041   5.573   0.085   6.606  0.2156 -0.0060  0.0161
24688SOL    HW186042   5.623   0.091   6.688 -1.4502  2.0591  0.9810
24688SOL    HW286043   5.636   0.051   6.542  1.8903 -0.6271  1.8808
24689SOL     OW86044   8.749   1.791   1.652  0.4370  0.1147  0.5079
24689SOL    HW186045   8.655   1.789   1.634  0.4329 -0.4772  0.5921
24689SOL    HW286046   8.783   1.712   1.611  0.9384  0.4386  0.2922
24690SOL     OW86047   3.165   7.534   4.404 -0.4313 -0.6443 -0.2015
24690SOL    HW186048   3.132   7.448   4.430  0.8999 -1.5569 -1.4096
24690SOL    HW286049   3.136   7.545   4.314  0.5439 -0.4334 -0.5023
24691SOL     OW86050   1.174   2.134   9.068  0.3320 -0.1498 -0.4162
24691SOL    HW186051   1.216   2.219   9.052  1.2186 -0.7494 -1.3170
24691SOL    HW286052   1.131   2.113   8.985  0.2425 -0.6542 -0.2427
24692SOL     OW86053   9.362   1.821   1.242 -0.2563  0.1995 -0.6610
24692SOL    HW186054   9.305   1.816   1.319  1.0067  0.9483  0.3702
24692SOL    HW286055   9.450   1.830   1.278  0.4187  0.1312 -2.2068
24693SOL     OW86056   9.818   8.353   5.068  0.1903  0.2971  0.0163
24693SOL    HW186057   9.882   8.293   5.030  1.0222  0.6480  0.8348
24693SOL    HW286058   9.868   8.431   5.092 -0.4579  0.4309  1.0235
24694SOL     OW86059   5.528   2.311   2.818 -0.6447  0.3277 -0.2608
24694SOL    HW186060   5.449   2.340   2.862  0.5004  1.4471  1.1353
24694SOL    HW286061   5.598   2.366   2.854  1.0063 -1.5757 -0.3888
24695SOL     OW86062   9.880   5.776   0.161 -0.3809  0.4239  0.2767
24695SOL    HW186063   9.873   5.849   0.100  3.4125 -0.4153 -1.4836
24695SOL    HW286064   9.908   5.817   0.243  0.4699  1.1048 -0.3314
24696SOL     OW86065   4.335   9.904   0.526 -0.4081  0.1127 -0.0215
24696SOL    HW186066   4.316   9.843   0.597 -1.1132  0.8889  0.4746
24696SOL    HW286067   4.368   9.849   0.455 -1.3474 -0.8839  0.2894
24697SOL     OW86068   9.610   6.177   5.118  0.2669 -0.3807  0.1725
24697SOL    HW186069   9.636   6.090   5.149 -1.8423 -0.5737  1.5428
24697SOL    HW286070   9.571   6.219   5.194 -2.9209  0.0334 -1.5306
24698SOL     OW86071   6.540   8.162   5.455 -0.2210  0.1891  0.3130
24698SOL    HW186072   6.596   8.183   5.380  2.1061  1.2497  2.2196
24698SOL    HW286073   6.472   8.230   5.453  0.8676  1.3178  0.1636
24699SOL     OW86074   3.452   3.241   8.670 -0.4921  0.1451  0.0876
24699SOL    HW186075   3.395   3.183   8.620  0.6173 -0.7403 -0.1919
24699SOL    HW286076   3.396   3.275   8.740 -1.4304 -0.4461 -0.3550
24700SOL     OW86077   4.427   5.182   5.195 -0.4179  0.4376  0.0762
24700SOL    HW186078   4.353   5.236   5.166 -0.6540 -0.9270 -2.0704
24700SOL    HW286079   4.500   5.209   5.138 -0.3596 -0.9741 -0.5486
24701SOL     OW86080   3.719   0.246  10.116  0.0471 -0.4124  0.7361
24701SOL    HW186081   3.658   0.318  10.134  0.4624  0.2059 -0.2711
24701SOL    HW286082   3.718   0.193  10.196 -0.1191  0.8230  1.5797
24702SOL     OW86083   4.890   9.902   1.507 -0.2987  0.3029 -0.2510
24702SOL    HW186084   4.844   9.843   1.447 -0.7261 -0.8438  1.1630
24702SOL    HW286085   4.821   9.950   1.552 -0.0192  0.4201  0.0591
24703SOL     OW86086   1.110   5.385   8.885  0.8229 -0.5699  0.6119
24703SOL    HW186087   1.146   5.403   8.972 -1.0484 -1.8379  1.7248
24703SOL    HW286088   1.017   5.406   8.892  0.6712 -0.4817 -1.1676
24704SOL     OW86089   7.851   4.820   9.030  0.2866 -0.0367 -0.1544
24704SOL    HW186090   7.936   4.847   8.995 -0.2346  2.3499  0.3002
24704SOL    HW286091   7.873   4.769   9.108  1.3133  0.7624  0.1055
24705SOL     OW86092   1.481   8.450   3.560 -0.0781  0.3925  0.1120
24705SOL    HW186093   1.524   8.498   3.489 -1.6008 -0.8831 -1.7987
24705SOL    HW286094   1.535   8.373   3.574  0.1406  0.5682  0.2405
24706SOL     OW86095   8.691   8.227   1.509 -0.2421 -0.0636  0.0002
24706SOL    HW186096   8.726   8.277   1.583  0.4882 -0.2104 -0.2329
24706SOL    HW286097   8.607   8.268   1.490 -0.5837 -0.2273  1.1154
24707SOL     OW86098   7.901   3.044   4.268 -0.0580 -0.7730  0.2193
24707SOL    HW186099   7.957   3.089   4.332 -1.5629  0.2665  0.8736
24707SOL    HW286100   7.962   3.006   4.205  1.3676  2.0575 -0.2917
24708SOL     OW86101   0.182   9.699   4.400 -0.3382 -0.7433 -0.3992
24708SOL    HW186102   0.207   9.759   4.329  1.6486 -0.3676  0.5569
24708SOL    HW286103   0.166   9.616   4.356  2.1822 -0.8827 -1.2240
24709SOL     OW86104   1.104  10.363   6.260  0.0071 -0.3165 -0.4148
24709SOL    HW186105   1.092  10.422   6.334  0.9333 -1.3134  0.5694
24709SOL    HW286106   1.029  10.303   6.264 -1.5328  1.3732 -2.0607
24710SOL     OW86107  10.233   0.426   6.217  0.0261  0.1832  0.1095
24710SOL    HW186108  10.211   0.457   6.129  1.4615 -1.0475 -0.7223
24710SOL    HW286109  10.271   0.502   6.261  0.0031  0.6040 -0.5863
24711SOL     OW86110   1.192   5.807   0.905 -0.1048 -0.5685  0.2985
24711SOL    HW186111   1.100   5.780   0.900 -0.0539 -1.2198  2.0732
24711SOL    HW286112   1.209   5.818   0.999  0.4540  3.8605 -0.1165
24712SOL     OW86113   1.971   5.299   3.466  0.1572 -0.0055 -0.2722
24712SOL    HW186114   1.967   5.375   3.409 -0.1423 -0.2805 -0.6203
24712SOL    HW286115   1.997   5.335   3.551  0.4245  0.4264 -0.5312
24713SOL     OW86116   0.506   1.400   8.465  0.0038  0.1008  0.3850
24713SOL    HW186117   0.569   1.401   8.536 -0.1499  1.3704  0.5239
24713SOL    HW286118   0.478   1.308   8.459  0.8375 -0.2233  1.2100
24714SOL     OW86119   8.214   0.172   1.007  0.3737 -0.3776  0.1723
24714SOL    HW186120   8.136   0.192   1.058  0.5618 -1.5736  0.9771
24714SOL    HW286121   8.287   0.204   1.060  0.5163 -0.8035  0.2416
24715SOL     OW86122   6.646   1.853   4.058  0.0394  0.0117 -0.2535
24715SOL    HW186123   6.551   1.856   4.068  0.0662  0.2126 -0.0654
24715SOL    HW286124   6.661   1.789   3.987 -0.1687 -1.1773  0.7408
24716SOL     OW86125   9.972   4.582   5.838 -0.0823 -0.0345 -0.5793
24716SOL    HW186126  10.009   4.497   5.863 -0.3977 -0.0349 -0.1008
24716SOL    HW286127  10.048   4.637   5.821  0.2631  0.6022  2.4466
24717SOL     OW86128   0.428   7.287   2.013 -0.2860  0.2300 -0.6461
24717SOL    HW186129   0.473   7.364   2.047 -1.2116  0.5557 -0.1387
24717SOL    HW286130   0.337   7.298   2.038 -0.2401 -1.6535  0.5720
24718SOL     OW86131   2.699   0.175   3.021  0.0742 -0.1983  0.4786
24718SOL    HW186132   2.795   0.174   3.027  0.0402 -0.2265  0.9996
24718SOL    HW286133   2.681   0.159   2.928  0.5774 -0.0268  0.3482
24719SOL     OW86134   0.394   4.041   5.813 -0.5984 -0.0500  0.1689
24719SOL    HW186135   0.475   4.061   5.861 -0.6062 -0.7412  0.4836
24719SOL    HW286136   0.327   4.035   5.881 -0.3800 -2.2846  0.2537
24720SOL     OW86137   7.299   3.404   5.353 -0.1656 -0.2816  0.1306
24720SOL    HW186138   7.231   3.465   5.324 -1.3763 -1.6928 -0.1359
24720SOL    HW286139   7.361   3.459   5.401 -0.6716  1.3091 -0.9383
24721SOL     OW86140   7.810   8.274   4.142  0.0818  0.5729  0.3132
24721SOL    HW186141   7.724   8.233   4.129 -0.1293  0.7219  1.1482
24721SOL    HW286142   7.821   8.275   4.237  0.9058  0.7776  0.2205
24722SOL     OW86143   6.484   9.599   5.805 -0.4644  0.2195 -0.1507
24722SOL    HW186144   6.573   9.603   5.770 -0.5965 -1.5669 -0.8386
24722SOL    HW286145   6.432   9.652   5.744  0.0036  0.6641 -0.1690
24723SOL     OW86146   2.062   7.298   8.992  0.6082 -0.0344  0.0497
24723SOL    HW186147   2.010   7.348   9.055  0.9633 -1.4163  1.4858
24723SOL    HW286148   2.025   7.322   8.907 -1.4188  0.1572  0.9204
24724SOL     OW86149   8.317   0.149   4.125 -0.5961  0.0101  0.1021
24724SOL    HW186150   8.305   0.068   4.175 -0.5156  0.2142  0.4543
24724SOL    HW286151   8.356   0.121   4.043 -2.4436 -0.5748 -0.6465
24725SOL     OW86152   1.769   9.814   8.365 -0.3015 -0.9152  0.4573
24725SOL    HW186153   1.787   9.721   8.376  0.2735 -1.0399 -1.1479
24725SOL    HW286154   1.834   9.843   8.300  1.4815  1.2873  2.9878
24726SOL     OW86155   5.602   9.262  10.123 -0.0836  0.2615 -0.0901
24726SOL    HW186156   5.592   9.337  10.064  0.5378  2.0573  1.9386
24726SOL    HW286157   5.657   9.295  10.194 -0.3735 -1.9391  1.2463
24727SOL     OW86158   4.131   9.200   8.206 -0.1910  0.1871 -0.4606
24727SOL    HW186159   4.084   9.282   8.219 -1.2786 -0.2032 -1.7489
24727SOL    HW286160   4.114   9.150   8.286  0.8303  1.3396  0.5224
24728SOL     OW86161   7.365   8.839   4.109 -0.0716 -0.1329  0.1615
24728SOL    HW186162   7.368   8.778   4.183 -0.1871 -1.6768 -1.0287
24728SOL    HW286163   7.336   8.784   4.035  0.1343  1.3165 -1.0418
24729SOL     OW86164   1.038   1.967   4.029  0.3191 -0.2247 -0.0935
24729SOL    HW186165   0.965   1.988   3.971  1.1680 -0.6827 -1.3905
24729SOL    HW286166   1.034   2.034   4.098 -0.5794  0.4994 -0.8130
24730SOL     OW86167   5.217   3.437   2.643  0.0887 -0.2726  0.4829
24730SOL    HW186168   5.312   3.449   2.654  0.3338 -1.1845 -0.4280
24730SOL    HW286169   5.204   3.343   2.649 -0.7692 -0.1541  0.5750
24731SOL     OW86170   2.078   3.428   8.492  0.3541  0.1803 -0.3309
24731SOL    HW186171   2.018   3.450   8.421 -0.2776 -0.9128 -0.1504
24731SOL    HW286172   2.147   3.376   8.450  0.8306  0.8493 -0.4082
24732SOL     OW86173   8.708   6.790   1.985  0.3222  0.5484 -0.3051
24732SOL    HW186174   8.661   6.752   2.059  1.4548  1.8300  1.1429
24732SOL    HW286175   8.639   6.812   1.922 -0.5183 -2.0887 -0.4088
24733SOL     OW86176   9.200   9.029   9.647 -0.3523  0.1347  0.1038
24733SOL    HW186177   9.114   9.018   9.686  0.6350  0.0942  2.5053
24733SOL    HW286178   9.184   9.063   9.559 -2.8147 -1.3381 -0.0889
24734SOL     OW86179   8.726   6.454   4.647  0.1287  0.0749  0.0107
24734SOL    HW186180   8.746   6.537   4.603  0.2619  0.3051  0.4930
24734SOL    HW286181   8.672   6.480   4.722  0.5609 -0.2210  0.4263
24735SOL     OW86182   5.395   5.718   6.650  0.0144  0.2849 -0.3923
24735SOL    HW186183   5.420   5.688   6.563  2.1600  0.2058  0.1928
24735SOL    HW286184   5.465   5.687   6.707 -1.0004  0.9093  1.2658
24736SOL     OW86185   2.803   0.053   5.763  0.5231  0.0209 -0.1587
24736SOL    HW186186   2.781   0.084   5.851  0.9820 -0.3556  0.0953
24736SOL    HW286187   2.761   0.116   5.704 -1.0990 -0.5974  0.2886
24737SOL     OW86188   0.974   2.921   5.136  0.2688  0.4231  0.4149
24737SOL    HW186189   1.049   2.968   5.098 -0.5569  2.6716  1.3489
24737SOL    HW286190   0.898   2.964   5.096 -0.5372 -0.5221  0.9130
24738SOL     OW86191   4.397   8.578   6.909  0.5727 -0.4412 -0.5578
24738SOL    HW186192   4.310   8.576   6.948  1.0179  1.1705  0.6222
24738SOL    HW286193   4.403   8.663   6.866  2.5588  0.8655  1.9931
24739SOL     OW86194   2.225   8.895   2.775 -0.1892 -0.8380 -0.2728
24739SOL    HW186195   2.249   8.917   2.865 -0.5932  0.4098 -0.4536
24739SOL    HW286196   2.180   8.811   2.781  1.8442 -1.9578  0.3935
24740SOL     OW86197   4.165   9.889   2.199 -0.2358 -0.6726 -0.2705
24740SOL    HW186198   4.145   9.954   2.131  1.6674  1.6547  1.2540
24740SOL    HW286199   4.100   9.905   2.268  0.5968  0.0574  0.3626
24741SOL     OW86200   3.581   1.529   9.452 -0.0147  0.0419  0.0105
24741SOL    HW186201   3.512   1.487   9.401 -0.1836 -1.5966  1.4937
24741SOL    HW286202   3.657   1.528   9.394  0.1009 -2.7606  0.0910
24742SOL     OW86203   2.828   4.254   1.520 -0.5344 -0.4435  0.1057
24742SOL    HW186204   2.830   4.207   1.603  1.5291  2.2932  1.7470
24742SOL    HW286205   2.920   4.263   1.495 -0.9130  1.6584 -0.7064
24743SOL     OW86206   6.887   8.917   3.063 -0.2414  0.3233 -0.1883
24743SOL    HW186207   6.916   8.836   3.105 -0.3766  0.8179  0.9058
24743SOL    HW286208   6.843   8.888   2.983  0.0329 -0.6557 -0.0026
24744SOL     OW86209   5.710   0.303   2.010 -0.5191  0.4385 -0.2276
24744SOL    HW186210   5.778   0.239   2.031 -0.4024  1.1227  1.6275
24744SOL    HW286211   5.755   0.387   2.010 -1.1589  0.7856 -0.1224
24745SOL     OW86212   0.125   5.353   1.241 -0.0125 -0.2638  0.0981
24745SOL    HW186213   0.188   5.283   1.222 -0.7307 -0.5917 -1.1381
24745SOL    HW286214   0.177   5.419   1.286  1.1546 -0.6789 -0.5884
24746SOL     OW86215   2.893   4.490   8.478 -0.1586  0.2013  0.4666
24746SOL    HW186216   2.978   4.524   8.506 -0.1885  0.7459 -0.0780
24746SOL    HW286217   2.830   4.555   8.507 -0.0651  1.5131 -1.9809
24747SOL     OW86218   9.806   7.664   6.920  0.1498 -0.2785 -0.3902
24747SOL    HW186219   9.835   7.634   7.006  1.1719  0.0391 -0.6039
24747SOL    HW286220   9.737   7.727   6.938 -1.3672 -1.9984  0.0959
24748SOL     OW86221   8.699   2.959   0.309 -0.0940  0.3177  0.2096
24748SOL    HW186222   8.750   3.035   0.281  0.5823 -0.3020 -0.2589
24748SOL    HW286223   8.621   2.961   0.254  0.0109  0.5752  0.0673
24749SOL     OW86224   7.203   7.009   2.845 -0.2932 -0.0232 -0.5736
24749SOL    HW186225   7.201   6.927   2.796 -1.1177 -0.6984  0.5446
24749SOL    HW286226   7.170   7.074   2.784 -0.0873 -0.6068 -1.3189
24750SOL     OW86227   0.590   9.797   4.845  0.4480  0.2764  1.3430
24750SOL    HW186228   0.648   9.721   4.845  0.1925  0.0382 -0.2880
24750SOL    HW286229   0.622   9.852   4.773 -1.2952  0.1361  0.3842
24751SOL     OW86230   7.012   1.939   6.744  0.3711  0.1346 -0.0094
24751SOL    HW186231   6.984   1.849   6.728  0.0594  0.3547 -0.7444
24751SOL    HW286232   7.010   1.948   6.840  0.2699 -0.5903  0.0639
24752SOL     OW86233   7.405   7.655   6.149 -0.0790 -0.0509  0.0005
24752SOL    HW186234   7.455   7.653   6.068  0.2681 -1.3573  0.2325
24752SOL    HW286235   7.407   7.565   6.182 -0.3766  0.4066  1.3548
24753SOL     OW86236   0.812   9.282   2.778 -0.2829  0.4989  0.4291
24753SOL    HW186237   0.869   9.220   2.826  2.2615  1.6444 -0.8899
24753SOL    HW286238   0.793   9.237   2.696 -0.5328  0.4982  0.4862
24754SOL     OW86239   7.585   0.242   1.522 -0.3393  0.1551 -0.7397
24754SOL    HW186240   7.518   0.280   1.578 -0.8102 -0.0959 -1.1243
24754SOL    HW286241   7.536   0.202   1.450  0.3075  1.8991 -2.2154
24755SOL     OW86242   4.437   6.175   6.220  1.0602 -0.6735 -0.2329
24755SOL    HW186243   4.367   6.210   6.275  0.9518  2.0717 -1.8912
24755SOL    HW286244   4.514   6.227   6.243  1.6537 -1.2551 -0.8518
24756SOL     OW86245  10.352   4.330   9.389  0.3605 -0.6127  0.1049
24756SOL    HW186246  10.384   4.266   9.453 -0.7362 -1.3679 -0.0661
24756SOL    HW286247  10.260   4.342   9.412  0.3989  0.4450 -0.2628
24757SOL     OW86248   9.881   5.771   6.997 -0.6091 -0.1395 -0.0016
24757SOL    HW186249   9.823   5.782   6.921  0.8370 -1.3197 -1.3493
24757SOL    HW286250   9.969   5.782   6.960  0.1139 -0.3455  1.6101
24758SOL     OW86251   6.959   3.862   6.121  0.5510  0.0317 -0.0439
24758SOL    HW186252   6.873   3.844   6.084  0.8268  1.7635 -1.7006
24758SOL    HW286253   6.983   3.782   6.167 -1.8581 -0.5374  0.3544
24759SOL     OW86254   4.505   8.392   9.932 -0.2203 -0.6557 -0.1464
24759SOL    HW186255   4.527   8.426   9.845 -0.1000  0.5840  0.3462
24759SOL    HW286256   4.586   8.402   9.982 -0.5059 -0.6552  0.3209
24760SOL     OW86257   2.310   2.530  10.211 -0.6118 -0.2842  0.3598
24760SOL    HW186258   2.294   2.441  10.178  0.3679 -0.1455 -0.5537
24760SOL    HW286259   2.289   2.526  10.304 -4.3431 -0.5011 -0.3469
24761SOL     OW86260   1.348   5.700   9.552  0.6898 -0.6361  0.1965
24761SOL    HW186261   1.396   5.780   9.573  1.0570 -0.9845  0.7094
24761SOL    HW286262   1.290   5.725   9.479  0.8034  0.0900  0.3454
24762SOL     OW86263   6.366   4.683   4.519  0.0567  0.6458  0.0053
24762SOL    HW186264   6.315   4.754   4.558 -0.3601  0.2725  0.1403
24762SOL    HW286265   6.418   4.726   4.450  0.2080  1.1695  0.4415
24763SOL     OW86266   1.512   2.028   9.290 -0.1759  0.4171  0.0949
24763SOL    HW186267   1.564   2.106   9.308  1.1764 -0.6855  1.1697
24763SOL    HW286268   1.475   2.004   9.375  0.6636 -0.9478  0.1006
24764SOL     OW86269   2.099   8.426   8.238  0.0036  0.3936 -0.7083
24764SOL    HW186270   2.027   8.448   8.297 -0.0380  1.6412 -1.1852
24764SOL    HW286271   2.075   8.469   8.155  2.0461  2.2201 -0.4211
24765SOL     OW86272   1.579   3.642  10.164 -0.2678  0.0807 -0.3602
24765SOL    HW186273   1.603   3.715  10.221  0.2719  0.4796 -1.0845
24765SOL    HW286274   1.627   3.658  10.083 -1.4353 -0.1784 -1.1306
24766SOL     OW86275   9.842   9.184   4.203  0.1709 -0.1363  0.1174
24766SOL    HW186276   9.824   9.259   4.260 -0.5595 -0.8556  0.8551
24766SOL    HW286277   9.811   9.212   4.117  1.5409  1.0679 -0.0192
24767SOL     OW86278   1.383   1.021   5.579 -0.0942 -0.0371 -0.0840
24767SOL    HW186279   1.401   1.075   5.656 -0.1505 -1.1591  0.7443
24767SOL    HW286280   1.293   1.044   5.554 -0.1860  0.1039  0.3747
24768SOL     OW86281   7.372   6.152   1.680  0.0538  0.5917 -0.3961
24768SOL    HW186282   7.461   6.131   1.709 -0.0090  0.6270 -0.1769
24768SOL    HW286283   7.364   6.246   1.693 -0.5280  0.3610  1.0001
24769SOL     OW86284   5.163   9.225   2.231 -0.2336  0.6776 -0.7343
24769SOL    HW186285   5.070   9.214   2.214 -0.3588  1.9522 -0.9600
24769SOL    HW286286   5.198   9.264   2.151  0.1908  1.6737 -0.0832
24770SOL     OW86287   5.793   7.119   5.270 -0.5069 -0.6486  0.3440
24770SOL    HW186288   5.698   7.106   5.277 -0.6839  1.3107  4.7822
24770SOL    HW286289   5.803   7.205   5.229 -0.6425 -0.6600  0.2872
24771SOL     OW86290   0.843  10.369  10.329 -0.3803  0.5059 -0.2815
24771SOL    HW186291   0.801  10.454  10.311  0.8578  1.0515 -0.6903
24771SOL    HW286292   0.797  10.308  10.272  1.3629  1.6570 -3.1492
24772SOL     OW86293   5.085   1.286   3.676  0.0208 -0.2815 -0.6002
24772SOL    HW186294   5.012   1.313   3.620 -0.4845  0.6849  0.4763
24772SOL    HW286295   5.151   1.354   3.665  1.5135 -1.9343 -2.7859
24773SOL     OW86296   5.079   8.987   6.799  0.1325 -0.1435 -0.3093
24773SOL    HW186297   5.130   8.984   6.718  0.3791  0.1071 -0.1604
24773SOL    HW286298   5.005   9.044   6.777 -0.0821 -0.4960 -0.5198
24774SOL     OW86299   8.935   7.845   0.592 -0.0040 -0.1527  0.1515
24774SOL    HW186300   9.027   7.824   0.609  0.3289  1.2200  0.1294
24774SOL    HW286301   8.912   7.911   0.657 -0.6657  0.2861 -0.5047
24775SOL     OW86302   0.673   2.047   2.173 -0.0868 -0.4611 -0.1333
24775SOL    HW186303   0.737   2.090   2.230 -0.3201 -1.2019  0.7161
24775SOL    HW286304   0.674   1.955   2.201  1.3380 -1.3411 -2.7508
24776SOL     OW86305   7.992   6.248   2.441  0.3030  0.1967  0.1666
24776SOL    HW186306   8.026   6.222   2.355  1.6554 -2.2778  1.3421
24776SOL    HW286307   7.909   6.290   2.422  1.1843  0.9426 -2.4295
24777SOL     OW86308   5.475   0.759   3.147  0.5871 -0.3271  0.5636
24777SOL    HW186309   5.532   0.834   3.165 -0.7128  0.2876  2.4315
24777SOL    HW286310   5.514   0.687   3.198 -0.5434  0.2427  2.3247
24778SOL     OW86311   3.758   8.399   6.579 -0.1849  0.6352 -0.0229
24778SOL    HW186312   3.834   8.350   6.611 -0.1912  0.8614  0.3490
24778SOL    HW286313   3.783   8.491   6.591 -0.2191  0.7190 -0.6059
24779SOL     OW86314   7.495   6.884   9.014 -0.1328  0.0873 -0.2219
24779SOL    HW186315   7.559   6.913   8.949 -0.9734 -0.1347 -1.1732
24779SOL    HW286316   7.411   6.894   8.970 -0.5823 -2.2176 -0.0109
24780SOL     OW86317   9.692   6.490   2.420 -0.1395  0.3167  0.2500
24780SOL    HW186318   9.603   6.457   2.408 -0.4989  1.3722 -0.1279
24780SOL    HW286319   9.724   6.447   2.499 -0.9076 -0.2157  0.2806
24781SOL     OW86320   2.706   7.518   7.081  0.0684  0.6504 -0.4873
24781SOL    HW186321   2.683   7.531   6.989 -1.6030  0.1612 -0.1714
24781SOL    HW286322   2.741   7.429   7.086  1.6350  1.2057 -0.8753
24782SOL     OW86323   9.260   2.131   3.548 -0.0019  0.4623  0.3679
24782SOL    HW186324   9.197   2.071   3.588 -0.3025 -0.6577 -1.6473
24782SOL    HW286325   9.344   2.105   3.583  0.0929 -2.2557 -1.5274
24783SOL     OW86326   1.870   2.760   6.967 -0.0097  0.3123  0.0832
24783SOL    HW186327   1.913   2.695   7.023 -0.2582  0.9663  1.0615
24783SOL    HW286328   1.936   2.827   6.953  0.3406 -0.2609 -1.1634
24784SOL     OW86329   6.157   1.254   6.191  0.5389 -0.1461  0.1735
24784SOL    HW186330   6.156   1.190   6.262 -0.1158  1.8684  2.0677
24784SOL    HW286331   6.239   1.302   6.203  0.1332  0.6192 -0.0357
24785SOL     OW86332   5.074   4.840  10.038  0.2181 -0.4764 -0.2560
24785SOL    HW186333   5.050   4.756   9.998 -0.0517 -0.2088 -0.6678
24785SOL    HW286334   5.017   4.848  10.114  0.5761 -0.8844  0.0624
24786SOL     OW86335   4.892   3.306   7.050  0.4316 -0.0440 -0.4186
24786SOL    HW186336   4.848   3.278   6.970  0.9680 -1.1671 -0.3294
24786SOL    HW286337   4.903   3.226   7.102 -0.0131  0.6745  0.8461
24787SOL     OW86338   1.290   4.319   1.158 -0.1736  0.3574 -0.2334
24787SOL    HW186339   1.322   4.375   1.087  1.8475 -0.4894 -0.0631
24787SOL    HW286340   1.214   4.275   1.120 -0.3461  1.3941 -1.1751
24788SOL     OW86341   8.631   4.598  10.296 -0.2930 -0.1544 -0.1590
24788SOL    HW186342   8.687   4.669  10.327  2.0563 -1.8029 -0.4391
24788SOL    HW286343   8.545   4.639  10.286  1.1426  2.9295 -1.2385
24789SOL     OW86344   0.032   8.508   1.695  0.4128  0.0183  0.0790
24789SOL    HW186345  -0.035   8.552   1.748  1.1692 -0.8451  1.8269
24789SOL    HW286346   0.069   8.442   1.753 -0.0081 -2.3230 -2.1223
24790SOL     OW86347   6.996   1.601   0.020  0.2372 -0.0345  0.3376
24790SOL    HW186348   7.075   1.552  -0.001 -0.2119 -1.5625  1.9925
24790SOL    HW286349   6.924   1.544  -0.006 -0.3040  0.1028  1.4653
24791SOL     OW86350   3.124   5.844   7.676  0.2706  0.3368 -0.6294
24791SOL    HW186351   3.187   5.849   7.605 -0.7587  1.9447 -1.4768
24791SOL    HW286352   3.156   5.907   7.741 -0.2266  0.8640 -0.8870
24792SOL     OW86353   5.028   4.818   2.292  0.2185  0.2739 -0.1487
24792SOL    HW186354   5.097   4.789   2.352 -0.0477 -0.9260 -0.4028
24792SOL    HW286355   4.948   4.779   2.327 -0.2636  1.2285 -0.1560
24793SOL     OW86356   8.059   9.448   9.277 -0.1706 -0.6278 -0.5307
24793SOL    HW186357   8.027   9.479   9.361  0.1839  2.0057 -1.2819
24793SOL    HW286358   8.001   9.488   9.212  0.0818 -1.9115 -1.5978
24794SOL     OW86359   9.843   2.388   3.642  0.3511  0.4513 -0.1128
24794SOL    HW186360   9.920   2.445   3.642 -1.0852  2.5289 -1.2438
24794SOL    HW286361   9.784   2.428   3.578 -0.5168 -2.7213 -1.4497
24795SOL     OW86362   2.897   5.309   4.893  0.0638 -0.2652 -0.0446
24795SOL    HW186363   2.856   5.234   4.851  0.5831  0.0622 -1.1940
24795SOL    HW286364   2.943   5.272   4.968  1.6961 -1.4095 -1.5048
24796SOL     OW86365   9.253   7.876   0.273 -0.8873 -0.1409 -0.4259
24796SOL    HW186366   9.244   7.826   0.192  0.0820  1.4034 -1.5382
24796SOL    HW286367   9.301   7.955   0.248  0.7570 -0.2770  1.9338
24797SOL     OW86368   5.889   7.472   2.681 -0.4673  0.1351  0.1065
24797SOL    HW186369   5.854   7.557   2.656 -0.4919 -0.0065 -0.3348
24797SOL    HW286370   5.981   7.474   2.652 -0.6039 -0.1777 -0.3597
24798SOL     OW86371   0.948   3.964   6.103 -0.5464  0.0267 -0.3004
24798SOL    HW186372   0.927   4.009   6.021 -1.7712  1.0216  0.5181
24798SOL    HW286373   0.890   3.888   6.104 -0.2248 -0.2246 -0.5463
24799SOL     OW86374   3.879   4.465   8.781 -0.3996  0.0524  0.0745
24799SOL    HW186375   3.807   4.527   8.774  1.4296  2.4379  0.7999
24799SOL    HW286376   3.838   4.382   8.803 -2.8597  1.5022  1.4090
24800SOL     OW86377   9.902   4.053   2.724  0.4122  0.4948 -0.3350
24800SOL    HW186378   9.991   4.029   2.752  0.6796 -0.0123 -1.5484
24800SOL    HW286379   9.899   4.028   2.631 -0.3415  2.3651 -0.8470
24801SOL     OW86380   7.250   9.626   9.212 -0.4138 -0.1621 -0.3708
24801SOL    HW186381   7.266   9.532   9.217 -1.3177 -0.3838 -1.2287
24801SOL    HW286382   7.241   9.654   9.303  0.8737 -0.7095 -0.0577
24802SOL     OW86383   7.538   2.775   5.000  0.4661 -0.1423 -0.0441
24802SOL    HW186384   7.517   2.683   5.017 -0.5715  0.1149  0.1774
24802SOL    HW286385   7.626   2.787   5.034 -0.5651 -0.2863  2.9870
24803SOL     OW86386   3.718   2.894   6.667 -0.2922 -0.1274  0.7389
24803SOL    HW186387   3.810   2.917   6.677 -0.5096  0.6137  1.1133
24803SOL    HW286388   3.677   2.920   6.749 -1.1694  1.3158 -0.0952
24804SOL     OW86389   2.230   2.932   8.071 -0.0511 -0.1288 -0.1800
24804SOL    HW186390   2.294   2.936   8.142  0.2702 -0.1587 -0.4639
24804SOL    HW286391   2.279   2.957   7.993  0.2875 -2.5691 -0.8401
24805SOL     OW86392   4.613   1.345   2.987 -0.5953 -0.3915 -0.2627
24805SOL    HW186393   4.605   1.386   2.901 -0.1603 -0.8158 -0.5099
24805SOL    HW286394   4.705   1.318   2.992 -0.6391 -0.4359  0.3024
24806SOL     OW86395   3.716   5.088   2.641  0.2203  0.4564  0.2913
24806SOL    HW186396   3.635   5.115   2.684  0.2008  0.9348 -0.0386
24806SOL    HW286397   3.741   5.163   2.587  1.2669  0.5962  0.9361
24807SOL     OW86398   6.660   7.939   2.416 -0.1849  0.5509 -0.0725
24807SOL    HW186399   6.684   7.929   2.509  2.4779  1.1408 -0.6330
24807SOL    HW286400   6.691   8.026   2.392 -0.1353  0.1080 -1.7111
24808SOL     OW86401   6.208  10.125   7.618 -0.0299 -0.5569  0.0903
24808SOL    HW186402   6.252  10.055   7.666  2.0208  0.9759  0.5837
24808SOL    HW286403   6.116  10.116   7.642  0.5320 -1.5654  2.1176
24809SOL     OW86404   9.293   0.474   4.761 -0.0227  0.3432  0.3540
24809SOL    HW186405   9.213   0.525   4.748 -1.2302 -1.2703  1.0953
24809SOL    HW286406   9.291   0.408   4.692  0.6083  0.2032  0.4601
24810SOL     OW86407   7.143   6.145   5.349 -0.1237 -0.4658  0.0678
24810SOL    HW186408   7.186   6.122   5.432  2.4571 -0.6618 -1.2291
24810SOL    HW286409   7.078   6.211   5.373  0.9693 -0.0767  2.1811
24811SOL     OW86410   1.777   0.039   6.705  0.0275  0.3790  0.4102
24811SOL    HW186411   1.861   0.011   6.669 -0.5701 -2.2573  0.8324
24811SOL    HW286412   1.725   0.062   6.628  0.5368  0.2086  0.0094
24812SOL     OW86413   3.696  10.342   7.914 -0.2483 -0.1610  0.0116
24812SOL    HW186414   3.770  10.305   7.963  1.0306  2.2445  0.0913
24812SOL    HW286415   3.641  10.381   7.981 -1.2361 -1.2815 -0.1181
24813SOL     OW86416   4.086   1.280   4.702  0.3847  0.1639 -0.4214
24813SOL    HW186417   4.011   1.286   4.760  0.8671  1.0270  0.1448
24813SOL    HW286418   4.058   1.221   4.632 -0.5278 -0.1566  0.1950
24814SOL     OW86419   5.291   5.180  10.062  0.0264  0.2634  0.3551
24814SOL    HW186420   5.271   5.167   9.969  0.1880 -0.1890  0.3783
24814SOL    HW286421   5.271   5.096  10.103 -0.9062  0.7291  0.8887
24815SOL     OW86422   5.386   6.851   1.091 -0.2501  0.1849  0.8968
24815SOL    HW186423   5.420   6.940   1.091  0.8572 -0.2060  1.6549
24815SOL    HW286424   5.390   6.824   1.183  0.0916 -0.8742  0.5853
24816SOL     OW86425   8.431   6.836   0.637 -0.1808  0.0530  0.3994
24816SOL    HW186426   8.348   6.807   0.598  0.3598 -0.5001 -0.3851
24816SOL    HW286427   8.408   6.911   0.691 -1.2317 -0.2545  0.3974
24817SOL     OW86428   8.815   0.395   4.658  0.1688 -0.0900  0.0963
24817SOL    HW186429   8.902   0.372   4.625  0.2340 -0.7906  0.7396
24817SOL    HW286430   8.760   0.400   4.579  0.7788  0.3414 -0.3092
24818SOL     OW86431  10.256   5.498   9.487 -0.0192 -0.6083  0.3663
24818SOL    HW186432  10.227   5.434   9.552 -0.5369  0.0534  0.8122
24818SOL    HW286433  10.189   5.567   9.491  1.0728  0.4771  0.6813
24819SOL     OW86434   3.015   1.273   6.068  0.2811 -0.2070 -0.3261
24819SOL    HW186435   3.077   1.235   6.130 -0.5985  0.1783  0.8232
24819SOL    HW286436   3.006   1.364   6.095 -1.7129 -0.5408  0.3605
24820SOL     OW86437   8.455  10.197   9.548  0.3370  0.3525 -0.3618
24820SOL    HW186438   8.419  10.117   9.585 -0.8512  0.4020 -1.3481
24820SOL    HW286439   8.486  10.247   9.623  0.0351 -0.5289  0.3551
24821SOL     OW86440   6.503   1.853   1.749 -0.5475 -0.3967  0.4179
24821SOL    HW186441   6.447   1.842   1.673 -1.8030  0.5841  1.1712
24821SOL    HW286442   6.592   1.837   1.716 -1.0973 -0.3372 -1.1541
24822SOL     OW86443   6.360   5.958   5.658  0.1889 -0.8021  0.2835
24822SOL    HW186444   6.283   5.914   5.622 -0.7264  1.1095 -0.2432
24822SOL    HW286445   6.327   6.044   5.685  2.5773  1.1367 -2.3961
24823SOL     OW86446   2.776   0.756   1.111 -0.1668 -0.0887 -0.9451
24823SOL    HW186447   2.735   0.714   1.035 -0.9937 -1.3359  0.1403
24823SOL    HW286448   2.704   0.771   1.172  0.4846  0.8769 -0.3839
24824SOL     OW86449   1.079   7.592   2.543 -0.5431 -0.2401  0.3295
24824SOL    HW186450   1.167   7.555   2.554 -0.2583 -0.2172 -1.6381
24824SOL    HW286451   1.092   7.686   2.551 -0.3029 -0.2085 -0.3625
24825SOL     OW86452   6.766   9.342   4.873  0.3366  0.1256 -0.3977
24825SOL    HW186453   6.679   9.339   4.914  0.2288  0.0935 -0.6248
24825SOL    HW286454   6.748   9.330   4.779  0.5491  0.5579 -0.4960
24826SOL     OW86455   8.596   7.597   2.318 -0.3497 -0.3633 -0.0121
24826SOL    HW186456   8.609   7.512   2.360 -1.1496 -0.6633 -0.3409
24826SOL    HW286457   8.600   7.578   2.224  0.4720  0.1382 -0.0856
24827SOL     OW86458   2.337   7.571   1.304  0.0004 -0.2650  0.1823
24827SOL    HW186459   2.258   7.621   1.284 -0.2866 -0.5686  0.5343
24827SOL    HW286460   2.378   7.556   1.219  0.8774  1.8046  0.1840
24828SOL     OW86461  10.256   8.900   8.821 -0.5931 -0.3354 -0.2883
24828SOL    HW186462  10.261   8.921   8.728 -0.0345  1.1271  0.0412
24828SOL    HW286463  10.215   8.977   8.861  2.1056  0.5030  1.0794
24829SOL     OW86464   8.715   8.123  10.306  0.1082  0.1808 -0.2362
24829SOL    HW186465   8.709   8.074  10.224  0.9122  3.3470 -2.3267
24829SOL    HW286466   8.794   8.176  10.297 -0.2714  1.2982  2.2255
24830SOL     OW86467   5.753   8.939   4.543  0.4221 -0.4096 -0.4218
24830SOL    HW186468   5.740   8.940   4.448  2.2227  1.9676 -0.7369
24830SOL    HW286469   5.847   8.921   4.553  0.8252  2.0351  0.7364
24831SOL     OW86470   0.422   3.636   0.327  0.5428 -0.0161  0.5283
24831SOL    HW186471   0.496   3.668   0.379  1.5770 -0.2142 -0.7792
24831SOL    HW286472   0.439   3.543   0.315 -0.3460 -0.2323  0.8839
24832SOL     OW86473   5.446   5.533   2.314  0.5227  0.4761  0.3832
24832SOL    HW186474   5.414   5.489   2.393  0.1800 -2.2456 -1.1455
24832SOL    HW286475   5.368   5.548   2.261  0.8673  1.3554  0.0960
24833SOL     OW86476   6.902   7.166   9.498 -0.2024 -0.0427  0.2614
24833SOL    HW186477   6.859   7.216   9.567  0.2780 -0.6145  0.9932
24833SOL    HW286478   6.913   7.078   9.535  1.6808  0.1061  0.1397
24834SOL     OW86479   5.019   3.028   8.539  0.0612 -0.3401  0.0349
24834SOL    HW186480   5.088   3.067   8.592  0.8947 -1.2998 -0.3182
24834SOL    HW286481   5.008   3.090   8.466  0.7703 -0.3397 -0.0752
24835SOL     OW86482   8.081   9.937   2.976 -0.0443 -0.0908 -0.0525
24835SOL    HW186483   8.016   9.931   2.907 -0.1403 -2.7228  0.1820
24835SOL    HW286484   8.160   9.899   2.939 -0.2004 -1.8866  1.3306
24836SOL     OW86485   3.565   8.674   2.396 -0.0103 -0.1559  0.5970
24836SOL    HW186486   3.555   8.765   2.424 -2.8198  0.4530 -1.7853
24836SOL    HW286487   3.594   8.680   2.305 -1.8158 -1.4852 -0.1366
24837SOL     OW86488   9.401   7.721   6.867  0.1141 -0.0302  0.5939
24837SOL    HW186489   9.433   7.737   6.778 -2.5966  0.7992 -0.3013
24837SOL    HW286490   9.420   7.628   6.882  1.8480  0.1334 -0.2613
24838SOL     OW86491   5.495   7.365   9.060 -0.1361 -0.0169  0.0201
24838SOL    HW186492   5.578   7.326   9.033 -0.5981 -0.2246 -1.1527
24838SOL    HW286493   5.433   7.292   9.058  0.2279 -0.6853  4.1523
24839SOL     OW86494   6.095   2.246   3.083 -0.2763 -0.3842  0.1189
24839SOL    HW186495   6.100   2.316   3.018  1.1566  0.4851  1.1288
24839SOL    HW286496   6.002   2.242   3.107 -0.5387  0.4460 -0.7173
24840SOL     OW86497   5.768   8.565   2.948  0.2800 -0.7704  0.0280
24840SOL    HW186498   5.685   8.523   2.969 -0.4261  1.1303  1.2978
24840SOL    HW286499   5.835   8.501   2.975 -0.6373 -3.0131 -2.4638
24841SOL     OW86500   8.829   2.959   5.475  0.3402  0.5638 -0.2047
24841SOL    HW186501   8.819   2.865   5.464  1.6843  0.2181  1.1978
24841SOL    HW286502   8.908   2.969   5.528 -1.4704  2.2922  2.4523
24842SOL     OW86503   3.456   0.762   0.530 -0.0131 -1.1869  0.3067
24842SOL    HW186504   3.498   0.830   0.581 -2.7671  1.4378 -0.6412
24842SOL    HW286505   3.363   0.784   0.531 -0.6995 -3.2886 -2.4713
24843SOL     OW86506   6.908   8.854   7.132 -0.0804 -0.3009 -0.1239
24843SOL    HW186507   6.921   8.872   7.225  1.7657  0.7138 -0.5277
24843SOL    HW286508   6.880   8.763   7.128  0.8584 -0.6804  1.3796
24844SOL     OW86509   4.668   8.781   4.662  0.3457  0.2696  0.6086
24844SOL    HW186510   4.742   8.833   4.632 -0.3410  1.1005  0.3203
24844SOL    HW286511   4.685   8.693   4.628  0.8055  0.6279 -0.1002
24845SOL     OW86512   0.583   8.425   7.867 -0.0995  0.0602  0.2613
24845SOL    HW186513   0.495   8.419   7.830 -0.2083 -0.8709  0.6342
24845SOL    HW286514   0.641   8.426   7.791 -0.2450 -3.1255 -0.0450
24846SOL     OW86515   4.856   9.735   1.036  0.2872 -0.4586  0.1859
24846SOL    HW186516   4.764   9.732   1.010  0.8720 -1.2300 -1.9775
24846SOL    HW286517   4.887   9.645   1.026  1.5520 -0.0021 -0.1900
24847SOL     OW86518   3.219   9.577   7.732  0.9859 -0.0666  0.5025
24847SOL    HW186519   3.203   9.645   7.667  1.2551  0.4008  0.9177
24847SOL    HW286520   3.244   9.625   7.811  0.8741 -0.6345  0.8896
24848SOL     OW86521   9.545   6.563   7.913 -0.4170 -0.4455 -0.1862
24848SOL    HW186522   9.629   6.604   7.935  0.4025 -1.8702 -0.5659
24848SOL    HW286523   9.512   6.615   7.840 -0.2157  0.5460  0.4020
24849SOL     OW86524   9.911   7.039   6.631  0.2145  0.1944 -0.2409
24849SOL    HW186525   9.995   7.014   6.593  0.4866  0.9181 -0.1382
24849SOL    HW286526   9.929   7.047   6.725 -0.0881 -0.1065 -0.1540
24850SOL     OW86527   3.486   4.022   2.457 -0.0684 -0.1128  0.4842
24850SOL    HW186528   3.474   3.932   2.486 -0.6994 -0.8212 -1.7874
24850SOL    HW286529   3.400   4.050   2.426  0.5995  0.4239 -1.0063
24851SOL     OW86530   2.014   9.799   3.178 -0.1825  0.3895  0.4815
24851SOL    HW186531   2.093   9.751   3.152 -0.5052  0.8206 -1.4481
24851SOL    HW286532   1.951   9.730   3.202  0.0239 -0.0674 -0.2598
24852SOL     OW86533   3.288   6.671   2.818  0.5920  0.4300 -0.4688
24852SOL    HW186534   3.342   6.593   2.805 -0.2198 -0.5733  1.6765
24852SOL    HW286535   3.229   6.673   2.743  0.4539 -1.1877 -0.4278
24853SOL     OW86536   4.615   9.407   6.951  0.3816  0.6830  0.2327
24853SOL    HW186537   4.665   9.356   7.015  1.4910  2.7514  1.1309
24853SOL    HW286538   4.659   9.391   6.867 -0.3351 -1.0995  0.1652
24854SOL     OW86539   5.122   7.120   3.596  0.1918  0.2158 -0.1396
24854SOL    HW186540   5.125   7.201   3.646 -1.3773  0.4391 -0.3594
24854SOL    HW286541   5.029   7.102   3.585  0.5102 -1.6054 -0.1353
24855SOL     OW86542   7.611   9.004  10.225 -0.1720 -1.2225  0.6777
24855SOL    HW186543   7.640   8.913  10.215  1.8338 -0.4857 -1.0023
24855SOL    HW286544   7.687   9.050  10.260  0.0014  0.3578 -1.5531
24856SOL     OW86545   7.008   9.577   2.261  0.1382  0.1225  0.2619
24856SOL    HW186546   6.954   9.629   2.320 -1.0114 -0.1278 -0.5538
24856SOL    HW286547   7.093   9.621   2.261 -0.2766  0.9488  0.9707
24857SOL     OW86548   8.674   4.878   0.471  0.0034  0.1047  0.3760
24857SOL    HW186549   8.755   4.904   0.517  1.0618 -2.1143 -0.0952
24857SOL    HW286550   8.648   4.957   0.423  3.7254  0.1252 -2.0245
24858SOL     OW86551   6.005   5.214   8.464 -0.2230  0.2799 -0.0434
24858SOL    HW186552   5.951   5.293   8.471  1.7207  1.6131  0.6362
24858SOL    HW286553   5.999   5.189   8.371 -0.5391  1.4608 -0.3512
24859SOL     OW86554   6.278  10.210   4.858 -0.4501  0.2146  0.4070
24859SOL    HW186555   6.216  10.271   4.818 -0.7400 -0.1750  0.2566
24859SOL    HW286556   6.353  10.210   4.798  0.0857  1.3568  1.0395
24860SOL     OW86557   6.350   3.222   3.178  0.0264 -0.1830 -0.0166
24860SOL    HW186558   6.408   3.181   3.114  0.2361  1.7754 -1.1814
24860SOL    HW286559   6.355   3.316   3.158 -0.7736  0.3982  2.1802
24861SOL     OW86560   9.724   5.860   7.669 -0.2490  0.3454  0.1455
24861SOL    HW186561   9.671   5.935   7.640  0.0924  1.1756  1.5974
24861SOL    HW286562   9.814   5.884   7.648  0.0618  1.1740  2.2074
24862SOL     OW86563   1.863   0.613   3.674  0.1369 -0.3968 -0.1223
24862SOL    HW186564   1.959   0.609   3.675  0.1339 -0.6171 -0.5439
24862SOL    HW286565   1.841   0.639   3.584 -0.1802  0.2586  0.1343
24863SOL     OW86566   6.767   9.574   5.722 -0.1017  0.2778  0.7080
24863SOL    HW186567   6.828   9.648   5.730 -0.9099  0.8774  1.6376
24863SOL    HW286568   6.804   9.520   5.653  0.2785  1.7917 -0.3221
24864SOL     OW86569   0.957   1.378   8.715 -0.2151 -0.7953  0.6092
24864SOL    HW186570   1.014   1.300   8.714  1.2353  0.2317  0.2377
24864SOL    HW286571   0.915   1.376   8.801  1.5120 -0.8207  1.4949
24865SOL     OW86572   6.007   9.768   3.927  0.3523 -0.0305 -0.4769
24865SOL    HW186573   5.932   9.826   3.921 -1.2321 -1.9679 -0.3841
24865SOL    HW286574   6.080   9.825   3.952 -1.2799  1.7454  0.4678
24866SOL     OW86575   0.257   3.234  10.217 -0.1974  0.5012 -0.1533
24866SOL    HW186576   0.231   3.313  10.264 -1.4506  0.0028  0.0438
24866SOL    HW286577   0.182   3.215  10.160 -0.1516 -0.8519  0.2157
24867SOL     OW86578   0.596   6.415   7.822 -0.3147  0.6125 -0.2770
24867SOL    HW186579   0.656   6.464   7.878  0.8965 -0.7136 -0.3699
24867SOL    HW286580   0.553   6.353   7.881  1.8829 -1.6681 -0.8833
24868SOL     OW86581   4.912   8.097   4.969 -0.5859  0.1850  0.2055
24868SOL    HW186582   4.894   8.120   4.878  1.3334  1.2214  0.0338
24868SOL    HW286583   4.930   8.003   4.967  0.9028  0.4468 -0.8017
24869SOL     OW86584   7.072   9.922   0.598 -0.1092 -0.2309 -0.1770
24869SOL    HW186585   7.020   9.855   0.643 -0.1171  0.0675  0.2575
24869SOL    HW286586   7.134   9.871   0.545 -1.8236 -0.6057 -1.8885
24870SOL     OW86587   3.551   9.889  10.263 -0.0539 -0.2042 -0.2195
24870SOL    HW186588   3.602   9.809  10.252 -0.0279 -0.6878  2.5860
24870SOL    HW286589   3.465   9.869  10.226  0.3674 -1.0381 -0.7596
24871SOL     OW86590   2.040   9.861   2.446 -0.3692  0.8133  0.0716
24871SOL    HW186591   2.125   9.902   2.430  0.3968 -0.5652  0.4390
24871SOL    HW286592   2.015   9.822   2.362  0.0760 -0.0353  0.3250
24872SOL     OW86593   6.250   9.798   1.412  0.6277 -0.0571 -0.2463
24872SOL    HW186594   6.223   9.890   1.419  0.4236 -0.0612 -0.9399
24872SOL    HW286595   6.282   9.789   1.322 -1.4884 -1.2236 -0.9589
24873SOL     OW86596   8.692  10.142   5.310  0.0306  0.3944 -0.1718
24873SOL    HW186597   8.710  10.177   5.223  0.1419 -0.2682 -0.4184
24873SOL    HW286598   8.682  10.220   5.365  0.7849  0.8090 -0.6024
24874SOL     OW86599   9.777   3.704   7.734  0.1944  0.0236 -0.4161
24874SOL    HW186600   9.860   3.675   7.698 -1.5214 -1.5598 -3.4116
24874SOL    HW286601   9.802   3.757   7.811  3.7815 -3.6071  1.2923
24875SOL     OW86602   8.927   2.461   6.081 -0.2287  0.7950  0.2270
24875SOL    HW186603   8.972   2.380   6.057  0.7320  1.3362  0.1199
24875SOL    HW286604   8.863   2.435   6.148  0.6727  0.0819  0.8384
24876SOL     OW86605   6.560   1.144   9.476 -0.1080  0.4667 -0.2904
24876SOL    HW186606   6.596   1.056   9.472  1.6401  1.1194 -0.0507
24876SOL    HW286607   6.466   1.133   9.466  0.0684 -1.4256 -0.1189
24877SOL     OW86608   0.172   2.620   1.737  0.3778 -0.1253  0.3593
24877SOL    HW186609   0.170   2.655   1.648  0.3076  0.2444  0.5052
24877SOL    HW286610   0.198   2.528   1.727 -0.9377 -0.4614 -0.1734
24878SOL     OW86611   2.677   1.093   9.927 -0.4212 -0.0308  0.0012
24878SOL    HW186612   2.613   1.116   9.995  1.1125 -0.0842  1.5313
24878SOL    HW286613   2.659   1.001   9.907  0.2217 -0.5801  1.7021
24879SOL     OW86614   3.733   9.510   1.329 -0.2003 -0.1182 -0.1473
24879SOL    HW186615   3.819   9.473   1.347 -0.8253 -0.9670  1.2496
24879SOL    HW286616   3.708   9.472   1.244  1.0164  0.5921 -0.8481
24880SOL     OW86617   0.867   7.291   9.575  0.0568 -0.6553 -0.0902
24880SOL    HW186618   0.819   7.370   9.550  0.2266 -1.1994 -2.3932
24880SOL    HW286619   0.807   7.219   9.554  0.2364 -1.1829  1.1510
24881SOL     OW86620   3.988   3.121   5.113 -0.2138 -0.2160  0.2443
24881SOL    HW186621   3.966   3.154   5.200 -0.1058 -2.6578  1.2768
24881SOL    HW286622   3.935   3.042   5.103  0.0966 -0.2245 -1.7399
24882SOL     OW86623   8.350   6.611   1.278 -0.3760  0.1540  0.3075
24882SOL    HW186624   8.426   6.646   1.325  1.2196  0.1583 -2.0790
24882SOL    HW286625   8.339   6.522   1.310  0.7774  0.0991  0.5636
24883SOL     OW86626   9.686   3.855   3.963  0.3125  0.4739 -0.3725
24883SOL    HW186627   9.749   3.785   3.947 -1.3271 -0.5220 -3.0590
24883SOL    HW286628   9.701   3.880   4.055  1.9865 -2.3202  0.2360
24884SOL     OW86629   2.606   0.495   2.333  0.5190 -0.3924  0.4189
24884SOL    HW186630   2.585   0.500   2.240 -0.2615 -1.6063  0.5116
24884SOL    HW286631   2.640   0.406   2.345  3.5740  0.7191  0.7322
24885SOL     OW86632   6.017   7.109   1.598 -0.2112 -0.7129 -0.4421
24885SOL    HW186633   5.978   7.041   1.654 -0.6944  0.0974  0.2381
24885SOL    HW286634   5.945   7.171   1.583  0.5917  0.4134  0.1916
24886SOL     OW86635   9.382   7.111   8.862 -0.4308 -0.2748 -0.1856
24886SOL    HW186636   9.367   7.073   8.949  2.2605  1.5415  1.2489
24886SOL    HW286637   9.304   7.165   8.846 -0.9219 -0.5308  1.1844
24887SOL     OW86638   8.202   2.178   9.335  0.3645  0.0535  0.1194
24887SOL    HW186639   8.223   2.084   9.339  1.0468  0.2475  1.9978
24887SOL    HW286640   8.258   2.217   9.401  0.0157  1.8021 -0.5786
24888SOL     OW86641   1.777   2.199   2.246  0.0038 -0.2867 -0.0277
24888SOL    HW186642   1.757   2.112   2.214 -0.6776  0.0195 -0.4529
24888SOL    HW286643   1.696   2.249   2.235 -0.0439  0.0232  1.5256
24889SOL     OW86644  10.143   9.933   4.800 -0.0610 -0.2041  0.0255
24889SOL    HW186645  10.218   9.965   4.749  0.5770 -1.3489  0.2233
24889SOL    HW286646  10.083   9.898   4.734 -0.3420  0.5111 -0.1144
24890SOL     OW86647   6.171   7.951   6.069 -0.1113  0.2093 -0.3105
24890SOL    HW186648   6.192   7.911   6.154 -0.1566  0.5456 -0.1371
24890SOL    HW286649   6.114   8.025   6.091 -0.5350 -0.0045 -0.6803
24891SOL     OW86650   8.516   7.238   3.994  0.2746 -0.3178  0.3862
24891SOL    HW186651   8.448   7.282   4.045  1.0760  0.6538  0.6460
24891SOL    HW286652   8.563   7.185   4.058  0.0424 -0.6417  0.2891
24892SOL     OW86653   4.770   7.542   9.440 -0.1672  0.8895 -0.0966
24892SOL    HW186654   4.832   7.606   9.405 -0.7647  1.3600 -0.3082
24892SOL    HW286655   4.749   7.574   9.528  2.3970 -1.0147  1.3719
24893SOL     OW86656   5.740   7.184   5.742 -0.1868 -0.7511 -0.9960
24893SOL    HW186657   5.814   7.196   5.801 -0.5340 -0.5753 -0.5922
24893SOL    HW286658   5.752   7.250   5.674 -0.9591  0.5192  0.0727
24894SOL     OW86659   5.435   7.776   1.676 -0.2020  0.3358 -0.1978
24894SOL    HW186660   5.513   7.810   1.632 -0.9933  1.2262 -0.9409
24894SOL    HW286661   5.429   7.827   1.757  1.7818 -1.9263  1.5294
24895SOL     OW86662   2.256   7.694   5.001 -0.0886  0.1753 -0.0102
24895SOL    HW186663   2.329   7.738   4.959  0.1648  0.3798  0.6457
24895SOL    HW286664   2.200   7.667   4.928  0.7815 -0.2552 -0.5430
24896SOL     OW86665   3.740   1.851   4.927 -0.4073  0.1386 -0.4275
24896SOL    HW186666   3.823   1.816   4.957 -0.6617  1.3405  1.9276
24896SOL    HW286667   3.674   1.794   4.967 -0.8017  2.6543  2.9350
24897SOL     OW86668   9.632   8.879   9.628 -0.2704 -0.9795  0.8772
24897SOL    HW186669   9.633   8.802   9.685  0.2810 -1.7261 -0.1162
24897SOL    HW286670   9.693   8.858   9.558 -0.0655  0.3966  0.6113
24898SOL     OW86671   7.790   8.406   1.204 -0.2679 -0.0250 -0.0970
24898SOL    HW186672   7.828   8.338   1.259 -0.2098 -0.5393 -0.7666
24898SOL    HW286673   7.865   8.447   1.160 -0.2426  0.8949  0.7659
24899SOL     OW86674   5.837  10.366  10.327  0.0383  0.1964  0.1924
24899SOL    HW186675   5.782  10.314  10.269 -0.0401  0.6805 -0.1720
24899SOL    HW286676   5.896  10.302  10.368  0.0956 -0.1504 -0.4218
24900SOL     OW86677   0.001   2.764   9.648 -0.0830  0.5956 -0.0991
24900SOL    HW186678  -0.008   2.826   9.721 -0.6002 -0.6798  0.9742
24900SOL    HW286679  -0.068   2.790   9.586 -1.7290 -0.1626  1.3201
24901SOL     OW86680   4.358   7.698   1.357 -0.0136  0.2004 -0.1038
24901SOL    HW186681   4.399   7.773   1.315  0.2514 -0.9931 -2.0721
24901SOL    HW286682   4.405   7.689   1.440 -1.5249  3.5062  1.3210
24902SOL     OW86683   2.060   3.746   8.439 -0.4618 -0.4147 -0.5433
24902SOL    HW186684   2.037   3.812   8.505 -1.6641 -1.0614 -0.2815
24902SOL    HW286685   2.108   3.679   8.489  1.8536  0.7833 -1.0300
24903SOL     OW86686   5.394   9.006   1.028  0.1369  0.2122 -0.0853
24903SOL    HW186687   5.315   9.061   1.025  0.8363  1.2344 -0.3964
24903SOL    HW286688   5.386   8.957   1.110 -0.8995  0.1693 -0.1964
24904SOL     OW86689   6.702   8.892   6.973 -0.0331 -0.2573  0.0574
24904SOL    HW186690   6.775   8.888   7.035  1.7912 -2.1705 -2.0048
24904SOL    HW286691   6.647   8.817   6.997  0.1840 -0.4585 -0.0669
24905SOL     OW86692   3.944   7.018   6.101  0.3661  0.0508  0.0689
24905SOL    HW186693   3.853   6.987   6.105  0.7645 -1.1764 -0.1613
24905SOL    HW286694   3.995   6.941   6.076  1.6176  0.4602  1.2401
24906SOL     OW86695   0.673  10.117   9.730  0.3863  0.1944 -0.2778
24906SOL    HW186696   0.748  10.164   9.767  2.1116 -0.1772 -3.0230
24906SOL    HW286697   0.608  10.184   9.711  0.4055  0.6574  1.1992
24907SOL     OW86698   0.464   0.461   3.252  0.0832 -0.2401 -0.7074
24907SOL    HW186699   0.479   0.555   3.258  2.3619 -0.5201 -0.8626
24907SOL    HW286700   0.404   0.451   3.178 -0.8239  1.1228 -0.1854
24908SOL     OW86701   3.350   1.204   8.499  0.5429  0.2357  0.1819
24908SOL    HW186702   3.262   1.172   8.520 -0.4604  0.4246 -3.1794
24908SOL    HW286703   3.380   1.147   8.428  2.2162  1.5492 -0.2321
24909SOL     OW86704   5.331   1.146   8.593  0.6974 -0.0814  0.8558
24909SOL    HW186705   5.281   1.083   8.541  0.9329  0.5909 -0.2300
24909SOL    HW286706   5.368   1.206   8.528  1.9461  0.1234  1.7252
24910SOL     OW86707   6.850   8.870   9.580  0.0411 -0.4785  0.0139
24910SOL    HW186708   6.803   8.793   9.548 -1.2718  0.3819 -0.1808
24910SOL    HW286709   6.881   8.844   9.667 -2.4761 -0.4401  0.9890
24911SOL     OW86710   0.704   8.772   7.713  0.1096  0.4421 -0.5582
24911SOL    HW186711   0.731   8.816   7.632 -2.0644  0.2142 -1.4960
24911SOL    HW286712   0.617   8.736   7.692  0.1403 -0.9247  1.4205
24912SOL     OW86713   9.186   8.076   7.670  0.1674 -0.1154 -0.0522
24912SOL    HW186714   9.126   8.065   7.744  0.7082 -1.7687  0.1829
24912SOL    HW286715   9.252   8.138   7.701 -0.1742 -0.0108  0.4774
24913SOL     OW86716   8.524   1.781   1.391 -0.4127  0.0108 -0.3439
24913SOL    HW186717   8.597   1.829   1.351  0.6357 -0.9546  0.3405
24913SOL    HW286718   8.505   1.711   1.329 -1.3048  0.7262 -0.8939
24914SOL     OW86719   8.972   5.813   5.797 -0.1378 -0.1864 -0.1294
24914SOL    HW186720   9.061   5.786   5.775 -0.3280 -0.6934 -0.2970
24914SOL    HW286721   8.981   5.860   5.880  0.1349 -1.2921  0.4847
24915SOL     OW86722   7.564   3.328   6.944  0.6099  0.4934  0.0268
24915SOL    HW186723   7.558   3.413   6.901  0.4219  1.0089  1.0426
24915SOL    HW286724   7.529   3.343   7.032  0.1381 -0.7440  0.0677
24916SOL     OW86725   3.544   3.386   4.271 -0.4577  0.4479  0.6233
24916SOL    HW186726   3.522   3.469   4.314 -1.6597  0.0995  0.7105
24916SOL    HW286727   3.462   3.360   4.228  0.1081 -0.3441  0.0214
24917SOL     OW86728   8.671   9.248   5.125 -0.1043  0.3041 -0.7627
24917SOL    HW186729   8.583   9.251   5.162 -1.0563  1.1080 -2.9149
24917SOL    HW286730   8.666   9.179   5.059  1.5884 -1.2239  0.6121
24918SOL     OW86731   9.408   0.470   4.033 -0.0300  0.0651  0.0349
24918SOL    HW186732   9.425   0.551   4.081  0.3823  0.3362 -0.5602
24918SOL    HW286733   9.491   0.450   3.989 -1.1805  1.4056 -2.9400
24919SOL     OW86734   0.569   8.706   8.800 -0.1342 -0.4188 -0.6329
24919SOL    HW186735   0.531   8.673   8.881 -0.4514 -0.7156 -0.9004
24919SOL    HW286736   0.501   8.692   8.734  0.7138 -1.6529 -1.2715
24920SOL     OW86737   9.631   9.326   0.203  0.2911  0.1237  0.0302
24920SOL    HW186738   9.540   9.320   0.174 -0.3271 -1.8295  2.1554
24920SOL    HW286739   9.680   9.270   0.143 -0.1527 -0.0647 -0.1547
24921SOL     OW86740   6.453   0.623   3.619  0.1080  0.1065 -0.0312
24921SOL    HW186741   6.495   0.537   3.616 -1.6060 -0.7759 -0.1454
24921SOL    HW286742   6.520   0.684   3.590  0.3997 -1.6110 -3.4881
24922SOL     OW86743   5.856   4.128   6.058  0.2364  0.0429 -0.1030
24922SOL    HW186744   5.847   4.098   5.968  1.0304  1.4714 -0.6948
24922SOL    HW286745   5.767   4.125   6.094 -0.3280  0.7830 -1.3794
24923SOL     OW86746   7.373   5.416   5.157 -0.0421  0.0238 -0.0742
24923SOL    HW186747   7.442   5.360   5.122 -0.0201  0.0297 -0.0406
24923SOL    HW286748   7.387   5.415   5.252 -0.3501 -0.3236 -0.0267
24924SOL     OW86749   9.036   4.324   5.221  0.1112  0.2326 -0.0467
24924SOL    HW186750   9.023   4.236   5.256 -0.6081  0.8570  1.3603
24924SOL    HW286751   9.119   4.353   5.260 -0.1257  0.5162  0.2525
24925SOL     OW86752   4.753   8.535   4.544 -0.0374 -0.5351 -0.3701
24925SOL    HW186753   4.748   8.453   4.593  2.6034 -1.1733 -1.0380
24925SOL    HW286754   4.816   8.518   4.475  0.1703  1.9225 -0.8676
24926SOL     OW86755   6.980   8.208   0.129  1.2081  0.5814  0.2601
24926SOL    HW186756   7.061   8.163   0.155  1.7495  0.4652 -1.4840
24926SOL    HW286757   6.990   8.222   0.035 -1.6120 -1.1810 -0.4313
24927SOL     OW86758   0.144   7.194   5.049  0.1032  0.7534  0.2635
24927SOL    HW186759   0.168   7.105   5.075 -0.5734  0.6953  0.7344
24927SOL    HW286760   0.071   7.217   5.108 -1.6253  0.5652 -1.6769
24928SOL     OW86761   8.298   9.256   1.438  0.2292  0.5133 -0.3131
24928SOL    HW186762   8.314   9.203   1.517 -0.8632  1.0031  0.2436
24928SOL    HW286763   8.371   9.234   1.381  0.9482  0.0030  0.7572
24929SOL     OW86764   3.018   6.925   8.710 -0.3990  0.3935 -0.1012
24929SOL    HW186765   2.954   6.874   8.662 -0.8592  0.4627  0.4299
24929SOL    HW286766   2.978   7.012   8.718  0.8273  1.1957 -1.9531
24930SOL     OW86767   4.467   7.685   4.305 -0.0151 -0.1122  0.9625
24930SOL    HW186768   4.558   7.681   4.334 -0.3784 -0.4040  2.1070
24930SOL    HW286769   4.438   7.594   4.303 -0.2233 -0.0406  0.3609
24931SOL     OW86770   0.075   6.664   2.158 -0.6102  0.0645  0.2652
24931SOL    HW186771   0.053   6.573   2.137 -0.6477  0.2892 -0.7022
24931SOL    HW286772   0.089   6.663   2.253 -0.7166 -0.9261  0.2892
24932SOL     OW86773   9.326   4.879   8.084  0.5585  0.0841  0.3979
24932SOL    HW186774   9.301   4.806   8.028  1.4371 -0.4176  0.6345
24932SOL    HW286775   9.315   4.957   8.029 -0.1803 -0.2346  0.0764
24933SOL     OW86776   7.486   7.851   0.776 -0.2703  0.1648  0.2000
24933SOL    HW186777   7.479   7.793   0.852 -0.4073 -0.9418 -0.6137
24933SOL    HW286778   7.578   7.878   0.775 -0.1278 -0.2872  0.4442
24934SOL     OW86779   6.373   1.778   8.847 -0.4030 -0.9017  0.0987
24934SOL    HW186780   6.304   1.759   8.910 -0.4522 -1.1814 -0.0353
24934SOL    HW286781   6.424   1.848   8.887  0.4624 -2.0753  1.1365
24935SOL     OW86782   4.074   2.500   1.895  0.5125 -0.5011  0.3454
24935SOL    HW186783   4.000   2.467   1.945  1.6560 -2.1889  1.0499
24935SOL    HW286784   4.083   2.591   1.922 -1.9909  0.1181 -0.6721
24936SOL     OW86785   2.085   7.985   7.145  0.5723  0.7678 -0.0354
24936SOL    HW186786   2.161   8.017   7.097  0.9911  0.2715  0.2902
24936SOL    HW286787   2.116   7.906   7.189  0.1192  1.0738  0.8427
24937SOL     OW86788   5.829   1.550   4.855 -0.1199 -0.4413 -0.1937
24937SOL    HW186789   5.756   1.574   4.913 -0.0151 -0.9539  0.1568
24937SOL    HW286790   5.845   1.458   4.873  0.3714 -0.4307 -0.5463
24938SOL     OW86791   4.084  10.270   8.983  0.2613 -0.5424 -0.1970
24938SOL    HW186792   4.158  10.310   8.938  0.3124 -0.5692 -0.1375
24938SOL    HW286793   4.099  10.287   9.076  0.8812 -1.6726 -0.0676
24939SOL     OW86794   2.468   0.921   2.580  0.1286 -0.0085  0.5075
24939SOL    HW186795   2.478   0.967   2.496 -0.5370 -0.4267  0.1925
24939SOL    HW286796   2.471   0.828   2.558 -0.5385 -0.1286  0.8770
24940SOL     OW86797   8.002   1.544   0.424  0.1784 -0.0706  0.0805
24940SOL    HW186798   8.048   1.605   0.367  0.7556  0.1044  0.7206
24940SOL    HW286799   8.067   1.518   0.490 -0.5841  0.0608  0.9046
24941SOL     OW86800   5.255   2.881   6.978  0.8059  0.3068  0.3976
24941SOL    HW186801   5.216   2.968   6.965  2.0278  1.2232  2.3898
24941SOL    HW286802   5.214   2.848   7.058  1.9594  0.0314  0.8880
24942SOL     OW86803   3.465   4.223   6.590 -0.2270  0.1099  1.0720
24942SOL    HW186804   3.403   4.159   6.554 -0.1348 -0.5894  2.0986
24942SOL    HW286805   3.441   4.306   6.549 -0.8188 -0.4514  0.2555
24943SOL     OW86806   5.093   8.949   6.156 -0.0364  0.0514  0.3139
24943SOL    HW186807   5.100   8.943   6.061  2.0282 -0.9185  0.4746
24943SOL    HW286808   5.114   9.040   6.176 -0.9072  0.3685 -0.1690
24944SOL     OW86809   4.746   7.698   9.706 -0.1528 -0.4470  0.3572
24944SOL    HW186810   4.816   7.751   9.743 -1.3315  0.9123  0.7306
24944SOL    HW286811   4.709   7.752   9.636 -0.4783 -1.3711 -0.2084
24945SOL     OW86812   5.141   2.347   3.261 -0.2197  0.0782  0.2743
24945SOL    HW186813   5.168   2.369   3.172  1.8105 -0.3150  0.7632
24945SOL    HW286814   5.219   2.356   3.314 -1.6331  1.3928  2.2684
24946SOL     OW86815   6.889   6.889   8.696  0.1664 -0.4309 -0.2953
24946SOL    HW186816   6.896   6.852   8.784 -1.2472  0.4156  0.2134
24946SOL    HW286817   6.978   6.887   8.662  0.9175  0.1216  1.5292
24947SOL     OW86818   0.582   0.433   5.768  0.1806 -0.1368 -0.0951
24947SOL    HW186819   0.597   0.484   5.689 -0.6919 -0.6858 -0.6288
24947SOL    HW286820   0.669   0.403   5.794  0.8937  2.5738  0.9192
24948SOL     OW86821   6.595   6.216   9.994 -0.2146 -0.5346 -0.0726
24948SOL    HW186822   6.589   6.296  10.046 -0.0088 -1.1930  0.9950
24948SOL    HW286823   6.535   6.155  10.036 -0.6684 -0.8379 -1.1118
24949SOL     OW86824   4.854  10.194   7.365 -0.0448  0.7774  0.2347
24949SOL    HW186825   4.810  10.162   7.287 -2.2589  2.6683  0.6168
24949SOL    HW286826   4.899  10.116   7.400 -2.2158 -1.0439 -0.7776
24950SOL     OW86827   8.025   8.484   8.861 -0.0082  0.1083  0.5413
24950SOL    HW186828   8.003   8.464   8.770  0.7862  2.0576 -0.1299
24950SOL    HW286829   8.093   8.419   8.884 -1.1495 -1.2472  0.2279
24951SOL     OW86830   9.988   5.343   6.128  0.3079  0.3148 -0.1780
24951SOL    HW186831   9.903   5.382   6.146 -0.2209 -0.6608 -0.4545
24951SOL    HW286832   9.985   5.257   6.170  1.0446  0.1425 -0.4486
24952SOL     OW86833   3.342   6.811   0.401 -0.4930  0.4698 -0.1783
24952SOL    HW186834   3.358   6.748   0.331 -1.7438  1.4689 -1.4180
24952SOL    HW286835   3.271   6.773   0.452 -1.5226  1.0223 -1.1652
24953SOL     OW86836   3.015   6.926   5.750  0.1214  0.0166  0.4790
24953SOL    HW186837   3.028   6.996   5.813 -0.1274 -0.7918  1.4460
24953SOL    HW286838   2.924   6.897   5.764  0.6082 -1.3469  1.0048
24954SOL     OW86839   8.919   0.901   5.440  0.6752  0.2590 -0.3957
24954SOL    HW186840   8.839   0.901   5.492  0.5417 -1.0550 -0.5594
24954SOL    HW286841   8.978   0.840   5.485  0.6505 -0.7101 -1.6055
24955SOL     OW86842   7.263   1.742  10.050  0.5146 -0.2189  0.4595
24955SOL    HW186843   7.261   1.700  10.137  1.2622  0.8029  0.9975
24955SOL    HW286844   7.208   1.819  10.060  0.7581  0.0036  0.0771
24956SOL     OW86845   1.226   6.400   8.471 -0.1632  0.1630  0.3496
24956SOL    HW186846   1.206   6.329   8.532  1.5496 -0.0429  0.7149
24956SOL    HW286847   1.209   6.362   8.385  0.4314 -0.6075  0.5561
24957SOL     OW86848   3.380   9.287   8.620  0.3446  0.8089  0.6958
24957SOL    HW186849   3.402   9.203   8.580  1.9608  0.5241  2.0651
24957SOL    HW286850   3.337   9.264   8.702  0.0289  1.3538  0.6893
24958SOL     OW86851   2.842   5.817   5.051  0.6165 -0.7394 -0.0817
24958SOL    HW186852   2.923   5.864   5.072  0.3243 -0.0019 -0.5542
24958SOL    HW286853   2.865   5.725   5.060  1.8101 -0.5897 -1.2570
24959SOL     OW86854   5.601   7.938   9.388 -0.1804 -0.1360 -0.6954
24959SOL    HW186855   5.518   7.951   9.433 -0.0234 -0.6575 -0.2561
24959SOL    HW286856   5.577   7.908   9.301 -0.4596  0.1326 -0.7129
24960SOL     OW86857   8.605   5.137   0.364  0.2217 -0.4864 -0.1196
24960SOL    HW186858   8.520   5.180   0.370  0.4757 -0.1564  1.3817
24960SOL    HW286859   8.661   5.184   0.426  1.3715 -1.0221 -0.7089
24961SOL     OW86860   9.150  10.006   2.864 -0.0547  0.2852  0.0760
24961SOL    HW186861   9.228  10.055   2.839  0.9331  0.2094  2.6891
24961SOL    HW286862   9.144  10.016   2.959 -1.9538 -1.5675  0.2428
24962SOL     OW86863   1.191   4.823   7.630  0.4254 -0.1725  0.0282
24962SOL    HW186864   1.228   4.820   7.542 -0.1673  2.7460 -0.4250
24962SOL    HW286865   1.097   4.833   7.615  0.0321 -1.8872  1.0848
24963SOL     OW86866   7.182   5.045   7.148  0.0291 -0.0911  0.0810
24963SOL    HW186867   7.137   5.127   7.167 -1.2818 -0.8746  0.4329
24963SOL    HW286868   7.245   5.036   7.219 -2.5536 -1.3206  2.3954
24964SOL     OW86869   6.558   6.243   8.951  0.1933 -0.0785  0.5071
24964SOL    HW186870   6.478   6.295   8.943 -1.1172 -1.9915  0.6030
24964SOL    HW286871   6.612   6.271   8.877  0.1620  2.3720  1.3279
24965SOL     OW86872   3.645  10.096   3.237  0.1681 -0.2089  0.1461
24965SOL    HW186873   3.594  10.056   3.167 -2.1899 -0.3841  1.8054
24965SOL    HW286874   3.579  10.140   3.291  2.0352  1.0666  1.5029
24966SOL     OW86875   9.194   2.353  10.209 -0.1839 -0.3371  0.1825
24966SOL    HW186876   9.265   2.380  10.266  0.9026 -0.2085 -1.1825
24966SOL    HW286877   9.173   2.432  10.158 -1.7674 -0.1838  0.9929
24967SOL     OW86878   2.969   0.214   5.492 -0.4875  0.2575 -0.2990
24967SOL    HW186879   2.922   0.131   5.487  0.5175 -0.3567  0.0639
24967SOL    HW286880   2.902   0.278   5.516 -1.4097 -0.3086 -1.2813
24968SOL     OW86881   0.063   6.737   6.329 -0.2615 -0.1359 -0.4597
24968SOL    HW186882   0.153   6.725   6.299  0.6977  2.4754  1.0088
24968SOL    HW286883   0.050   6.666   6.393  0.1606 -1.4309 -1.7473
24969SOL     OW86884   2.042   1.204   7.530  0.5677 -0.5862  0.1387
24969SOL    HW186885   2.059   1.205   7.436  1.5927 -4.0208  0.1392
24969SOL    HW286886   1.947   1.198   7.538  0.5399 -1.4906 -0.7541
24970SOL     OW86887   6.310   9.837   9.532 -0.0571 -0.3577  0.6375
24970SOL    HW186888   6.257   9.874   9.461  1.5609  1.2619  0.1986
24970SOL    HW286889   6.340   9.752   9.497  1.9495  1.0466 -1.3669
24971SOL     OW86890   7.061   1.785   5.825 -0.2628 -0.1486 -0.2110
24971SOL    HW186891   6.973   1.804   5.795 -0.6656  0.2213  1.1334
24971SOL    HW286892   7.050   1.713   5.887  0.5896 -1.1878 -1.2391
24972SOL     OW86893   2.099   8.001   4.921 -0.4459 -0.1436  0.6419
24972SOL    HW186894   2.110   7.906   4.916  0.3774 -0.0026 -1.1762
24972SOL    HW286895   2.004   8.015   4.920 -0.5606 -0.9255  0.0917
24973SOL     OW86896   2.207   6.981   5.176 -0.2521  0.0969  0.4287
24973SOL    HW186897   2.290   6.933   5.168  0.5342  1.0424  2.2370
24973SOL    HW286898   2.228   7.070   5.148 -0.8331  0.1831  0.2616
24974SOL     OW86899   5.557   4.532   4.549  0.3358 -0.1961 -0.0856
24974SOL    HW186900   5.492   4.503   4.614 -1.1445  2.2385 -0.3630
24974SOL    HW286901   5.515   4.514   4.465  0.8405 -0.2991 -0.3141
24975SOL     OW86902   2.724   6.681   3.289 -0.5127 -0.5869  0.1254
24975SOL    HW186903   2.767   6.751   3.339 -0.8337 -1.0924  1.1339
24975SOL    HW286904   2.665   6.728   3.230 -0.5378  0.0193  0.6166
24976SOL     OW86905   0.405   7.675   0.699  0.5956 -0.3320 -0.7599
24976SOL    HW186906   0.347   7.657   0.774  0.4545  0.2068 -0.7326
24976SOL    HW286907   0.409   7.770   0.696 -1.9064 -0.1796 -3.3389
24977SOL     OW86908   5.029   8.370   0.806  0.2546 -0.2559  0.0190
24977SOL    HW186909   4.975   8.307   0.757  2.1413 -0.2504 -2.2546
24977SOL    HW286910   4.991   8.371   0.894 -2.3767 -1.4549 -0.9981
24978SOL     OW86911  10.279  10.022   8.814  0.4566  0.1865  0.0204
24978SOL    HW186912  10.251   9.979   8.734  0.6616  0.6777 -0.3165
24978SOL    HW286913  10.347   9.964   8.850  0.3996 -0.0066 -0.1832
24979SOL     OW86914   8.761   3.737   8.174  0.4080 -0.0588  0.3565
24979SOL    HW186915   8.835   3.692   8.133  0.1694 -1.3796  1.3171
24979SOL    HW286916   8.684   3.689   8.144 -0.0127  0.7392  0.1060
24980SOL     OW86917   5.035   9.549   5.109  0.0986 -0.4729  0.4337
24980SOL    HW186918   5.080   9.483   5.057  1.3651  0.3786  0.4259
24980SOL    HW286919   4.954   9.567   5.060  0.3781 -1.0285 -0.2488
24981SOL     OW86920   0.022   4.422   5.725  0.5706 -0.2001 -0.1428
24981SOL    HW186921   0.023   4.508   5.767 -2.6147 -0.1869  0.1127
24981SOL    HW286922   0.102   4.380   5.756  1.3574  2.0142  1.0950
24982SOL     OW86923   7.390   7.491   9.771 -0.0565 -0.0131 -0.5252
24982SOL    HW186924   7.464   7.490   9.711  0.0516 -1.2845 -0.3989
24982SOL    HW286925   7.412   7.560   9.835  1.1178 -0.5022 -0.3764
24983SOL     OW86926   3.281   4.014   0.787 -0.7465  0.1795 -0.1087
24983SOL    HW186927   3.285   3.921   0.761  0.4948  0.6244 -1.6258
24983SOL    HW286928   3.360   4.028   0.838 -1.6600  0.0909  1.4106
24984SOL     OW86929   4.401   7.947   3.623  0.3101 -0.0981 -0.6291
24984SOL    HW186930   4.454   8.021   3.653 -0.2296  0.1470 -0.2676
24984SOL    HW286931   4.464   7.876   3.610  0.6252 -0.0871  0.6834
24985SOL     OW86932   7.618   6.707   0.658 -0.2984 -0.1890  0.1897
24985SOL    HW186933   7.524   6.691   0.671 -0.1759  0.3104  1.8456
24985SOL    HW286934   7.642   6.769   0.727  1.2837 -0.3781 -0.1503
24986SOL     OW86935  10.312   5.132   6.727 -0.0529 -0.1004 -0.0390
24986SOL    HW186936  10.229   5.121   6.682 -0.3155  1.7674 -0.0616
24986SOL    HW286937  10.327   5.226   6.729  0.7792 -0.2160  2.2770
24987SOL     OW86938   5.493   3.543   1.250 -0.1744 -0.2011 -0.2079
24987SOL    HW186939   5.560   3.603   1.219  0.9017  0.8049  3.4957
24987SOL    HW286940   5.410   3.587   1.230  0.4503  0.7818 -0.7239
24988SOL     OW86941   6.011   8.465   5.815  0.8256  0.3924 -0.2756
24988SOL    HW186942   5.952   8.476   5.740  0.5482  1.1882  0.0434
24988SOL    HW286943   5.997   8.375   5.844  1.2783 -0.0794 -1.4585
24989SOL     OW86944   1.899   0.979   8.262 -0.1044 -0.0178 -0.7618
24989SOL    HW186945   1.877   1.000   8.171 -2.2696 -1.4294 -0.6269
24989SOL    HW286946   1.853   0.897   8.279  1.1873 -0.3751  1.2851
24990SOL     OW86947   4.117   8.359  10.109  0.0397  0.5272  0.4343
24990SOL    HW186948   4.064   8.317  10.177 -0.4424  0.6250  0.1251
24990SOL    HW286949   4.207   8.349  10.140 -0.1437  0.2147  0.8903
24991SOL     OW86950   4.483   0.254   8.262 -0.1103 -0.1671  0.5558
24991SOL    HW186951   4.523   0.254   8.175  0.6346  2.6782  0.7926
24991SOL    HW286952   4.465   0.162   8.281 -0.2941 -0.8807 -2.5811
24992SOL     OW86953   9.908   8.351   2.752  0.1202 -0.2610  0.3483
24992SOL    HW186954   9.980   8.382   2.699  0.3330  3.0897  2.3162
24992SOL    HW286955   9.847   8.425   2.756 -0.8163 -1.0543  3.0776
24993SOL     OW86956   9.286   6.954   9.063 -0.8284 -0.8695  0.2269
24993SOL    HW186957   9.209   6.995   9.101 -0.5079  0.0721 -0.1047
24993SOL    HW286958   9.338   6.925   9.138 -0.7675 -0.0970  0.4882
24994SOL     OW86959   5.554   3.295   8.187 -0.5281  0.4259 -0.0068
24994SOL    HW186960   5.612   3.352   8.136  1.0887 -0.7552  0.4587
24994SOL    HW286961   5.597   3.286   8.272 -1.8853  0.2659  0.6995
24995SOL     OW86962   2.528   0.152   4.809  0.1543 -0.4402  0.2939
24995SOL    HW186963   2.490   0.112   4.730  0.1331 -0.8984  0.5328
24995SOL    HW286964   2.610   0.191   4.779 -0.2796  0.1606 -0.1359
24996SOL     OW86965  10.332   6.557   5.203 -0.2852  0.9373  0.6553
24996SOL    HW186966  10.384   6.477   5.199 -0.6178  0.7107  0.8587
24996SOL    HW286967  10.272   6.551   5.130  1.7147  2.4357 -1.2635
24997SOL     OW86968   2.224   7.676   5.495  0.0011 -0.3626 -0.3179
24997SOL    HW186969   2.130   7.667   5.478 -0.5676  2.0938  1.0224
24997SOL    HW286970   2.236   7.769   5.513  2.7668 -0.5599 -0.6711
24998SOL     OW86971   6.507   6.780   4.666 -0.5307 -0.0014 -0.3285
24998SOL    HW186972   6.534   6.700   4.710 -0.3542  0.1006 -0.2493
24998SOL    HW286973   6.475   6.836   4.737  1.8951  1.0683  0.0404
24999SOL     OW86974   4.092   8.432   8.670  0.2024  0.1335 -0.0768
24999SOL    HW186975   4.151   8.364   8.703  1.5704  0.6341 -1.3604
24999SOL    HW286976   4.128   8.456   8.584 -1.4494  1.0137 -0.5742
25000SOL     OW86977   0.237   0.804   7.044 -0.0769 -0.2624 -0.0752
25000SOL    HW186978   0.225   0.893   7.080 -0.4121 -0.7092  0.9794
25000SOL    HW286979   0.331   0.797   7.030 -0.1245  0.5212 -0.8904
25001SOL     OW86980   4.659   5.586   2.377 -0.3852 -0.0616 -0.0232
25001SOL    HW186981   4.732   5.529   2.351 -1.2557 -0.2020 -2.4438
25001SOL    HW286982   4.603   5.530   2.431 -0.2578 -0.9118 -0.7512
25002SOL     OW86983   5.814   8.756   7.290 -0.0785 -0.6037 -0.1369
25002SOL    HW186984   5.753   8.693   7.251 -0.4231  0.6703 -1.7472
25002SOL    HW286985   5.900   8.729   7.258 -0.1923 -0.4193 -0.5969
25003SOL     OW86986   0.190   9.378   8.380 -0.6395 -0.1221 -0.5000
25003SOL    HW186987   0.196   9.363   8.474  0.0985 -0.4397 -0.5937
25003SOL    HW286988   0.118   9.321   8.351 -1.9992  1.2065  0.1117
25004SOL     OW86989   9.445   6.320   4.943 -0.4660 -0.0413  0.1086
25004SOL    HW186990   9.365   6.316   4.996 -0.1072 -1.9463  0.5846
25004SOL    HW286991   9.510   6.272   4.994  0.6358  0.3762 -0.8572
25005SOL     OW86992   3.100   7.839   0.295 -0.1212 -0.2178 -0.4724
25005SOL    HW186993   3.098   7.745   0.315 -1.2658 -0.1362 -0.1230
25005SOL    HW286994   3.185   7.868   0.328  0.8767 -1.3938 -1.8836
25006SOL     OW86995   2.596   8.049   6.071 -0.0035 -0.1041  0.2650
25006SOL    HW186996   2.614   8.097   6.152  1.7016 -0.1532 -0.0509
25006SOL    HW286997   2.553   7.968   6.100  2.1781 -0.9499  1.3242
25007SOL     OW86998   2.655   7.294   3.552 -0.0410 -0.4329 -0.2058
25007SOL    HW186999   2.717   7.239   3.505  1.8196 -0.6035  2.2088
25007SOL    HW287000   2.590   7.233   3.586 -0.3120 -0.5551 -0.9235
25008SOL     OW87001   9.029   8.846   5.634 -0.2424  0.3731 -0.3317
25008SOL    HW187002   9.053   8.934   5.664  0.2985 -0.4038  1.6776
25008SOL    HW287003   9.103   8.817   5.582  0.6447  0.2387  0.9664
25009SOL     OW87004   9.214   3.213   6.245  0.2026  0.4448 -0.3613
25009SOL    HW187005   9.142   3.192   6.186  0.0831 -0.7922  0.1827
25009SOL    HW287006   9.241   3.301   6.220 -0.4348  0.3000 -1.6408
25010SOL     OW87007   3.054   0.802   3.192 -0.4792 -0.4523  0.1403
25010SOL    HW187008   3.071   0.771   3.281 -1.1435 -0.2865  0.3293
25010SOL    HW287009   2.962   0.828   3.193  0.0444  1.5822  0.0027
25011SOL     OW87010   6.676   7.594   5.450 -0.2406  0.0460  0.7173
25011SOL    HW187011   6.624   7.657   5.400  1.4749  1.5780  0.7688
25011SOL    HW287012   6.740   7.561   5.387  0.1540 -0.1206  1.1979
25012SOL     OW87013   6.278   6.395   8.119  0.0019  0.4704  0.1313
25012SOL    HW187014   6.250   6.321   8.173 -1.3124  0.7693 -0.1176
25012SOL    HW287015   6.199   6.447   8.106  0.7818  1.6166 -0.1869
25013SOL     OW87016   7.735   0.513   7.896 -0.6072 -0.3921  0.1825
25013SOL    HW187017   7.681   0.534   7.820 -0.4680 -0.8438 -0.0390
25013SOL    HW287018   7.742   0.418   7.895  1.4149 -0.2709 -0.6288
25014SOL     OW87019   5.048   7.295   5.075  0.3232  0.0758 -0.0748
25014SOL    HW187020   4.985   7.355   5.116 -0.9350 -0.4611 -1.1398
25014SOL    HW287021   5.059   7.224   5.138  0.2261  0.4228  0.3308
25015SOL     OW87022   2.526  10.141   4.494  0.2563 -0.4749 -0.3470
25015SOL    HW187023   2.591  10.183   4.438  0.3677  0.8062  0.6897
25015SOL    HW287024   2.442  10.172   4.460  0.2037 -1.5253 -1.2127
25016SOL     OW87025   7.475   5.099   6.591  0.2544  0.0921 -0.9589
25016SOL    HW187026   7.460   5.078   6.499 -0.5309  0.8679 -1.0246
25016SOL    HW287027   7.534   5.174   6.590  1.1588 -0.5909 -0.7844
25017SOL     OW87028   8.840   9.161   0.212 -0.1351  0.2859 -0.4725
25017SOL    HW187029   8.831   9.249   0.249 -0.7388  0.1564 -0.3116
25017SOL    HW287030   8.802   9.168   0.124 -2.2581 -0.3417  0.3313
25018SOL     OW87031   5.232   8.782   0.231 -0.2306 -0.1434 -0.7973
25018SOL    HW187032   5.296   8.714   0.250  0.2238  0.0792 -1.5076
25018SOL    HW287033   5.170   8.776   0.303  1.5401  0.8030  0.9123
25019SOL     OW87034   9.206   3.407   3.058 -0.3466 -0.1069 -0.0538
25019SOL    HW187035   9.280   3.394   3.117 -0.2230 -0.0921 -0.2029
25019SOL    HW287036   9.139   3.347   3.090 -0.6777  0.6729  0.7598
25020SOL     OW87037   9.742  10.159   7.610 -0.6599  0.1987  0.1811
25020SOL    HW187038   9.671  10.096   7.615 -0.5604 -0.0085 -0.7445
25020SOL    HW287039   9.715  10.220   7.541 -0.6411  1.0317  0.8863
25021SOL     OW87040   0.803   7.110  10.086 -0.0383 -0.0517  0.4675
25021SOL    HW187041   0.731   7.151  10.039  0.6519  0.5911 -0.0705
25021SOL    HW287042   0.834   7.040  10.028 -1.0129 -1.1734  1.2477
25022SOL     OW87043   0.037   2.745   3.232  0.1786  0.6263  0.4145
25022SOL    HW187044   0.111   2.784   3.186  0.4209 -1.5188 -1.1667
25022SOL    HW287045   0.071   2.662   3.266 -0.9152  0.6544  1.6423
25023SOL     OW87046   2.646   8.925   7.263  0.0391 -0.1619  0.6376
25023SOL    HW187047   2.722   8.869   7.245  0.5297  0.1487  1.6736
25023SOL    HW287048   2.637   8.978   7.184  0.1844 -1.0044  0.0391
25024SOL     OW87049   9.858   0.145   2.348  0.1342 -0.3507  0.4128
25024SOL    HW187050   9.908   0.188   2.279 -0.3708  0.9927  0.8472
25024SOL    HW287051   9.905   0.167   2.429  0.2221 -1.1577  0.5862
25025SOL     OW87052   8.161   8.437   7.160 -0.3944  0.3196  0.5211
25025SOL    HW187053   8.221   8.453   7.087 -0.2775 -0.2696  0.4814
25025SOL    HW287054   8.122   8.351   7.141 -0.2717  0.1059  1.2082
25026SOL     OW87055   7.340  10.265   1.065  0.1542 -0.3829  0.1043
25026SOL    HW187056   7.337  10.287   0.972  1.1371  2.4556  0.6460
25026SOL    HW287057   7.427  10.229   1.079 -0.0416 -0.9379 -0.0759
25027SOL     OW87058   8.446   8.641  10.125  0.2402 -0.1470  0.4320
25027SOL    HW187059   8.540   8.627  10.133  0.1154 -0.8013  0.8158
25027SOL    HW287060   8.430   8.644  10.030  0.3594 -2.1553  0.3113
25028SOL     OW87061   7.760   6.692   4.694  0.3290 -0.2430  0.5792
25028SOL    HW187062   7.677   6.708   4.649  1.0837  0.0675 -0.7623
25028SOL    HW287063   7.739   6.626   4.760 -0.6382 -1.5336 -0.9477
25029SOL     OW87064   2.264   8.020   9.282 -0.2992 -0.5542 -0.4319
25029SOL    HW187065   2.258   7.975   9.367  0.6637 -1.5650 -0.8645
25029SOL    HW287066   2.220   7.962   9.221  0.2973 -0.5546 -0.8707
25030SOL     OW87067   7.732  10.256   8.164  0.0065  0.0718  0.5295
25030SOL    HW187068   7.720  10.347   8.192  0.2986  0.3764 -0.3282
25030SOL    HW287069   7.674  10.246   8.089  1.1287  0.0222 -0.3616
25031SOL     OW87070   1.706   4.009   5.291  0.3278  0.0415  0.3118
25031SOL    HW187071   1.799   3.990   5.303  0.1207 -0.5305  1.0738
25031SOL    HW287072   1.683   3.965   5.209  0.5140 -0.5960  0.5986
25032SOL     OW87073   6.442   5.236   1.416  0.7162 -0.3384 -0.0324
25032SOL    HW187074   6.403   5.219   1.330  1.4415 -0.6186 -0.3125
25032SOL    HW287075   6.371   5.221   1.478 -0.2843  1.4305 -0.6591
25033SOL     OW87076   5.956   3.474   3.837  0.5873 -0.1546 -0.1647
25033SOL    HW187077   5.964   3.438   3.926  1.7304  0.4720 -0.0021
25033SOL    HW287078   6.018   3.423   3.785  0.2372 -0.2251 -0.5204
25034SOL     OW87079   3.769   0.236   9.542 -0.7778  0.5962  0.3482
25034SOL    HW187080   3.747   0.314   9.593 -1.7112  0.4412  0.2033
25034SOL    HW287081   3.688   0.186   9.540 -0.4638  0.1086 -0.4212
25035SOL     OW87082   1.772   3.538   6.897  0.0781 -0.7113 -0.2988
25035SOL    HW187083   1.679   3.517   6.888 -0.4602  0.0368  2.4128
25035SOL    HW287084   1.779   3.629   6.867 -0.1383 -0.6688 -0.2277
25036SOL     OW87085  10.235   6.791   1.166  0.2603 -0.1625 -0.2113
25036SOL    HW187086  10.254   6.835   1.083  1.7725  2.0614  1.1848
25036SOL    HW287087  10.291   6.713   1.166  0.5414  0.0310 -1.1155
25037SOL     OW87088   2.573   3.720   4.754  0.5277 -0.2204 -0.0095
25037SOL    HW187089   2.523   3.686   4.827 -0.0642  0.1434 -0.2405
25037SOL    HW287090   2.616   3.644   4.716 -0.3397 -0.6327 -0.1829
25038SOL     OW87091   4.679   9.442   6.464 -0.6249  0.3119 -0.2227
25038SOL    HW187092   4.697   9.391   6.385 -0.0457 -1.0608  0.7567
25038SOL    HW287093   4.726   9.524   6.451  2.0776 -1.0875 -0.0464
25039SOL     OW87094   7.117   1.672   7.986 -0.2073 -0.1807 -0.1153
25039SOL    HW187095   7.027   1.698   8.004 -0.0638  0.6413 -0.5053
25039SOL    HW287096   7.160   1.676   8.072 -0.1747  1.0135 -0.1652
25040SOL     OW87097   9.397   9.641   4.417  0.0209  0.1419 -0.2830
25040SOL    HW187098   9.441   9.567   4.374  0.8812  0.9118 -0.7640
25040SOL    HW287099   9.444   9.718   4.386 -1.4571  0.9779 -0.5145
25041SOL     OW87100   6.541   0.573   8.799 -0.4949  0.4306  0.3702
25041SOL    HW187101   6.622   0.600   8.755  0.5980 -0.4371  1.7234
25041SOL    HW287102   6.504   0.654   8.833 -0.1327  0.8348 -0.1868
25042SOL     OW87103   6.857  10.310   2.216 -0.2001  0.1026 -0.0423
25042SOL    HW187104   6.861  10.214   2.221 -0.7624  0.0024 -1.1365
25042SOL    HW287105   6.938  10.339   2.257  1.3324 -0.9686 -2.0902
25043SOL     OW87106   9.766   3.031   9.869  0.1868  0.1481  0.0491
25043SOL    HW187107   9.814   2.950   9.887 -1.2457 -0.5686  0.7988
25043SOL    HW287108   9.682   3.003   9.835  1.0302  1.4202 -3.4800
25044SOL     OW87109   5.631   0.948   7.988 -0.0953  0.0445 -0.0824
25044SOL    HW187110   5.644   0.976   7.897 -0.4918  1.9980  0.4040
25044SOL    HW287111   5.537   0.952   8.002 -0.0171  0.0507  0.4859
25045SOL     OW87112   7.703   7.620   4.633  0.3564  0.5720 -0.4226
25045SOL    HW187113   7.677   7.565   4.558 -2.3685  1.2320 -0.0652
25045SOL    HW287114   7.676   7.708   4.608  0.5326  0.9968  0.8365
25046SOL     OW87115   4.299   5.706   2.373  0.1285 -0.2392  0.1681
25046SOL    HW187116   4.298   5.611   2.362  1.2576 -0.3087  0.5972
25046SOL    HW287117   4.212   5.726   2.410 -0.0888 -1.1035  0.1543
25047SOL     OW87118   0.347   9.310   5.469  0.0278 -0.0224  0.2136
25047SOL    HW187119   0.321   9.231   5.423  1.4282 -1.8915  2.4103
25047SOL    HW287120   0.433   9.332   5.434 -0.8892  1.3533 -1.2940
25048SOL     OW87121   3.956   6.205   9.560  0.5860 -0.5329  0.6521
25048SOL    HW187122   3.941   6.132   9.500  0.7600 -0.8569  1.0007
25048SOL    HW287123   3.870   6.224   9.597 -0.2142  1.7211 -1.9841
25049SOL     OW87124   6.609   1.575   2.430 -0.1111 -0.3433 -0.3139
25049SOL    HW187125   6.544   1.505   2.430 -0.0321 -0.4236 -1.2868
25049SOL    HW287126   6.686   1.537   2.388 -0.3636  0.5860 -1.6880
25050SOL     OW87127   3.421   9.635   1.309 -0.3604 -0.3326  0.3775
25050SOL    HW187128   3.462   9.720   1.326 -0.9924 -0.2461  1.5346
25050SOL    HW287129   3.412   9.595   1.396 -0.2268 -1.5142 -0.1362
25051SOL     OW87130   9.993   8.893   2.122 -0.2033 -0.2023 -0.5693
25051SOL    HW187131   9.928   8.863   2.058  0.2503  0.1889 -1.2275
25051SOL    HW287132  10.073   8.904   2.071  0.1353  0.2314  0.0489
25052SOL     OW87133   0.202   7.909   8.799 -0.3217 -0.6767 -0.4823
25052SOL    HW187134   0.238   7.942   8.881  0.4567 -0.3777 -0.9220
25052SOL    HW287135   0.277   7.867   8.756 -0.4702 -0.0040 -1.4489
25053SOL     OW87136   2.428   6.459   1.965  0.8345  0.0460  0.3008
25053SOL    HW187137   2.353   6.467   2.024 -0.7935  1.5881 -1.8339
25053SOL    HW287138   2.469   6.545   1.967  2.0272 -0.5195  0.7427
25054SOL     OW87139   6.909   7.191   0.591 -0.1293  0.1689  0.0299
25054SOL    HW187140   6.960   7.168   0.513  2.2920  1.4251  1.1509
25054SOL    HW287141   6.857   7.267   0.564 -0.8121 -0.5975 -0.8823
25055SOL     OW87142   1.718   4.364   6.626  0.0832 -0.4227  0.3130
25055SOL    HW187143   1.689   4.335   6.712  1.0730  0.8730  1.1297
25055SOL    HW287144   1.682   4.452   6.616  0.7738 -0.1762 -0.1663
25056SOL     OW87145   7.950  10.305   9.656 -0.4858 -0.2071 -0.1292
25056SOL    HW187146   7.965  10.212   9.643  0.9901  0.0506 -0.4171
25056SOL    HW287147   8.021  10.348   9.609 -0.9291  1.0601  0.3077
25057SOL     OW87148   1.437   0.774   4.556  0.0488  0.1229  0.1259
25057SOL    HW187149   1.344   0.798   4.552 -0.8785 -3.0901 -1.5897
25057SOL    HW287150   1.464   0.768   4.464  2.0342  1.1563  0.6057
25058SOL     OW87151   3.614   9.564   6.992  0.6306  0.3403  0.2308
25058SOL    HW187152   3.581   9.479   6.966  0.5455  0.6380 -0.6580
25058SOL    HW287153   3.550   9.597   7.056 -0.9673  1.0233 -1.6427
25059SOL     OW87154   9.170   0.942   5.836  0.5099 -0.3465 -0.0841
25059SOL    HW187155   9.145   1.025   5.796 -1.0342 -0.5399  0.4071
25059SOL    HW287156   9.229   0.902   5.772  0.0424  0.4336 -1.0361
25060SOL     OW87157   0.781   4.866   1.378  0.5116 -0.0126  0.1894
25060SOL    HW187158   0.726   4.913   1.315  1.6413  0.4094 -0.5148
25060SOL    HW287159   0.773   4.774   1.354  0.8627  0.1384 -0.5282
25061SOL     OW87160   9.167   1.539   2.613  1.3502  0.3468  0.6088
25061SOL    HW187161   9.249   1.578   2.582  1.0823  1.5306  1.3421
25061SOL    HW287162   9.195   1.473   2.677  1.7830 -0.4026 -0.3239
25062SOL     OW87163   9.080   9.957   6.756  0.0099  0.5554  0.1944
25062SOL    HW187164   9.065   9.909   6.837  1.0809  0.2495  0.2206
25062SOL    HW287165   9.032  10.039   6.767 -0.7985  0.0339  0.6596
25063SOL     OW87166   0.393   7.836   5.405  0.1128 -0.3638 -0.0087
25063SOL    HW187167   0.458   7.767   5.417 -1.0784 -1.4223  0.6536
25063SOL    HW287168   0.414   7.874   5.319  0.9300 -1.4062 -0.2944
25064SOL     OW87169   4.324   6.770   1.665 -0.4629  0.1718  0.4423
25064SOL    HW187170   4.353   6.692   1.617  0.7817  1.5401 -1.1310
25064SOL    HW287171   4.310   6.739   1.755 -2.1954 -2.3417 -0.5672
25065SOL     OW87172   1.906   4.000   4.079 -1.0513 -0.2558  0.3773
25065SOL    HW187173   1.919   3.919   4.128  1.4601 -0.5332 -0.5656
25065SOL    HW287174   1.883   3.970   3.991 -0.6365  0.0636  0.1604
25066SOL     OW87175   2.936   7.319   4.364  0.2764  0.2852  0.0804
25066SOL    HW187176   2.994   7.316   4.288 -0.3950  1.2055 -0.4971
25066SOL    HW287177   2.848   7.311   4.326 -0.0061 -0.8915  0.9185
25067SOL     OW87178   5.909   1.734   1.995 -0.2824 -0.1832 -0.7587
25067SOL    HW187179   5.995   1.702   1.968 -0.3574  0.7503 -2.2239
25067SOL    HW287180   5.860   1.743   1.913 -1.8664 -0.8975  0.0652
25068SOL     OW87181   2.705   7.622   7.387 -0.1171 -0.3139  0.1192
25068SOL    HW187182   2.721   7.593   7.298 -0.7629 -0.8653  0.1677
25068SOL    HW287183   2.773   7.687   7.405  0.3497 -0.6032 -0.5766
25069SOL     OW87184   1.318   9.786   7.139  0.0602 -0.3237  0.3077
25069SOL    HW187185   1.300   9.863   7.084  1.2327 -0.9436 -1.0014
25069SOL    HW287186   1.237   9.773   7.189 -1.0595  0.2859 -1.2636
25070SOL     OW87187   2.036   9.926   5.035  0.0327 -0.1732 -0.2200
25070SOL    HW187188   2.072   9.917   5.123 -1.0651  0.7848  0.3568
25070SOL    HW287189   2.033   9.837   5.000  1.5507 -0.4412  0.2506
25071SOL     OW87190   1.460   9.609   8.906 -0.0383  0.0186  0.3477
25071SOL    HW187191   1.373   9.637   8.933  0.2578  2.3441 -0.8461
25071SOL    HW287192   1.517   9.633   8.979 -0.2968 -1.1067  0.9449
25072SOL     OW87193   3.303   5.621   2.775 -0.6849 -0.2239  0.1027
25072SOL    HW187194   3.393   5.647   2.796 -1.3634  2.0762  0.3916
25072SOL    HW287195   3.312   5.535   2.734  1.7024  0.1642 -0.3311
25073SOL     OW87196   5.516   2.150   5.150 -0.4338  0.3799  0.0563
25073SOL    HW187197   5.424   2.139   5.176 -1.2609  0.5774 -2.4213
25073SOL    HW287198   5.544   2.063   5.124 -0.1541  0.4459  0.1385
25074SOL     OW87199   7.322   2.923   4.035 -0.1689 -0.3421  0.2832
25074SOL    HW187200   7.365   2.933   3.951 -0.9510 -1.1357 -0.2343
25074SOL    HW287201   7.239   2.970   4.025 -0.3463 -0.5978  0.5440
25075SOL     OW87202   9.216   3.884   9.366 -0.6802 -0.0948  0.1635
25075SOL    HW187203   9.271   3.921   9.436  0.0850  0.5217 -0.7404
25075SOL    HW287204   9.128   3.886   9.402 -0.2274 -0.3102  1.3258
25076SOL     OW87205   9.165   9.765   3.973 -0.1792  0.6240 -0.0508
25076SOL    HW187206   9.108   9.823   3.923  0.6020  0.8371 -0.7279
25076SOL    HW287207   9.120   9.680   3.974  0.3002  0.2935 -2.1459
25077SOL     OW87208   8.871   2.037   8.581 -0.1347  1.2362 -0.7851
25077SOL    HW187209   8.905   2.125   8.562  0.6876  1.2818  0.7331
25077SOL    HW287210   8.844   2.041   8.672 -0.1057 -0.0851 -0.7056
25078SOL     OW87211   0.172   3.861   1.435 -0.2205 -0.2258 -0.0675
25078SOL    HW187212   0.186   3.773   1.400  0.2359  0.1163 -0.7752
25078SOL    HW287213   0.180   3.918   1.359 -1.2442  0.3677  0.2604
25079SOL     OW87214   7.041   1.162   8.156 -0.1925 -0.0353 -0.1614
25079SOL    HW187215   7.016   1.244   8.112 -1.6322 -1.0722 -1.4011
25079SOL    HW287216   7.053   1.100   8.085  2.6046 -0.5334  0.6468
25080SOL     OW87217   8.801   4.658   4.521  0.2174 -0.1167 -0.5663
25080SOL    HW187218   8.747   4.635   4.597 -0.0808  2.6340  0.1818
25080SOL    HW287219   8.738   4.678   4.452  0.3590  0.3635 -0.5617
25081SOL     OW87220   7.933   5.582   7.982  0.2363 -0.7413  0.0453
25081SOL    HW187221   7.924   5.490   7.957 -0.8492 -0.1413 -1.9617
25081SOL    HW287222   7.854   5.600   8.034  0.3684 -0.8898  0.3001
25082SOL     OW87223   2.187   8.200   4.580 -0.3904  0.0112  0.5313
25082SOL    HW187224   2.100   8.160   4.584 -1.6382  2.4513 -0.5751
25082SOL    HW287225   2.225   8.183   4.667 -3.7949  2.7190  2.7883
25083SOL     OW87226   8.324   1.300   1.709  0.4985 -0.1414  0.1998
25083SOL    HW187227   8.276   1.219   1.725 -1.2793  0.8104 -0.0618
25083SOL    HW287228   8.375   1.314   1.788  0.4778 -1.2560  0.4346
25084SOL     OW87229   2.048   6.803   6.383  0.1591  0.1475 -0.0998
25084SOL    HW187230   2.121   6.768   6.434 -0.3778  0.5892  1.0041
25084SOL    HW287231   2.068   6.896   6.374  0.1100  0.1238 -0.4560
25085SOL     OW87232   2.724   9.963   2.024 -0.0857  0.0659 -1.0284
25085SOL    HW187233   2.685   9.881   2.054  1.2211 -0.3738 -0.4613
25085SOL    HW287234   2.730   9.954   1.929  1.5504 -1.2262 -0.8519
25086SOL     OW87235   5.956   1.279   8.988  0.6761  0.3596 -0.0132
25086SOL    HW187236   5.975   1.186   8.975  0.4914  0.6775 -4.2624
25086SOL    HW287237   6.042   1.320   9.000  0.9896 -0.1551 -0.4701
25087SOL     OW87238   3.653   8.494   3.175  0.0645 -0.2173  0.4275
25087SOL    HW187239   3.661   8.499   3.079  1.6584  1.0345  0.5825
25087SOL    HW287240   3.649   8.586   3.203  0.1776 -0.5590  1.6050
25088SOL     OW87241   1.829   3.086   8.705 -0.5075 -0.1543  0.2032
25088SOL    HW187242   1.745   3.118   8.738 -0.7331  0.3014 -0.7777
25088SOL    HW287243   1.831   3.115   8.614  2.4342  3.4605  1.1735
25089SOL     OW87244   7.807   5.182   1.680  0.2018 -0.3629 -0.0543
25089SOL    HW187245   7.784   5.091   1.700 -2.1184 -0.2049 -1.5743
25089SOL    HW287246   7.756   5.203   1.602  1.6297  1.8885 -0.4898
25090SOL     OW87247   4.941   6.411   2.854  0.0109  0.1919  0.8804
25090SOL    HW187248   4.962   6.348   2.785  1.2896  0.6898  0.8017
25090SOL    HW287249   4.848   6.430   2.841  0.0294 -0.3677 -0.1663
25091SOL     OW87250   6.153   8.317   2.455 -0.3726 -0.3612 -0.0009
25091SOL    HW187251   6.159   8.361   2.539  0.1940  1.5528 -0.9813
25091SOL    HW287252   6.059   8.304   2.442 -0.4580 -0.7633  0.9554
25092SOL     OW87253   7.469   0.458   0.687  0.0328 -0.8594  0.2325
25092SOL    HW187254   7.401   0.401   0.653 -1.2274  1.4088 -1.2780
25092SOL    HW287255   7.422   0.531   0.727  1.5699 -0.0774  0.7074
25093SOL     OW87256   5.259   7.427   4.969 -0.3396  0.1864 -0.3956
25093SOL    HW187257   5.272   7.375   4.889  0.6236  1.1221 -0.8763
25093SOL    HW287258   5.189   7.382   5.016 -0.0904 -1.0817 -1.1836
25094SOL     OW87259   2.153   7.113   9.680  0.1012  0.3433 -0.0401
25094SOL    HW187260   2.065   7.144   9.657  0.1039  0.8937  0.6631
25094SOL    HW287261   2.142   7.019   9.696 -0.5599  0.5762  0.9710
25095SOL     OW87262   1.107   3.113   0.790  0.1168 -0.3709  0.6739
25095SOL    HW187263   1.057   3.182   0.833 -0.5481 -1.3220  1.5042
25095SOL    HW287264   1.065   3.102   0.705  0.3184  0.3452  0.4813
25096SOL     OW87265   1.861   0.446   3.892 -0.0537 -0.6450  0.1635
25096SOL    HW187266   1.861   0.497   3.812 -0.6781 -1.0098 -0.0758
25096SOL    HW287267   1.900   0.504   3.958  1.3164 -0.6676 -0.5907
25097SOL     OW87268   9.378   5.720  10.370 -0.6823  0.3156  0.4417
25097SOL    HW187269   9.424   5.735  10.287 -1.8750  1.5271 -0.0441
25097SOL    HW287270   9.437   5.664  10.420  1.1906  1.5446 -0.2636
25098SOL     OW87271   7.219   5.529   6.942  0.0072 -0.6520  0.4142
25098SOL    HW187272   7.137   5.512   6.989  0.1804 -1.5638  0.4068
25098SOL    HW287273   7.199   5.604   6.886 -0.9251 -1.0592  0.1741
25099SOL     OW87274   2.855   1.948   7.713 -0.5866 -0.0356 -0.2650
25099SOL    HW187275   2.916   1.999   7.660 -0.1049  0.7644  0.9897
25099SOL    HW287276   2.907   1.923   7.790 -1.6963  0.2575  0.6056
25100SOL     OW87277   6.319   6.689   5.433  0.6671 -0.6068 -0.5477
25100SOL    HW187278   6.346   6.780   5.446  1.4300 -0.8105 -0.6669
25100SOL    HW287279   6.290   6.660   5.520  0.4546 -0.2658 -0.5025
25101SOL     OW87280   6.935   9.731   7.591 -0.0791 -0.2576 -0.1339
25101SOL    HW187281   6.935   9.827   7.580 -2.1081 -0.0297  1.2508
25101SOL    HW287282   7.027   9.709   7.604  0.4795  1.4680 -0.7702
25102SOL     OW87283   9.384   4.269   8.232 -0.2113  0.0523 -0.5277
25102SOL    HW187284   9.335   4.227   8.162 -1.9614 -0.4162  0.8980
25102SOL    HW287285   9.318   4.289   8.298  1.4232  0.1175  1.1636
25103SOL     OW87286   3.880   8.433   4.023  0.4337 -0.1218 -0.5523
25103SOL    HW187287   3.906   8.343   4.005  1.1940  0.0712 -0.4501
25103SOL    HW287288   3.794   8.426   4.063 -0.2379 -0.7075 -2.0364
25104SOL     OW87289   1.229   3.319  10.268  0.3555 -0.5010  0.1845
25104SOL    HW187290   1.141   3.306  10.234  0.2277 -1.3235  0.8176
25104SOL    HW287291   1.222   3.301  10.362  0.7254  1.6013  0.6850
25105SOL     OW87292   3.203   9.684   4.446  0.0422  0.3353  0.1847
25105SOL    HW187293   3.146   9.671   4.522  0.7038  1.5452  0.9256
25105SOL    HW287294   3.248   9.767   4.464 -0.1488  0.9179 -1.7605
25106SOL     OW87295   2.258   8.633   5.322 -0.4337 -0.1945 -0.1679
25106SOL    HW187296   2.348   8.666   5.316 -0.4403 -0.2807 -0.8403
25106SOL    HW287297   2.257   8.558   5.263 -0.3344 -1.6360  1.6036
25107SOL     OW87298   0.398   2.453   4.195  0.1023  0.2507 -0.0960
25107SOL    HW187299   0.475   2.402   4.171  0.2889  0.5218 -0.0830
25107SOL    HW287300   0.329   2.388   4.208  0.3893 -0.0150  0.1252
25108SOL     OW87301   7.461   5.802   1.775  0.3899  0.3684 -0.1082
25108SOL    HW187302   7.502   5.883   1.746  2.0822 -0.0256  1.0521
25108SOL    HW287303   7.415   5.826   1.856 -1.5517  0.7456 -1.2510
25109SOL     OW87304   6.634   1.316   2.663 -0.6182 -0.2464 -0.5594
25109SOL    HW187305   6.563   1.333   2.602 -1.5149  0.0943  0.5369
25109SOL    HW287306   6.641   1.220   2.666 -1.6797 -0.3285  0.0032
25110SOL     OW87307  10.060  10.157   7.354  0.3782 -0.1092 -0.0602
25110SOL    HW187308  10.015  10.242   7.353  1.0581  0.2553 -1.0073
25110SOL    HW287309  10.133  10.170   7.414  1.2779  0.4229 -1.2337
25111SOL     OW87310   1.997   1.673   0.143 -0.5145  0.0883  0.2351
25111SOL    HW187311   2.053   1.737   0.186  0.9830 -0.4860 -0.7676
25111SOL    HW287312   1.990   1.704   0.053 -3.3060  1.0780  0.6998
25112SOL     OW87313   6.878   7.769   3.914 -0.5028 -0.7201 -0.0993
25112SOL    HW187314   6.857   7.689   3.866 -0.0847 -1.1785  0.4627
25112SOL    HW287315   6.879   7.741   4.006 -1.3085  0.1342  0.1847
25113SOL     OW87316   0.911   2.142   2.352  0.1640  0.0012 -0.3494
25113SOL    HW187317   0.910   2.233   2.380  0.4687 -0.3068  0.7177
25113SOL    HW287318   0.991   2.134   2.299  0.9180  0.0338  0.7387
25114SOL     OW87319   8.884   9.627  10.304 -0.0027  0.4531  0.1285
25114SOL    HW187320   8.937   9.609  10.382 -0.0525  1.4810  0.4198
25114SOL    HW287321   8.795   9.604  10.331  0.1578 -0.4403 -0.0710
25115SOL     OW87322   5.607   0.256   1.474 -0.2621  0.0386  0.0842
25115SOL    HW187323   5.661   0.198   1.420 -0.7625 -0.3265 -0.0294
25115SOL    HW287324   5.658   0.269   1.554  0.0266 -0.2403 -0.0521
25116SOL     OW87325   2.711   0.730   2.196  0.3174  0.0294 -0.2333
25116SOL    HW187326   2.665   0.664   2.248  0.2651  0.9032  0.8794
25116SOL    HW287327   2.803   0.704   2.199  0.1376 -0.7374 -0.9674
25117SOL     OW87328   6.712   7.174   7.480  0.2161 -1.0376 -0.0354
25117SOL    HW187329   6.791   7.199   7.433  0.9767 -1.0789  1.1742
25117SOL    HW287330   6.648   7.242   7.457  0.9750 -0.3246 -0.0972
25118SOL     OW87331   0.981   8.411   6.598  0.0627  0.3456 -0.6403
25118SOL    HW187332   1.061   8.446   6.559  0.1113  0.9969  0.0204
25118SOL    HW287333   0.921   8.485   6.602  0.5561  0.7146  1.8162
25119SOL     OW87334   6.581   3.060   2.536  0.1255 -0.0619 -0.7098
25119SOL    HW187335   6.510   3.122   2.552 -0.1875 -0.1810 -1.6150
25119SOL    HW287336   6.565   3.026   2.448  1.3502 -0.0278 -0.9677
25120SOL     OW87337   1.333   6.135   5.744  0.0017 -0.0422  0.6130
25120SOL    HW187338   1.277   6.130   5.821  1.3911 -0.8632  1.6333
25120SOL    HW287339   1.422   6.131   5.780  0.6932  0.4253 -0.9848
25121SOL     OW87340   9.656   7.655   9.199 -0.2114 -0.0410 -0.3977
25121SOL    HW187341   9.696   7.732   9.158 -2.1310  0.7617 -0.9110
25121SOL    HW287342   9.714   7.583   9.177  0.9072  1.0355 -1.1282
25122SOL     OW87343   6.712   5.645   4.407 -0.0465 -0.3510 -0.7083
25122SOL    HW187344   6.760   5.586   4.348 -0.7391 -1.0807 -0.5615
25122SOL    HW287345   6.770   5.656   4.482 -0.2786 -1.5892 -0.3281
25123SOL     OW87346   7.481   4.897   0.765  0.3722 -1.0635 -0.1137
25123SOL    HW187347   7.512   4.868   0.679  1.5770  0.9862 -0.4256
25123SOL    HW287348   7.523   4.838   0.827  1.8526 -0.7591 -0.7838
25124SOL     OW87349   2.563   3.638   7.087 -0.4689 -0.2628  0.5377
25124SOL    HW187350   2.484   3.641   7.140 -1.6042 -0.1562 -1.0899
25124SOL    HW287351   2.554   3.558   7.035  0.1440  0.1391 -0.1989
25125SOL     OW87352   8.306   7.089   6.874 -0.1092  0.4901  0.1446
25125SOL    HW187353   8.227   7.100   6.927  0.2245  0.4871  0.6443
25125SOL    HW287354   8.273   7.064   6.788 -0.7355  1.9625 -0.0822
25126SOL     OW87355   1.552   9.087   6.914 -0.1812  0.1799  0.5793
25126SOL    HW187356   1.489   9.153   6.944  2.2195  1.8966  2.1686
25126SOL    HW287357   1.580   9.043   6.994  1.0516 -0.1489 -0.0201
25127SOL     OW87358   2.990   2.547   9.719 -0.1899 -0.2927 -0.0531
25127SOL    HW187359   2.954   2.629   9.753  1.1092 -0.4161  1.7055
25127SOL    HW287360   3.069   2.573   9.672  0.3334 -0.5393  0.6780
25128SOL     OW87361   9.471   4.084   7.156 -0.8148 -0.9089 -0.3059
25128SOL    HW187362   9.392   4.116   7.115 -0.9743 -3.1917 -1.9352
25128SOL    HW287363   9.457   3.990   7.166  0.6911 -0.9937  1.7285
25129SOL     OW87364   1.979   0.740   6.810  0.2945  0.1535 -0.5960
25129SOL    HW187365   2.009   0.717   6.898  2.4863 -0.7445 -1.4971
25129SOL    HW287366   1.933   0.661   6.780  0.4182  0.0929 -0.6250
25130SOL     OW87367   1.071   5.556   0.293  0.5830  0.1391 -0.2564
25130SOL    HW187368   1.114   5.559   0.379  0.2780  1.2850 -0.1302
25130SOL    HW287369   1.007   5.627   0.296  1.9753  1.5637 -2.1542
25131SOL     OW87370   6.970   8.708   9.075  0.3477 -0.5856 -0.2245
25131SOL    HW187371   6.979   8.689   8.981 -1.7906 -2.8640 -0.0873
25131SOL    HW287372   7.014   8.634   9.118  0.2837 -0.1697  0.5674
25132SOL     OW87373  10.297   5.549   6.512  0.5151  0.4706 -0.2501
25132SOL    HW187374  10.234   5.554   6.584  0.2471 -2.7996 -0.1185
25132SOL    HW287375  10.243   5.537   6.434  0.8896 -0.9597 -0.3140
25133SOL     OW87376   0.649   5.114   0.253  0.3024 -0.1515 -0.0528
25133SOL    HW187377   0.655   5.105   0.348  2.6880 -1.8229 -0.2708
25133SOL    HW287378   0.674   5.205   0.237 -1.2343  0.4803  0.9504
25134SOL     OW87379   4.807   6.014   6.169 -0.4755 -0.2630  0.0535
25134SOL    HW187380   4.862   6.091   6.184 -0.9215  0.6289 -2.4957
25134SOL    HW287381   4.761   6.001   6.252 -0.6201  2.4086  0.4684
25135SOL     OW87382   1.242   0.363  10.298 -0.0522  0.2685  0.1956
25135SOL    HW187383   1.161   0.328  10.335 -1.5729  0.2377 -2.8389
25135SOL    HW287384   1.266   0.435  10.356 -1.5356 -0.5267  1.8770
25136SOL     OW87385   6.976   1.060   4.153 -0.4652  0.0038 -0.2046
25136SOL    HW187386   7.049   0.997   4.155  1.6173  2.0832 -2.5437
25136SOL    HW287387   7.019   1.145   4.155 -3.0371  1.3491  0.5169
25137SOL     OW87388   5.620   1.900   5.459  0.3399 -0.6292  0.0610
25137SOL    HW187389   5.571   1.819   5.450 -0.0121 -0.2691 -1.4034
25137SOL    HW287390   5.710   1.872   5.478  1.0969 -1.5737 -4.0539
25138SOL     OW87391   4.463   1.278   4.945 -0.4481 -0.3848 -0.6468
25138SOL    HW187392   4.519   1.354   4.929  0.1448 -1.0476 -1.7963
25138SOL    HW287393   4.374   1.313   4.942 -0.3693 -0.1566 -4.2075
25139SOL     OW87394   1.226   7.359   7.634  0.6869  0.1118  0.1017
25139SOL    HW187395   1.254   7.282   7.684  1.3828  0.9573  1.0414
25139SOL    HW287396   1.178   7.322   7.559  0.5246 -1.2114  0.8260
25140SOL     OW87397   7.743   6.127   5.804 -0.3043 -0.0684 -0.2219
25140SOL    HW187398   7.818   6.183   5.823 -0.3932  0.1934 -0.6436
25140SOL    HW287399   7.781   6.043   5.780 -0.1575 -0.0392 -0.0917
25141SOL     OW87400   0.952   9.964   0.441 -0.3270  0.0797 -0.3397
25141SOL    HW187401   1.042   9.971   0.473 -0.1768 -0.2505 -0.6766
25141SOL    HW287402   0.898   9.986   0.517  0.0389  0.8191 -0.2770
25142SOL     OW87403   8.814   5.683  10.023  0.0904  0.4400  0.2617
25142SOL    HW187404   8.875   5.744   9.983 -0.7353  1.1509  0.0719
25142SOL    HW287405   8.753   5.737  10.073 -1.5207 -0.0801 -1.0614
25143SOL     OW87406   3.608   8.117   7.204 -0.7244  0.1815 -0.3190
25143SOL    HW187407   3.530   8.168   7.183 -0.2170  1.2359  0.2481
25143SOL    HW287408   3.665   8.178   7.251  0.4110 -0.5773 -0.6474
25144SOL     OW87409  10.085   2.184   2.560 -0.9568 -0.6324  0.3306
25144SOL    HW187410  10.097   2.099   2.603  0.1207 -0.1031  1.1232
25144SOL    HW287411   9.991   2.190   2.545 -1.0382 -2.0014  0.1834
25145SOL     OW87412  10.040   0.583   4.134  0.1180 -0.1012  0.2325
25145SOL    HW187413  10.045   0.623   4.048 -0.4137  1.3976  0.8697
25145SOL    HW287414  10.113   0.621   4.183  0.7102 -1.3014  0.3241
25146SOL     OW87415   9.522   1.269   9.165  0.2444  0.0789 -0.1986
25146SOL    HW187416   9.609   1.301   9.142 -0.5013  0.1111 -3.5058
25146SOL    HW287417   9.502   1.311   9.249  2.9972  0.7966  0.1804
25147SOL     OW87418   1.435   2.293   1.172 -0.2021 -0.1686  0.0100
25147SOL    HW187419   1.431   2.205   1.133  1.1500 -0.3262  0.1782
25147SOL    HW287420   1.439   2.277   1.267 -0.3835  0.0998  0.0648
25148SOL     OW87421   7.055   6.210   4.613 -0.2548  0.4124  0.3163
25148SOL    HW187422   7.025   6.142   4.673  0.2496  0.5328  0.7182
25148SOL    HW287423   7.030   6.292   4.656 -0.6430  0.4836 -0.0467
25149SOL     OW87424   8.907   7.015   5.084 -0.1037  0.3335  0.0877
25149SOL    HW187425   8.910   6.991   4.991 -3.0787 -1.8052  0.3793
25149SOL    HW287426   8.815   7.037   5.099  0.1772 -0.0409  2.6797
25150SOL     OW87427   5.228   0.399   6.544 -0.7715 -0.0490 -0.1058
25150SOL    HW187428   5.301   0.460   6.558  0.3590 -1.9184  3.4355
25150SOL    HW287429   5.186   0.430   6.464  2.6334  2.3892 -1.1999
25151SOL     OW87430   3.418   4.613   5.405  0.1547  0.6286  0.2160
25151SOL    HW187431   3.398   4.552   5.477 -0.4359 -1.0300 -1.2779
25151SOL    HW287432   3.336   4.620   5.357  0.0991  3.0056  0.5672
25152SOL     OW87433   9.445   2.134   2.281  0.1821 -0.6727  0.2857
25152SOL    HW187434   9.485   2.175   2.205 -0.2528 -0.5034  0.1433
25152SOL    HW287435   9.513   2.076   2.316  0.4255 -0.6556 -0.1535
25153SOL     OW87436   8.297   1.815   3.898 -0.2895  0.3839 -0.4075
25153SOL    HW187437   8.251   1.895   3.923 -0.4438  0.7824 -1.9201
25153SOL    HW287438   8.228   1.752   3.880 -0.1704 -0.4616  1.7951
25154SOL     OW87439   5.726   7.466   8.336 -0.3833 -0.1285 -0.0141
25154SOL    HW187440   5.767   7.430   8.258  1.2715  0.5669  0.4806
25154SOL    HW287441   5.789   7.449   8.407  0.3865  3.2332  0.3269
25155SOL     OW87442   6.984   6.911   1.250 -0.7888 -0.7300 -0.2525
25155SOL    HW187443   6.911   6.938   1.194 -1.1215 -0.2201  0.4077
25155SOL    HW287444   6.990   6.980   1.316  1.5515  0.2850 -1.4093
25156SOL     OW87445   0.999   4.483  10.376  0.2600  0.5305 -0.2181
25156SOL    HW187446   1.059   4.547  10.337  1.0199  0.8636  1.4002
25156SOL    HW287447   0.913   4.526  10.374  0.6470  1.3530  0.2557
25157SOL     OW87448   4.046   7.812   8.326 -0.6498  0.4622 -0.0813
25157SOL    HW187449   4.105   7.858   8.386 -0.1474 -0.2389 -0.0158
25157SOL    HW287450   4.100   7.796   8.248 -0.5752 -0.6266  0.1724
25158SOL     OW87451   3.150   9.006   3.706  0.5243  0.1509  0.2678
25158SOL    HW187452   3.237   9.043   3.724  0.4381  0.1924  0.6022
25158SOL    HW287453   3.105   9.008   3.791  0.2737 -0.0740  0.1410
25159SOL     OW87454   1.272   7.164   0.511  0.2358  0.1691 -0.3770
25159SOL    HW187455   1.181   7.161   0.540  0.4654 -1.6847  0.3260
25159SOL    HW287456   1.266   7.163   0.415 -0.5380 -2.0927 -0.3746
25160SOL     OW87457   6.025   2.933   2.746 -0.2158 -0.2393  0.3747
25160SOL    HW187458   5.954   2.868   2.753 -0.5182  0.0057 -0.3315
25160SOL    HW287459   6.013   2.989   2.822  0.0132 -0.9731  0.9651
25161SOL     OW87460   9.006   9.473   2.334 -0.4128  0.2014  0.0402
25161SOL    HW187461   9.099   9.461   2.315 -0.7163 -0.2736 -1.2884
25161SOL    HW287462   9.003   9.511   2.422  1.0638  1.0381 -0.2530
25162SOL     OW87463   8.424   4.785   9.531 -0.3408 -0.0142 -0.1295
25162SOL    HW187464   8.366   4.790   9.607 -0.0544  1.6184  0.0151
25162SOL    HW287465   8.511   4.771   9.569 -0.4626 -1.3621 -0.2934
25163SOL     OW87466   7.912   6.024   8.495  0.2465  0.1575  0.4791
25163SOL    HW187467   7.862   5.960   8.545  0.4354  1.8902  3.1236
25163SOL    HW287468   8.002   6.015   8.528  1.2379 -1.1413 -2.3157
25164SOL     OW87469  10.021   6.571   2.522  0.2969 -0.1806 -0.4080
25164SOL    HW187470  10.105   6.538   2.492  0.4752  1.1488 -1.4742
25164SOL    HW287471   9.977   6.495   2.558  1.1940 -1.3171 -1.6070
25165SOL     OW87472   4.376   1.801   7.978 -0.2622  0.1983  0.0649
25165SOL    HW187473   4.351   1.877   7.924 -1.6136 -0.2824 -0.0174
25165SOL    HW287474   4.365   1.831   8.068 -0.0757  0.3257  0.0471
25166SOL     OW87475   6.507   3.208   6.209  0.8416 -0.5163 -0.0412
25166SOL    HW187476   6.568   3.206   6.282  0.6447 -2.5105  0.1231
25166SOL    HW287477   6.540   3.142   6.148 -0.1715 -0.3750 -0.7677
25167SOL     OW87478   3.392   1.167   0.697  0.0656 -0.2761  0.4910
25167SOL    HW187479   3.450   1.136   0.628 -1.3910 -0.0373 -0.9234
25167SOL    HW287480   3.377   1.259   0.676 -0.5988 -0.2646  0.9657
25168SOL     OW87481   3.537  10.194   8.417 -0.3523 -0.7600 -0.3075
25168SOL    HW187482   3.630  10.214   8.403 -0.5926 -0.3713 -1.4560
25168SOL    HW287483   3.501  10.275   8.452 -0.1194 -1.1629  0.9332
25169SOL     OW87484   1.886   9.354   8.225 -1.0355 -0.7575  0.0341
25169SOL    HW187485   1.923   9.436   8.257 -0.5658 -0.8233 -0.3189
25169SOL    HW287486   1.937   9.334   8.146 -3.0352  0.1292 -1.5753
25170SOL     OW87487   6.920   6.563   9.661 -0.5117  0.4230 -0.1085
25170SOL    HW187488   6.847   6.555   9.722 -0.0050 -3.5954  0.2119
25170SOL    HW287489   6.998   6.568   9.716 -0.3134  2.7547 -0.4826
25171SOL     OW87490   6.105   5.557   6.959  0.2289  0.3720 -0.3186
25171SOL    HW187491   6.193   5.547   6.922  0.2962 -1.2598  0.2190
25171SOL    HW287492   6.046   5.539   6.887  0.3583 -0.7796 -0.1573
25172SOL     OW87493   5.754   8.461   2.697  0.1233 -0.4753  0.4856
25172SOL    HW187494   5.659   8.458   2.712 -0.1023  3.3026  0.6448
25172SOL    HW287495   5.787   8.519   2.765  1.8475  1.8134 -2.1172
25173SOL     OW87496   0.941   4.362   2.767 -0.4642  0.0835  0.2336
25173SOL    HW187497   0.860   4.412   2.765 -0.6811 -0.2377  0.8218
25173SOL    HW287498   1.002   4.415   2.818 -0.8450 -0.4523  1.2843
25174SOL     OW87499   4.050   4.388   2.120  0.0874  0.0214  0.1040
25174SOL    HW187500   4.001   4.414   2.042  0.2134  2.0659  0.6492
25174SOL    HW287501   4.012   4.441   2.191  2.9468  1.6163  0.5706
25175SOL     OW87502   9.409   7.569   5.501  0.5828  0.2163 -0.1332
25175SOL    HW187503   9.463   7.648   5.512  1.9868 -0.9587  2.2960
25175SOL    HW287504   9.336   7.582   5.561  0.2262  0.1290 -0.5455
25176SOL     OW87505   9.762   4.810   2.082  0.4269 -0.7533  0.0116
25176SOL    HW187506   9.811   4.796   2.163  0.7871 -1.1493 -0.2691
25176SOL    HW287507   9.749   4.904   2.078  0.6099 -0.7072  0.4148
25177SOL     OW87508   1.571   7.502   7.804 -1.0140 -0.0694  0.3190
25177SOL    HW187509   1.504   7.567   7.783 -1.3175 -0.5950 -0.4245
25177SOL    HW287510   1.653   7.550   7.801 -1.4436  1.0059  3.0545
25178SOL     OW87511   1.925   7.377   3.790  0.1272  0.4520  0.0436
25178SOL    HW187512   1.861   7.314   3.823 -0.2107  1.5920  1.7561
25178SOL    HW287513   2.003   7.362   3.844  0.2802  1.0169 -0.0122
25179SOL     OW87514   3.546   9.366   2.852  0.1824 -0.2510 -0.1916
25179SOL    HW187515   3.456   9.354   2.822  0.3010 -1.5498 -0.0576
25179SOL    HW287516   3.586   9.421   2.784 -0.9346  1.1427  0.2171
25180SOL     OW87517   2.679   1.262   4.460  0.6491  0.1866 -0.2355
25180SOL    HW187518   2.674   1.181   4.511 -1.3555  0.8359  0.6860
25180SOL    HW287519   2.700   1.234   4.371 -1.1227 -1.4856 -0.1826
25181SOL     OW87520   8.294   9.536   1.478 -0.3584 -0.1831  0.3319
25181SOL    HW187521   8.231   9.537   1.550 -0.0125 -1.2868  0.6599
25181SOL    HW287522   8.310   9.444   1.461  0.1073  0.0694 -0.6959
25182SOL     OW87523   2.673   1.225   2.125 -0.2003 -0.2561  0.0677
25182SOL    HW187524   2.718   1.157   2.176 -0.6934 -1.0018 -0.4709
25182SOL    HW287525   2.725   1.234   2.045 -2.6688 -3.5911 -2.2136
25183SOL     OW87526   2.720   8.483   9.091  0.4414  0.5396  0.2210
25183SOL    HW187527   2.690   8.570   9.065  2.3815  0.7463 -1.5701
25183SOL    HW287528   2.678   8.468   9.176 -0.4751  2.9211  0.2715
25184SOL     OW87529   9.919   7.965   9.284  0.2528  0.6261 -0.1369
25184SOL    HW187530   9.928   7.895   9.348 -2.5324 -0.4734 -0.8093
25184SOL    HW287531   9.998   7.958   9.230  1.0468 -0.5973  1.1227
25185SOL     OW87532   3.211   0.591   7.709  0.4361 -0.0426  0.1588
25185SOL    HW187533   3.209   0.563   7.801 -1.0510 -0.7810 -0.0654
25185SOL    HW287534   3.304   0.608   7.691  0.6393  1.2892  2.1178
25186SOL     OW87535   4.145   3.100   8.325 -0.0416  0.3011  0.0887
25186SOL    HW187536   4.135   3.163   8.397  3.9357  0.2008  0.9276
25186SOL    HW287537   4.156   3.155   8.247 -3.6003  0.4101 -0.5093
25187SOL     OW87538   1.977   5.342   7.629 -0.1932  0.2783 -0.2519
25187SOL    HW187539   2.032   5.403   7.579 -1.0751  1.4489  0.1556
25187SOL    HW287540   2.028   5.323   7.707  0.6294 -0.5258 -0.9533
25188SOL     OW87541   0.699   4.661   6.507 -0.2030 -0.1034  0.7740
25188SOL    HW187542   0.655   4.626   6.584 -0.8774  1.7445  1.2830
25188SOL    HW287543   0.629   4.677   6.444 -0.0711  1.2471  0.9468
25189SOL     OW87544   0.823   5.938   2.930  0.4008 -0.0774 -0.0786
25189SOL    HW187545   0.818   5.851   2.968  0.2223 -0.1784 -0.3323
25189SOL    HW287546   0.742   5.981   2.957  0.2794 -0.1448 -0.3292
25190SOL     OW87547   5.992   7.476   1.521  0.3942  0.3897 -0.0256
25190SOL    HW187548   6.085   7.451   1.512  0.7540  0.3463  2.7684
25190SOL    HW287549   5.987   7.563   1.482  1.5492  0.2697 -0.5005
25191SOL     OW87550   0.571   8.657   1.089  0.3884  0.4168 -0.5132
25191SOL    HW187551   0.553   8.654   0.995 -0.6761  1.9076 -0.3972
25191SOL    HW287552   0.651   8.710   1.097 -0.6690  2.0996 -0.5072
25192SOL     OW87553   7.143   3.853   5.626  0.0849  0.2004 -0.0236
25192SOL    HW187554   7.203   3.788   5.588 -0.7429 -0.7485  0.2520
25192SOL    HW287555   7.175   3.863   5.716  0.5349  0.5791 -0.2213
25193SOL     OW87556   0.613   4.770   4.696 -0.1509 -0.9336  0.1637
25193SOL    HW187557   0.685   4.799   4.753 -0.1411 -3.5876  1.6975
25193SOL    HW287558   0.537   4.764   4.754 -0.4845 -2.3812 -0.3645
25194SOL     OW87559   3.626   2.139   2.723  0.2100  0.1439  0.1216
25194SOL    HW187560   3.655   2.050   2.704  0.7117  0.2561  0.3422
25194SOL    HW287561   3.705   2.192   2.720  0.1627  0.3355  1.4881
25195SOL     OW87562   6.692   0.866   9.803 -0.1639 -0.0623 -0.4945
25195SOL    HW187563   6.669   0.856   9.710 -1.0243 -2.5757 -0.1118
25195SOL    HW287564   6.656   0.787   9.844 -0.3874  1.3042  2.1136
25196SOL     OW87565   3.594   7.244   2.957  0.0259 -0.0812 -0.1675
25196SOL    HW187566   3.675   7.242   3.008 -0.3804  0.7348  0.5189
25196SOL    HW287567   3.535   7.299   3.007 -0.5582  0.3160 -1.2589
25197SOL     OW87568   2.521   2.406   3.534 -0.3284  0.3684  0.0631
25197SOL    HW187569   2.443   2.462   3.535  0.0081  0.8490 -0.1257
25197SOL    HW287570   2.514   2.354   3.614  0.5581  2.3842  1.5471
25198SOL     OW87571   7.350   1.063   7.732  0.2469  0.1486 -0.1433
25198SOL    HW187572   7.419   1.067   7.666  1.2823  0.1034  0.8988
25198SOL    HW287573   7.341   0.970   7.753  2.0648  0.3614  1.8984
25199SOL     OW87574   8.592   6.760   8.415 -0.4329 -0.1941 -0.2836
25199SOL    HW187575   8.666   6.739   8.471 -1.5089  0.6772  1.5779
25199SOL    HW287576   8.569   6.677   8.373 -0.1871 -1.1281  1.3473
25200SOL     OW87577   8.235   2.019   6.302  0.1516 -0.1216  0.1434
25200SOL    HW187578   8.315   1.967   6.293 -0.2325 -1.0496  1.8095
25200SOL    HW287579   8.215   2.017   6.395 -0.8556  1.5889  0.0051
25201SOL     OW87580   0.292   5.857   8.036 -0.2323  0.2226 -0.9146
25201SOL    HW187581   0.296   5.816   8.122 -1.2987  1.0491 -0.4481
25201SOL    HW287582   0.248   5.793   7.980 -0.4768  0.0985 -0.5813
25202SOL     OW87583   4.827   0.185   1.902 -0.0202 -0.1402  0.4027
25202SOL    HW187584   4.834   0.172   1.808 -3.2250 -0.0766  0.0565
25202SOL    HW287585   4.821   0.280   1.913 -1.1057 -0.2089  0.4994
25203SOL     OW87586   7.555   0.507   5.346 -0.2244 -0.0949 -0.5044
25203SOL    HW187587   7.527   0.549   5.265 -2.4749  0.6479  0.5832
25203SOL    HW287588   7.555   0.414   5.326  0.2741  0.1170 -1.6139
25204SOL     OW87589   3.306   9.504   5.176 -0.3598  0.1986  0.8674
25204SOL    HW187590   3.236   9.534   5.234  0.1615  1.9993  0.6209
25204SOL    HW287591   3.340   9.584   5.136 -0.6873 -0.9459 -1.9536
25205SOL     OW87592   1.693   3.088   6.282 -0.3965 -0.2939  0.3725
25205SOL    HW187593   1.712   3.159   6.344  0.4296 -2.2920  2.5336
25205SOL    HW287594   1.767   3.090   6.221 -0.3996  0.6991  0.3810
25206SOL     OW87595   0.403   8.289   0.352  0.4984 -0.7644  0.3144
25206SOL    HW187596   0.366   8.321   0.434  0.7346 -2.1154  0.9688
25206SOL    HW287597   0.498   8.299   0.363  0.4927  1.3476 -0.8014
25207SOL     OW87598   9.658   8.250   2.840  0.0986  0.8093 -0.0503
25207SOL    HW187599   9.736   8.303   2.853  0.1724  0.5031  0.8468
25207SOL    HW287600   9.585   8.307   2.865  0.1031  0.8025 -0.0230
25208SOL     OW87601   1.117   9.917   2.957  0.1007  0.1422  0.6459
25208SOL    HW187602   1.194   9.956   2.997  1.4447 -2.9016  1.3577
25208SOL    HW287603   1.043   9.961   2.999  1.4778  0.8146  2.5274
25209SOL     OW87604   3.405  10.023   7.693 -0.5857 -0.2806  0.3140
25209SOL    HW187605   3.331  10.076   7.720  0.5440  1.2337  0.5544
25209SOL    HW287606   3.480  10.082   7.695  0.5418 -1.5943 -0.5234
25210SOL     OW87607   9.269   3.699   5.269  0.1684  0.0322  0.0046
25210SOL    HW187608   9.327   3.736   5.202  0.3573  0.7652  0.5614
25210SOL    HW287609   9.184   3.692   5.225  0.2900  0.5148 -0.3176
25211SOL     OW87610   2.157   0.937   1.960 -0.2302 -0.2666 -0.0023
25211SOL    HW187611   2.179   1.028   1.979  1.0837 -0.4819 -0.4077
25211SOL    HW287612   2.063   0.938   1.942 -0.7112  0.6462  2.2128
25212SOL     OW87613   8.386  10.311   3.611  0.6151  0.3360  0.3596
25212SOL    HW187614   8.306  10.272   3.646  1.0371 -0.2914  0.6388
25212SOL    HW287615   8.409  10.257   3.536  0.0205  1.3457 -0.5646
25213SOL     OW87616   0.534   6.836   0.046 -0.3515 -0.0928 -0.0298
25213SOL    HW187617   0.549   6.923   0.082  1.1301  0.3757 -1.6181
25213SOL    HW287618   0.558   6.776   0.117 -0.4061  0.7790  0.7444
25214SOL     OW87619   5.993   3.329   4.471  0.1621 -0.0822 -0.5372
25214SOL    HW187620   5.974   3.369   4.386 -1.2670 -1.0951 -0.7362
25214SOL    HW287621   6.005   3.236   4.451 -0.0449 -0.3040  0.3524
25215SOL     OW87622   4.493  10.324   7.957  0.1399 -0.5318  0.6661
25215SOL    HW187623   4.570  10.295   7.908 -0.0968  1.0911 -0.7616
25215SOL    HW287624   4.515  10.412   7.988 -0.8354 -0.3572  0.9191
25216SOL     OW87625   0.624   8.127   7.508  0.4453 -0.0883 -0.2133
25216SOL    HW187626   0.559   8.110   7.576  0.9782 -0.9383  0.0876
25216SOL    HW287627   0.695   8.065   7.526  0.4229 -0.5857 -1.7764
25217SOL     OW87628   8.945   8.841   8.896 -0.2052  0.5614 -0.3033
25217SOL    HW187629   9.026   8.888   8.879 -0.4685  0.2538 -2.9023
25217SOL    HW287630   8.967   8.749   8.881 -0.7962  0.3684 -0.0415
25218SOL     OW87631   8.699   2.198   9.074  0.3632 -0.0101 -0.3175
25218SOL    HW187632   8.675   2.182   9.165 -0.6264 -0.5923 -0.6651
25218SOL    HW287633   8.617   2.227   9.033  0.0802 -2.4507 -1.6432
25219SOL     OW87634   6.070   8.709   6.519  0.7217 -0.2107  0.1061
25219SOL    HW187635   6.105   8.790   6.556 -1.0213  0.7935 -0.3566
25219SOL    HW287636   6.116   8.700   6.435 -0.1465  1.1368 -0.5443
25220SOL     OW87637   7.250   2.367   5.401  0.3864 -0.1991 -0.0404
25220SOL    HW187638   7.203   2.447   5.428  0.1608 -0.5429  0.6221
25220SOL    HW287639   7.289   2.335   5.483  0.5213 -0.7377 -0.3168
25221SOL     OW87640   6.739   0.513   6.065  0.1536 -0.7356  0.0614
25221SOL    HW187641   6.694   0.431   6.044 -2.2518  0.2456  1.0610
25221SOL    HW287642   6.706   0.575   6.000 -0.4970  0.1591  1.2028
25222SOL     OW87643   9.555   9.099   3.878 -0.0821 -0.1006  0.5888
25222SOL    HW187644   9.560   9.039   3.953  1.1499 -0.6088  0.1370
25222SOL    HW287645   9.645   9.104   3.846 -0.5133  0.4606 -0.5881
25223SOL     OW87646   6.831   9.479   9.061 -0.2044 -0.3102 -0.0786
25223SOL    HW187647   6.779   9.420   9.006 -0.2413  0.1496 -0.5463
25223SOL    HW287648   6.835   9.435   9.146 -0.3945 -0.8901 -0.3631
25224SOL     OW87649   2.797   7.577   4.453  0.2166  0.3015  0.0749
25224SOL    HW187650   2.865   7.643   4.461  0.1117  0.5113 -0.6970
25224SOL    HW287651   2.842   7.499   4.422 -0.2705  1.2725 -3.4944
25225SOL     OW87652  10.128   2.443   9.642 -0.8828 -0.0228 -0.3229
25225SOL    HW187653  10.116   2.438   9.547  0.0440  1.9835 -0.5810
25225SOL    HW287654  10.220   2.468   9.654 -1.0312 -0.0640  1.1045
25226SOL     OW87655   4.463   8.863   7.579 -0.1146 -0.2699  0.0405
25226SOL    HW187656   4.470   8.806   7.503 -0.1571  1.4011 -1.2668
25226SOL    HW287657   4.553   8.894   7.593 -0.3622  0.6479 -0.3316
25227SOL     OW87658   4.032   6.666   2.585 -0.0050 -0.3078 -0.3174
25227SOL    HW187659   4.125   6.663   2.607 -0.4381  0.0704  1.7541
25227SOL    HW287660   3.996   6.583   2.617 -0.6060  0.0780  0.0302
25228SOL     OW87661   1.589   6.562   5.459 -0.0619 -0.3809 -0.0624
25228SOL    HW187662   1.644   6.622   5.508 -0.5034 -0.7289  0.8885
25228SOL    HW287663   1.549   6.506   5.525  0.2670 -1.6657 -0.9139
25229SOL     OW87664   6.439   0.191   1.773 -0.1386  0.1346 -0.0408
25229SOL    HW187665   6.429   0.096   1.776  0.0972  0.0499 -1.3863
25229SOL    HW287666   6.504   0.210   1.841  0.3497 -0.7504 -0.2472
25230SOL     OW87667   1.937   6.836   9.867  0.2254 -0.0816 -0.7000
25230SOL    HW187668   1.979   6.836   9.781 -2.1587  1.2180 -1.9642
25230SOL    HW287669   1.956   6.923   9.903 -0.4169  0.1135 -0.8135
25231SOL     OW87670   7.248   5.223   9.699 -0.0041  0.5823 -0.4070
25231SOL    HW187671   7.323   5.258   9.748 -0.3011 -1.6413  1.8256
25231SOL    HW287672   7.279   5.139   9.665 -1.2408 -0.0073 -0.1083
25232SOL     OW87673   2.604   1.312   6.574  0.1108  0.6246  0.4281
25232SOL    HW187674   2.622   1.406   6.581 -0.9859  0.7293  2.7273
25232SOL    HW287675   2.524   1.299   6.624 -2.1037 -0.9745 -3.1965
25233SOL     OW87676   7.765   4.690   2.438  0.2733 -0.7475 -0.4231
25233SOL    HW187677   7.857   4.691   2.410  0.3111 -1.3526 -0.3289
25233SOL    HW287678   7.720   4.640   2.370 -0.4267  1.5637 -1.7743
25234SOL     OW87679   1.170   4.701   8.184 -0.2643  0.0846 -0.8274
25234SOL    HW187680   1.098   4.639   8.170 -1.3423  0.8313  1.0102
25234SOL    HW287681   1.239   4.650   8.226 -0.8910 -0.0354  0.0761
25235SOL     OW87682   1.823   7.997   6.594 -0.6677 -0.4041 -0.4204
25235SOL    HW187683   1.915   7.970   6.599 -0.2681  0.7049 -1.4386
25235SOL    HW287684   1.783   7.958   6.672  1.0185  0.3876  0.9128
25236SOL     OW87685   4.204   1.078   8.460  0.2885  0.2596  0.1965
25236SOL    HW187686   4.213   1.024   8.539  0.4780  0.1460  0.0967
25236SOL    HW287687   4.227   1.166   8.489  0.0018  0.2846  0.3542
25237SOL     OW87688   7.826   6.695   3.950  0.1106 -0.3878  0.2917
25237SOL    HW187689   7.757   6.739   3.901  1.0893  1.6341  0.6245
25237SOL    HW287690   7.780   6.641   4.014 -1.1564  0.3375  0.0127
25238SOL     OW87691   0.539   6.449   0.327  0.3407 -0.3749  0.3074
25238SOL    HW187692   0.566   6.535   0.295 -0.8732  0.4572  1.4204
25238SOL    HW287693   0.608   6.390   0.297  1.0636  0.9261 -0.7149
25239SOL     OW87694   1.673   0.697   3.861 -0.5716 -0.0969  0.1849
25239SOL    HW187695   1.727   0.671   3.936 -0.4109  0.1117  0.1415
25239SOL    HW287696   1.716   0.659   3.785 -0.3224  0.3126  0.1185
25240SOL     OW87697   3.199   0.300   3.351 -0.6593 -0.1467  0.0763
25240SOL    HW187698   3.203   0.317   3.445 -0.8174  0.1638  0.0274
25240SOL    HW287699   3.244   0.216   3.340  0.0789  0.2090  0.3277
25241SOL     OW87700   9.081   1.277   3.826 -0.1389 -0.1212 -0.0015
25241SOL    HW187701   9.113   1.214   3.762  1.3602  0.4278  0.1502
25241SOL    HW287702   9.144   1.350   3.820 -0.7827  0.5447  1.0974
25242SOL     OW87703   8.981   2.521   5.221  0.1833 -0.0058 -0.5686
25242SOL    HW187704   9.020   2.436   5.201 -1.3669 -0.9131  0.1327
25242SOL    HW287705   8.931   2.507   5.301 -1.5924  1.1046 -1.4247
25243SOL     OW87706   7.574  10.374   3.751  0.0544 -0.1011  0.1366
25243SOL    HW187707   7.664  10.343   3.748 -0.0410 -0.3512 -0.1756
25243SOL    HW287708   7.521  10.295   3.736 -0.1856  0.2464 -0.9230
25244SOL     OW87709   2.725   7.210   0.810 -0.5744 -0.0410 -0.1140
25244SOL    HW187710   2.702   7.118   0.797  0.3893 -0.5236  1.3958
25244SOL    HW287711   2.719   7.224   0.904  1.3213  0.8671 -0.0679
25245SOL     OW87712  10.244   2.869   2.947  0.3441 -0.7481  0.1826
25245SOL    HW187713  10.244   2.806   2.875  1.0614 -1.9730  1.2163
25245SOL    HW287714  10.156   2.864   2.983  0.0741 -0.3516 -0.4009
25246SOL     OW87715   5.323   2.701   8.421  0.6218  1.0146 -0.1154
25246SOL    HW187716   5.314   2.674   8.330  0.8014  0.2844  0.0743
25246SOL    HW287717   5.247   2.757   8.437  0.1339  0.4639 -0.4714
25247SOL     OW87718   0.069   3.192   8.153  0.2716 -0.2316  0.0196
25247SOL    HW187719   0.158   3.223   8.173 -0.4375  0.2015  3.0700
25247SOL    HW287720   0.040   3.151   8.234 -3.0710  1.4861 -0.1395
25248SOL     OW87721   3.317   6.056   2.804 -0.1526 -0.1780 -0.4626
25248SOL    HW187722   3.367   5.987   2.760 -3.0512 -1.8847 -1.4083
25248SOL    HW287723   3.321   6.131   2.745 -0.4830 -1.0157 -1.5693
25249SOL     OW87724   8.852   0.417   4.394 -0.1224 -0.4262 -0.2238
25249SOL    HW187725   8.770   0.447   4.355 -1.6056 -0.9437  2.2645
25249SOL    HW287726   8.911   0.492   4.387 -1.1464  0.3384 -1.0764
25250SOL     OW87727   5.210   9.106   4.138  0.0125  0.3328 -0.0775
25250SOL    HW187728   5.173   9.190   4.111 -1.3085 -0.2517 -0.1666
25250SOL    HW287729   5.190   9.101   4.232 -0.7780 -0.3003 -0.2739
25251SOL     OW87730   6.334   7.898   4.661  0.3184  0.4601  0.0732
25251SOL    HW187731   6.265   7.900   4.728 -0.2799  0.4110 -0.5277
25251SOL    HW287732   6.404   7.847   4.701  0.0015  0.4935  0.6902
25252SOL     OW87733  10.361   1.372   7.897 -0.2192 -0.3460  0.4210
25252SOL    HW187734  10.307   1.294   7.887 -2.1518  0.9251  0.4586
25252SOL    HW287735  10.427   1.365   7.828 -1.6910 -0.9422 -0.9762
25253SOL     OW87736   8.245   4.404   8.219 -0.2168 -0.1943 -0.4341
25253SOL    HW187737   8.250   4.471   8.287 -1.7321 -1.2211  0.7599
25253SOL    HW287738   8.152   4.383   8.213  0.0523 -1.1165 -1.8736
25254SOL     OW87739   2.848   5.265   7.709 -0.0824  0.2619 -0.1584
25254SOL    HW187740   2.776   5.237   7.766 -0.1427 -3.3506 -1.7185
25254SOL    HW287741   2.921   5.207   7.733  0.4578 -0.0936 -2.3917
25255SOL     OW87742   7.938   4.061  10.091  0.4809 -0.5590 -0.2322
25255SOL    HW187743   7.904   4.115  10.162  1.9343 -1.3151  1.0905
25255SOL    HW287744   8.032   4.055  10.108  0.3851 -3.6143 -0.2103
25256SOL     OW87745   8.363   7.184   8.449  0.5776 -0.3457 -0.1251
25256SOL    HW187746   8.343   7.093   8.430  2.5543 -0.4051 -2.4818
25256SOL    HW287747   8.295   7.234   8.404  0.9369 -0.6480 -1.0231
25257SOL     OW87748   6.553   8.891   2.469 -0.1780 -0.0570  0.3430
25257SOL    HW187749   6.501   8.815   2.497  0.4338 -0.7658 -0.3950
25257SOL    HW287750   6.640   8.856   2.453 -0.4827  0.2355 -2.5425
25258SOL     OW87751   5.426   1.453   7.016 -0.7565 -0.7695  0.3623
25258SOL    HW187752   5.407   1.545   7.035  1.0731 -0.0447 -1.0178
25258SOL    HW287753   5.371   1.432   6.941  1.1657  0.2762 -1.4422
25259SOL     OW87754   7.089   6.824   1.614 -0.0559  0.4003 -0.4512
25259SOL    HW187755   7.079   6.918   1.630 -1.8149 -0.0931  1.7682
25259SOL    HW287756   7.049   6.811   1.528 -0.3884  1.5883 -0.5075
25260SOL     OW87757   1.694   6.195   5.172  0.5500  0.0785 -0.0264
25260SOL    HW187758   1.710   6.286   5.196  0.4050  0.3055 -0.7451
25260SOL    HW287759   1.625   6.166   5.231  1.3564  0.0804  0.9499
25261SOL     OW87760   7.183   5.803   2.765  0.2294  0.4266  0.1065
25261SOL    HW187761   7.091   5.825   2.772  0.6397  1.8151  1.8249
25261SOL    HW287762   7.203   5.811   2.672 -1.5901 -1.0061 -0.4773
25262SOL     OW87763   7.035   5.378   9.798 -0.4175  0.1723 -0.0250
25262SOL    HW187764   7.045   5.392   9.892  1.2943  0.8402 -0.2731
25262SOL    HW287765   7.114   5.332   9.772 -1.1718 -0.5849 -1.0535
25263SOL     OW87766   9.461  10.154   5.177 -0.2407  0.4152 -0.2206
25263SOL    HW187767   9.446  10.245   5.204 -1.6300  0.2692 -0.4203
25263SOL    HW287768   9.541  10.157   5.125  0.2613  1.3575  0.5757
25264SOL     OW87769   7.242   2.346   6.037  0.6984  0.3177 -0.6081
25264SOL    HW187770   7.240   2.328   6.131 -2.2967  1.0566 -0.4312
25264SOL    HW287771   7.313   2.409   6.025  1.2508  0.0504  1.1058
25265SOL     OW87772  10.329   3.616   5.021 -0.3467 -0.5080  0.6071
25265SOL    HW187773  10.349   3.646   5.110 -0.6115 -0.7223  0.7400
25265SOL    HW287774  10.233   3.613   5.018 -0.3365 -0.5503  0.3306
25266SOL     OW87775   1.330   7.578   9.445 -0.3896 -0.4669 -0.6284
25266SOL    HW187776   1.399   7.557   9.381  0.2731 -0.3522  0.0289
25266SOL    HW287777   1.363   7.543   9.528 -1.3055 -0.7501 -0.3698
25267SOL     OW87778   4.631   0.505   4.345  0.2131  0.4407 -0.1073
25267SOL    HW187779   4.687   0.449   4.398 -1.8487 -0.8575  0.7995
25267SOL    HW287780   4.685   0.526   4.268  2.7160  1.1169  1.6946
25268SOL     OW87781   3.143   3.200   1.726  0.1765 -0.6642  0.5885
25268SOL    HW187782   3.055   3.220   1.759  0.3215  1.1115  0.0091
25268SOL    HW287783   3.201   3.242   1.789  0.5569 -0.4481  0.0960
25269SOL     OW87784   0.054   6.190   5.074  0.6710  0.0441  0.6319
25269SOL    HW187785   0.003   6.171   4.995  0.7212 -2.4383  1.1147
25269SOL    HW287786   0.095   6.275   5.056 -0.5469  0.2887 -1.3390
25270SOL     OW87787   6.888   6.091   8.294  0.1464  0.2088 -0.6042
25270SOL    HW187788   6.834   6.094   8.216  1.3751  0.4134 -1.4718
25270SOL    HW287789   6.967   6.141   8.271 -0.0513  1.4852  1.2265
25271SOL     OW87790   1.388   0.390   4.471 -0.0293  0.1247  0.1008
25271SOL    HW187791   1.383   0.403   4.376 -0.6477 -0.3782  0.0601
25271SOL    HW287792   1.481   0.375   4.488 -0.0264 -0.6078 -0.5374
25272SOL     OW87793  10.311   3.106   3.084  0.3772 -0.8226  0.1862
25272SOL    HW187794  10.403   3.131   3.074  0.2206 -0.1592  0.3494
25272SOL    HW287795  10.299   3.033   3.023  0.7713 -0.3080 -0.5236
25273SOL     OW87796   4.299   0.389   7.008 -0.7077 -0.1591 -0.0645
25273SOL    HW187797   4.274   0.321   7.070 -1.5467 -0.6545 -0.9083
25273SOL    HW287798   4.232   0.456   7.018  1.2039  1.5742  2.2084
25274SOL     OW87799   2.784   6.717   4.951  0.7414 -0.1753 -0.2662
25274SOL    HW187800   2.852   6.679   4.895  1.0221  0.1022 -0.1144
25274SOL    HW287801   2.806   6.809   4.957 -1.1813  0.5438 -2.5001
25275SOL     OW87802   4.484   1.265   0.056  0.2959 -0.0391  0.0703
25275SOL    HW187803   4.454   1.201   0.121 -0.0456  0.0849  0.0364
25275SOL    HW287804   4.563   1.226   0.019 -0.3641 -0.8268 -0.5425
25276SOL     OW87805   7.261   9.172   4.874 -0.0550  0.0074 -0.1504
25276SOL    HW187806   7.273   9.214   4.789  1.6236 -0.7100 -0.3094
25276SOL    HW287807   7.280   9.242   4.937  1.9174 -0.2389 -0.4113
25277SOL     OW87808  10.170   8.635   8.464 -0.1084  0.4123  0.6378
25277SOL    HW187809  10.212   8.705   8.414 -1.4511  0.1959 -0.8738
25277SOL    HW287810  10.234   8.564   8.465  0.9274  1.3207  1.4522
25278SOL     OW87811   7.630  10.007   4.935  0.2477  0.4275 -0.3949
25278SOL    HW187812   7.659  10.097   4.951 -1.2152  1.0773 -1.1577
25278SOL    HW287813   7.651   9.961   5.016  1.7766  1.2296 -0.2862
25279SOL     OW87814   9.371   8.398   8.611 -0.8040 -0.2496 -0.2036
25279SOL    HW187815   9.333   8.486   8.613  1.0924  0.6292  1.3838
25279SOL    HW287816   9.415   8.392   8.527 -1.1687  0.2157 -0.4308
25280SOL     OW87817   5.899   8.552   6.793  0.0306  0.2634  0.4806
25280SOL    HW187818   5.861   8.636   6.769  0.1513  0.0825 -0.3814
25280SOL    HW287819   5.849   8.488   6.742 -0.3396 -0.2273  1.4457
25281SOL     OW87820   3.134   2.936   1.680 -0.0832 -0.2826  0.2650
25281SOL    HW187821   3.138   3.027   1.709 -1.9102  0.2497 -1.0007
25281SOL    HW287822   3.220   2.920   1.640 -0.7691  1.9775 -2.4108
25282SOL     OW87823   5.922   3.581   7.158 -0.0371 -0.2713 -0.2070
25282SOL    HW187824   5.896   3.598   7.249 -0.2834 -1.0694 -0.1217
25282SOL    HW287825   5.843   3.596   7.107 -0.4799 -1.8209 -0.0463
25283SOL     OW87826   0.599   2.560   7.369  0.0551 -0.0639 -0.2629
25283SOL    HW187827   0.607   2.629   7.303 -0.1403  0.3951  0.1886
25283SOL    HW287828   0.515   2.578   7.412  0.3752 -0.1102  0.3885
25284SOL     OW87829   5.354   9.256  10.218 -0.5937  0.1305  0.4573
25284SOL    HW187830   5.442   9.245  10.184 -0.0624 -1.9605  2.2290
25284SOL    HW287831   5.297   9.241  10.143  0.5480 -1.8227 -0.0988
25285SOL     OW87832   0.300   8.840   5.548  0.0180 -0.0613 -0.1984
25285SOL    HW187833   0.342   8.754   5.557 -2.0129 -1.0475  0.4922
25285SOL    HW287834   0.326   8.888   5.627  1.3232  0.0790 -0.6821
25286SOL     OW87835   1.272   5.119   0.751 -1.1890 -0.0706  0.2060
25286SOL    HW187836   1.300   5.030   0.728  0.2533  0.5024 -0.3350
25286SOL    HW287837   1.178   5.119   0.733 -0.8467 -0.8369 -1.9488
25287SOL     OW87838   1.435   1.877   8.548  0.1633 -0.5476  0.3567
25287SOL    HW187839   1.372   1.940   8.584 -0.2527  0.1497 -1.4714
25287SOL    HW287840   1.506   1.931   8.515 -0.8227 -0.8380 -2.4739
25288SOL     OW87841   6.791   8.745   5.548 -0.0513 -0.3621 -0.1559
25288SOL    HW187842   6.805   8.651   5.543  0.5750 -0.3326  0.9116
25288SOL    HW287843   6.758   8.769   5.461  0.4763 -1.4431 -0.6678
25289SOL     OW87844   5.348   7.298   4.526  0.1328 -0.1839  0.1513
25289SOL    HW187845   5.257   7.327   4.522 -0.2361 -1.4019 -1.1129
25289SOL    HW287846   5.399   7.377   4.508 -0.5797  0.8302  2.3149
25290SOL     OW87847   4.894   3.771   6.979  0.0428 -0.4101 -0.5672
25290SOL    HW187848   4.888   3.698   7.040 -1.4563  1.0707  1.1994
25290SOL    HW287849   4.966   3.824   7.013 -0.5167  0.1977 -0.3010
25291SOL     OW87850   1.541   0.748   1.912 -0.0252 -0.8085 -0.2041
25291SOL    HW187851   1.477   0.683   1.944  1.2823 -0.7402  2.8850
25291SOL    HW287852   1.589   0.702   1.844  0.4785 -2.9811  1.5014
25292SOL     OW87853   0.058   8.200   1.040  0.0348  0.3528  0.0326
25292SOL    HW187854  -0.004   8.273   1.042  0.8370  1.0664  2.5253
25292SOL    HW287855   0.056   8.165   1.129  0.7316 -1.7831 -0.7402
25293SOL     OW87856   4.011   3.111   3.850 -0.2878  0.0768  0.0110
25293SOL    HW187857   4.089   3.164   3.834 -1.6076  2.0134 -0.2869
25293SOL    HW287858   3.971   3.101   3.764 -1.5614  1.0828  0.4567
25294SOL     OW87859   0.133   3.731   8.967  0.6477 -0.1396  0.0538
25294SOL    HW187860   0.048   3.714   9.006  1.1728  1.7081  2.2132
25294SOL    HW287861   0.120   3.714   8.874 -1.3718 -2.2840  0.6389
25295SOL     OW87862   6.339   1.921   9.590 -0.1373  1.0085  0.4526
25295SOL    HW187863   6.429   1.902   9.615 -0.5691 -0.4690  0.9561
25295SOL    HW287864   6.316   1.999   9.640  0.3752  0.5063  1.4888
25296SOL     OW87865   2.900   1.987   3.089 -0.1584 -0.3177  0.6011
25296SOL    HW187866   2.837   2.042   3.134  0.2882  0.6889  0.0279
25296SOL    HW287867   2.967   1.969   3.155  0.7216  1.5155  0.2641
25297SOL     OW87868   2.918   8.171   1.287 -0.0449  0.5680 -0.3291
25297SOL    HW187869   2.923   8.194   1.194  1.7088  1.1341 -0.1236
25297SOL    HW287870   2.916   8.255   1.332  2.0348  0.3699  0.2412
25298SOL     OW87871   4.696   4.946   7.314 -0.1534 -0.0680 -0.2636
25298SOL    HW187872   4.774   4.903   7.280  0.7811  1.7369 -0.5466
25298SOL    HW287873   4.717   4.967   7.404  0.3460  1.7659 -0.7571
25299SOL     OW87874   0.956   2.628   6.549  0.0639 -0.1619 -0.2668
25299SOL    HW187875   0.861   2.639   6.552 -0.0254 -0.5195  3.1434
25299SOL    HW287876   0.969   2.533   6.542  0.0061 -0.3759  1.7406
25300SOL     OW87877   3.461   5.534   6.468  0.2902 -0.3734 -0.5636
25300SOL    HW187878   3.490   5.523   6.558 -0.1289 -0.1542 -0.3996
25300SOL    HW287879   3.377   5.580   6.475  0.5332  0.1715 -1.0823
25301SOL     OW87880   6.331   9.826   5.033 -0.0505 -0.2638  0.5335
25301SOL    HW187881   6.401   9.868   5.083  1.0137  1.2489 -2.0017
25301SOL    HW287882   6.340   9.733   5.052  1.5339  0.0666  1.6090
25302SOL     OW87883   9.817   5.600   8.551 -0.2956  0.2837  0.4037
25302SOL    HW187884   9.847   5.509   8.548  0.0003  0.3960  0.0051
25302SOL    HW287885   9.853   5.634   8.633  0.3683  0.3114  0.1056
25303SOL     OW87886   4.275   5.487   8.397  0.5187  0.0602 -0.1622
25303SOL    HW187887   4.181   5.500   8.383  0.3811 -0.9063 -0.2186
25303SOL    HW287888   4.316   5.558   8.348 -0.2077  1.2254  0.8593
25304SOL     OW87889   1.986   3.423   5.857  0.2876  0.2150  0.5593
25304SOL    HW187890   2.051   3.459   5.918  0.8265  0.0899  0.0696
25304SOL    HW287891   2.021   3.337   5.834 -0.0124  0.1840  0.2197
25305SOL     OW87892   1.925   8.988   1.063 -0.0685  0.8122 -0.1779
25305SOL    HW187893   1.882   8.986   0.977 -1.0674 -0.5476  0.3230
25305SOL    HW287894   2.015   8.962   1.044 -0.1316  1.0858 -0.8998
25306SOL     OW87895   0.928   4.049   4.983  0.5874  0.1884 -0.2104
25306SOL    HW187896   0.840   4.043   5.020  0.1595  1.1335 -0.9930
25306SOL    HW287897   0.928   3.986   4.911  0.4453  0.3909 -0.3900
25307SOL     OW87898   1.033   9.062   3.717  0.2185 -0.2268 -0.0225
25307SOL    HW187899   1.027   8.970   3.745  1.9586 -0.2802  0.3153
25307SOL    HW287900   1.065   9.108   3.794 -1.2509  0.8185  0.0112
25308SOL     OW87901   1.225  10.311   6.877  0.1999 -0.4479  0.1834
25308SOL    HW187902   1.218  10.310   6.973  1.3742  0.1776  0.2894
25308SOL    HW287903   1.210  10.402   6.853  0.6840 -0.4553 -0.1590
25309SOL     OW87904   6.508   9.950   6.743 -0.1384 -0.1950  0.3941
25309SOL    HW187905   6.507   9.862   6.780 -0.7879 -0.9137 -1.2091
25309SOL    HW287906   6.451   9.944   6.666  2.0963  0.8339 -1.4787
25310SOL     OW87907   7.112  10.361   5.542 -0.1528  0.7877 -0.7697
25310SOL    HW187908   7.186  10.419   5.561 -0.3698  0.4230  1.4763
25310SOL    HW287909   7.150  10.273   5.539 -0.3736  0.6653 -0.2157
25311SOL     OW87910   6.509   6.475  10.015  0.3895  0.3630 -0.5587
25311SOL    HW187911   6.575   6.490   9.948 -0.0517 -0.7134 -1.2578
25311SOL    HW287912   6.554   6.495  10.098  1.3352  0.4122 -1.0746
25312SOL     OW87913   0.865   0.956   3.356 -0.0642  0.2154  0.0376
25312SOL    HW187914   0.864   0.905   3.437 -0.3491 -1.1849 -0.8142
25312SOL    HW287915   0.839   1.045   3.383  2.8740  0.6159  1.9653
25313SOL     OW87916   4.648   7.386   8.052 -0.0626 -0.0507  0.3930
25313SOL    HW187917   4.632   7.464   8.105  0.0170  0.8420 -0.8654
25313SOL    HW287918   4.717   7.411   7.991  0.2632 -1.2457  0.2300
25314SOL     OW87919   7.274   6.220   7.245  0.0613 -0.0151  0.6693
25314SOL    HW187920   7.217   6.279   7.196  1.2661  1.1925  0.6325
25314SOL    HW287921   7.361   6.261   7.238  0.7808 -1.3669  1.3695
25315SOL     OW87922   7.038  10.266   9.727  0.2676  0.6904 -0.5002
25315SOL    HW187923   6.952  10.278   9.687 -1.6315 -1.2210  2.6265
25315SOL    HW287924   7.049  10.343   9.783 -0.4734 -0.1240  0.7887
25316SOL     OW87925   0.503   9.376   8.507 -0.4333  0.4357 -0.7813
25316SOL    HW187926   0.468   9.356   8.420  0.8144 -0.9175 -1.0150
25316SOL    HW287927   0.564   9.305   8.525  1.4848  2.1891  0.0100
25317SOL     OW87928   9.167   1.341   7.683  0.2854 -0.0641 -0.3372
25317SOL    HW187929   9.226   1.412   7.655 -1.1401  0.7404 -1.4640
25317SOL    HW287930   9.225   1.276   7.723  1.5613  2.0916  1.5476
25318SOL     OW87931   1.520   0.977   3.326 -0.0757 -0.2412 -0.3339
25318SOL    HW187932   1.437   0.976   3.278 -0.5002 -2.3089  0.3497
25318SOL    HW287933   1.544   1.069   3.329 -0.8065  0.1526 -3.1470
25319SOL     OW87934   9.372   5.595   9.186 -0.2806  0.2271  0.1902
25319SOL    HW187935   9.350   5.586   9.094  0.1024 -0.7076  0.1749
25319SOL    HW287936   9.468   5.599   9.187 -0.3249  2.1722  0.4096
25320SOL     OW87937   8.591   0.577   0.164  0.0708  0.1399  0.2879
25320SOL    HW187938   8.520   0.553   0.223  0.4141 -1.8257 -0.0496
25320SOL    HW287939   8.671   0.558   0.212  0.3995  1.4026  0.2898
25321SOL     OW87940   9.779   8.892   7.788  0.1839 -0.1043  0.0424
25321SOL    HW187941   9.779   8.902   7.692 -2.0066 -0.2730 -0.0284
25321SOL    HW287942   9.809   8.803   7.803  0.8801  0.0369 -0.4513
25322SOL     OW87943   0.131   2.643   2.652  0.2504 -0.6553  0.5198
25322SOL    HW187944   0.142   2.555   2.687  2.3500 -0.2899  0.8929
25322SOL    HW287945   0.144   2.633   2.557  3.8796 -0.3649  0.8489
25323SOL     OW87946   6.922   2.872   2.917  0.4254  0.5070  0.0037
25323SOL    HW187947   6.964   2.909   2.839 -0.2158 -0.1739 -0.6807
25323SOL    HW287948   6.909   2.947   2.975  2.0625  0.8226  0.0017
25324SOL     OW87949   0.509   1.731   9.897  0.6169  0.2761  0.0317
25324SOL    HW187950   0.425   1.757   9.933 -0.8938 -1.9962 -1.5829
25324SOL    HW287951   0.544   1.669   9.962  0.4525  0.2759  0.1215
25325SOL     OW87952   1.922   3.617   7.445 -0.0531  0.4739  0.0610
25325SOL    HW187953   1.897   3.585   7.358 -0.4209  1.4003 -0.1839
25325SOL    HW287954   1.999   3.565   7.468 -1.1754 -1.2613  0.0930
25326SOL     OW87955   8.466   5.319  10.008  0.2421  0.5169 -0.6179
25326SOL    HW187956   8.429   5.327  10.096  1.7373 -0.6882  0.1735
25326SOL    HW287957   8.555   5.353  10.017  1.2448 -1.8616 -1.0194
25327SOL     OW87958   9.809   6.546   1.735  0.2476  0.1380 -0.3798
25327SOL    HW187959   9.876   6.484   1.704 -1.6385 -1.6027 -1.1668
25327SOL    HW287960   9.731   6.493   1.748 -1.3021  2.2771 -0.4320
25328SOL     OW87961   1.733   4.724   1.432 -0.0492 -0.6707  0.4897
25328SOL    HW187962   1.792   4.732   1.358 -1.2224  0.9015 -0.3285
25328SOL    HW287963   1.656   4.678   1.398  0.1424 -1.5436  1.2019
25329SOL     OW87964   3.772   1.065   9.502 -0.0825  0.3955 -0.0871
25329SOL    HW187965   3.828   1.098   9.432 -0.1785 -0.6904 -0.7169
25329SOL    HW287966   3.819   1.084   9.583  0.8651  0.1282 -0.5635
25330SOL     OW87967   0.182   5.567   4.284 -0.6637  0.7013  0.6025
25330SOL    HW187968   0.233   5.561   4.203 -0.8591  0.5713  0.4883
25330SOL    HW287969   0.113   5.501   4.274 -1.3893  1.4822  0.3739
25331SOL     OW87970   5.262  10.228   6.461  0.3358  0.3481  0.1592
25331SOL    HW187971   5.193  10.276   6.415 -0.2264 -0.7383 -0.1759
25331SOL    HW287972   5.297  10.290   6.524 -0.5430  1.1136 -0.0849
25332SOL     OW87973   1.058   9.362   9.877  0.6173  0.7506 -0.1306
25332SOL    HW187974   1.000   9.286   9.867  0.6948  0.5430  0.8765
25332SOL    HW287975   1.038   9.417   9.802  0.6695 -0.3379 -0.9764
25333SOL     OW87976   7.418   5.293   0.573 -0.0143  0.2998  0.3709
25333SOL    HW187977   7.359   5.218   0.568 -1.3141  1.2363  1.1815
25333SOL    HW287978   7.504   5.257   0.551 -0.7312 -1.2638 -0.0094
25334SOL     OW87979   1.431   3.556   4.794 -0.6058  0.5595  0.1992
25334SOL    HW187980   1.373   3.518   4.860 -3.4647  0.8837 -1.9205
25334SOL    HW287981   1.373   3.578   4.721  2.2246  1.0123 -2.1035
25335SOL     OW87982   6.955   9.649   1.399  0.8837  0.2415 -0.9406
25335SOL    HW187983   6.976   9.599   1.478  1.2622 -0.8138 -1.6771
25335SOL    HW287984   6.862   9.669   1.408  0.7034 -0.6705 -0.6381
25336SOL     OW87985   5.393   4.642   3.026  0.6102 -0.3644 -0.1264
25336SOL    HW187986   5.411   4.564   2.974 -0.6663 -0.1296 -0.9517
25336SOL    HW287987   5.376   4.711   2.962  0.5265  0.3105  0.6026
25337SOL     OW87988   4.693   7.977   6.978 -0.0476  0.1544 -0.3825
25337SOL    HW187989   4.598   7.978   6.989 -0.2238  2.7768 -1.2897
25337SOL    HW287990   4.708   8.033   6.902  2.2470  0.0546 -0.0665
25338SOL     OW87991   7.288   7.122   5.848 -0.1271 -0.2877 -0.4587
25338SOL    HW187992   7.335   7.125   5.764  1.0751 -0.6475  0.1758
25338SOL    HW287993   7.336   7.183   5.904  0.8152 -2.0528  0.7839
25339SOL     OW87994   5.142   8.106   2.324  0.0813  0.1785 -0.6958
25339SOL    HW187995   5.085   8.172   2.364 -0.5724  0.8502 -2.5882
25339SOL    HW287996   5.228   8.147   2.322 -0.1600  0.6865 -1.1407
25340SOL     OW87997   0.312   8.046   7.581 -0.1984 -0.2964  0.1193
25340SOL    HW187998   0.301   7.952   7.598  2.6070 -0.7794 -0.3157
25340SOL    HW287999   0.375   8.076   7.646 -2.2029  1.7266  1.2790
25341SOL     OW88000   1.821   5.746   8.745  0.0301  0.0855 -0.1123
25341SOL    HW188001   1.726   5.748   8.757  0.1395  0.6157  0.7455
25341SOL    HW288002   1.857   5.744   8.834  0.8434  1.2812 -0.3913
25342SOL     OW88003   4.544   6.643   5.359 -0.1908 -0.3053  0.7856
25342SOL    HW188004   4.550   6.674   5.449  0.3581  0.8724  0.3576
25342SOL    HW288005   4.597   6.704   5.308 -1.5456 -0.1597 -0.5411
25343SOL     OW88006   0.396   4.935   0.742 -0.0171 -0.1566  0.0846
25343SOL    HW188007   0.322   4.991   0.717  0.7935  1.0269  0.2328
25343SOL    HW288008   0.403   4.871   0.670 -0.6460  0.2614 -0.3573
25344SOL     OW88009   3.810   3.798   8.934 -0.4663 -0.1946  0.9081
25344SOL    HW188010   3.818   3.745   9.013 -1.1826 -2.8196 -0.6733
25344SOL    HW288011   3.736   3.856   8.951 -0.9142 -1.0455  1.9530
25345SOL     OW88012   8.176   2.417   9.175  0.3506  0.0187 -1.2521
25345SOL    HW188013   8.268   2.440   9.190 -0.2006  2.0200 -0.7337
25345SOL    HW288014   8.170   2.326   9.204  1.9095  0.2189 -0.1626
25346SOL     OW88015   8.038   4.022   9.318 -0.1347 -0.6615 -0.3225
25346SOL    HW188016   8.018   3.936   9.356  0.8805 -1.7962 -2.2046
25346SOL    HW288017   7.956   4.050   9.278 -0.4452 -0.8170  0.2020
25347SOL     OW88018   1.968   4.051   6.342 -0.2606  0.1788 -0.3692
25347SOL    HW188019   1.936   4.084   6.426  1.0442  1.2186 -0.2425
25347SOL    HW288020   1.998   4.129   6.295 -0.4083 -0.4553 -1.5552
25348SOL     OW88021   1.437   0.279   1.852  0.2264 -0.8346  0.7186
25348SOL    HW188022   1.376   0.242   1.788 -0.5844 -2.1854  2.1893
25348SOL    HW288023   1.437   0.373   1.833  0.2880 -1.2135 -1.4472
25349SOL     OW88024   0.459   0.922   2.301 -0.2867 -0.0678 -0.0781
25349SOL    HW188025   0.500   0.990   2.355  0.4942 -0.5667 -0.0264
25349SOL    HW288026   0.469   0.954   2.211 -0.8806  0.3919  0.0198
25350SOL     OW88027   3.424   6.689   5.771  0.4332  0.2031 -0.7877
25350SOL    HW188028   3.397   6.781   5.771  1.1913  0.4493  0.5282
25350SOL    HW288029   3.344   6.640   5.788  0.1704  0.6926 -0.6073
25351SOL     OW88030   9.074   7.750   2.829  0.6980  0.5458  0.3873
25351SOL    HW188031   8.980   7.763   2.819  0.8561  0.8572 -0.8292
25351SOL    HW288032   9.092   7.672   2.777  1.0881  0.3762  0.7753
25352SOL     OW88033   9.362   4.222   3.233 -0.0410  0.6127 -0.1991
25352SOL    HW188034   9.362   4.188   3.144 -1.4796 -1.5186  0.5388
25352SOL    HW288035   9.453   4.216   3.261  0.2940  0.5849 -1.2438
25353SOL     OW88036   0.440   7.035   5.394 -0.1678 -0.2235 -0.0500
25353SOL    HW188037   0.515   7.065   5.445 -0.9866  1.7000  0.1116
25353SOL    HW288038   0.444   6.939   5.400  1.1569 -0.1242  1.5597
25354SOL     OW88039   7.259   2.610   7.204  0.4822 -0.3289 -0.2731
25354SOL    HW188040   7.315   2.532   7.206  0.7151 -0.1622 -0.1304
25354SOL    HW288041   7.262   2.640   7.114  0.6811 -0.2834 -0.2530
25355SOL     OW88042   9.360   8.777   9.747 -0.2745  0.1516 -0.2740
25355SOL    HW188043   9.391   8.726   9.822 -1.3986  0.2052  0.2560
25355SOL    HW288044   9.267   8.792   9.766  0.6401  5.6161  1.5185
25356SOL     OW88045  10.179   5.019   1.298  0.1143  0.5428 -0.4502
25356SOL    HW188046  10.263   4.974   1.307 -0.1350 -0.3512 -2.1901
25356SOL    HW288047  10.203   5.107   1.269  0.4645  0.1976 -1.2541
25357SOL     OW88048   3.922   9.679   5.299 -0.6260  0.4491  0.2564
25357SOL    HW188049   3.989   9.719   5.243 -0.8472 -0.3254 -0.5926
25357SOL    HW288050   3.922   9.732   5.378  0.1873  1.1575 -0.1985
25358SOL     OW88051   0.273   7.034   6.581 -0.3912  0.2217 -0.4928
25358SOL    HW188052   0.316   6.949   6.574  0.2509  0.5874 -1.1655
25358SOL    HW288053   0.344   7.098   6.582 -0.8808  0.7973 -0.9424
25359SOL     OW88054   3.284   5.471   9.720  0.5590  0.3230 -0.5176
25359SOL    HW188055   3.275   5.561   9.752 -0.9301 -0.3219  1.0546
25359SOL    HW288056   3.371   5.444   9.748 -0.0401  0.3750  1.5984
25360SOL     OW88057   5.413   6.365   8.872 -0.1237 -0.2765  0.3963
25360SOL    HW188058   5.426   6.348   8.965 -2.2723  1.7112  1.1668
25360SOL    HW288059   5.318   6.376   8.862  0.2662  2.8939 -1.2896
25361SOL     OW88060   4.346   8.254   6.930  0.2914  0.3611  0.2300
25361SOL    HW188061   4.299   8.295   6.857  0.5651  0.5492  0.1525
25361SOL    HW288062   4.302   8.286   7.009 -1.5489 -1.7396  0.1353
25362SOL     OW88063   6.017   3.328   1.416  0.0219 -0.8748  0.2632
25362SOL    HW188064   6.064   3.388   1.474  0.9705 -0.9945 -0.3456
25362SOL    HW288065   5.967   3.384   1.357  0.1318 -0.7130  0.3256
25363SOL     OW88066   6.942   2.358   5.655  0.1206 -0.8379 -0.3236
25363SOL    HW188067   7.011   2.420   5.678 -1.2222  1.0938 -1.2607
25363SOL    HW288068   6.880   2.362   5.728  0.1340 -1.2602 -0.2851
25364SOL     OW88069   7.018   4.027   2.707  0.2301 -0.3176 -0.2790
25364SOL    HW188070   7.079   4.084   2.660 -0.6051 -0.0797 -1.1020
25364SOL    HW288071   6.933   4.069   2.695 -0.9355 -3.1436 -3.3417
25365SOL     OW88072   1.663   4.248   9.733 -0.2751 -0.1394  0.7522
25365SOL    HW188073   1.621   4.301   9.800 -0.3128  1.0884 -0.2172
25365SOL    HW288074   1.723   4.308   9.689 -0.5110 -0.8264 -0.5481
25366SOL     OW88075   5.909   1.472   7.141  0.2059  0.4024  0.1099
25366SOL    HW188076   5.935   1.389   7.182  0.8129  0.2582 -0.5371
25366SOL    HW288077   5.936   1.539   7.203 -0.6249  0.1041  0.8097
25367SOL     OW88078   1.119   8.090   4.809  0.2113 -0.2155  0.3533
25367SOL    HW188079   1.105   7.996   4.820 -1.4586 -0.3127 -1.7796
25367SOL    HW288080   1.031   8.127   4.812  0.5849  0.9247 -1.2792
25368SOL     OW88081  10.330   1.265   3.460  0.4038 -0.3918  0.5644
25368SOL    HW188082  10.235   1.259   3.470  0.3828 -1.1182  0.0156
25368SOL    HW288083  10.348   1.221   3.376  1.3608 -1.4656  1.3057
25369SOL     OW88084   2.209   4.256   5.215 -0.1356  0.2667 -0.1678
25369SOL    HW188085   2.181   4.347   5.219 -0.6943  0.1976 -1.6707
25369SOL    HW288086   2.128   4.206   5.219  0.1851 -0.1980  0.8848
25370SOL     OW88087   6.786   1.418  10.359 -0.2266 -0.3573  0.1677
25370SOL    HW188088   6.724   1.489  10.343 -0.0866 -0.0513  0.9483
25370SOL    HW288089   6.744   1.341  10.320 -0.7094  0.0103 -0.0534
25371SOL     OW88090   1.823   8.101   3.070 -0.5223 -0.0168 -0.0918
25371SOL    HW188091   1.781   8.157   3.136 -1.4997  1.2581 -1.7287
25371SOL    HW288092   1.754   8.082   3.007  0.5122 -0.7810 -1.0344
25372SOL     OW88093   8.457  10.067   6.371  0.1864 -0.3902 -0.2060
25372SOL    HW188094   8.370  10.053   6.409 -0.4730 -2.0126 -2.1150
25372SOL    HW288095   8.448  10.147   6.321 -0.2440 -0.5766 -0.4389
25373SOL     OW88096   2.629   9.444   4.410 -0.0938  0.3250  0.3032
25373SOL    HW188097   2.724   9.454   4.418  0.0684  1.2034 -2.0402
25373SOL    HW288098   2.613   9.438   4.316 -2.1589 -2.4205  0.7034
25374SOL     OW88099   0.543   8.547   0.576 -0.4921  0.5991 -0.5815
25374SOL    HW188100   0.616   8.591   0.532  0.3154 -0.8498 -0.7495
25374SOL    HW288101   0.544   8.458   0.542 -2.4950  0.5773 -0.7554
25375SOL     OW88102   2.502   0.836   9.693  0.2063  0.1311 -0.5560
25375SOL    HW188103   2.549   0.797   9.767  0.2843 -0.5975 -0.9893
25375SOL    HW288104   2.410   0.821   9.714  0.2495 -0.7063 -0.9465
25376SOL     OW88105   9.282   4.028   8.849 -0.2113 -0.9681 -0.2936
25376SOL    HW188106   9.310   3.970   8.779  0.1937  0.8143 -1.6711
25376SOL    HW288107   9.204   3.987   8.885  0.3076 -2.5612 -0.9061
25377SOL     OW88108   5.144   2.244   0.869  0.1497  0.3220 -0.8173
25377SOL    HW188109   5.217   2.262   0.810  1.1575  1.9559  0.8024
25377SOL    HW288110   5.181   2.253   0.957 -1.6659 -0.3241  0.0714
25378SOL     OW88111   8.076   0.459   9.431  0.2390  0.0651  0.4027
25378SOL    HW188112   7.987   0.461   9.396 -0.2531  0.0234  1.6090
25378SOL    HW288113   8.083   0.374   9.474  0.7591  0.1910  0.5749
25379SOL     OW88114   0.993   0.664   0.483  0.4895  0.8440 -0.5546
25379SOL    HW188115   1.060   0.685   0.418  1.5058 -0.7090 -0.0534
25379SOL    HW288116   0.962   0.577   0.458 -1.0348  1.3279 -0.4936
25380SOL     OW88117   8.966   6.696   2.478  0.0423  0.3064  0.0763
25380SOL    HW188118   8.905   6.627   2.506  1.0219 -0.2452  0.9205
25380SOL    HW288119   9.045   6.680   2.529  2.2531 -1.1601 -3.4031
25381SOL     OW88120   2.821   4.357   6.886 -0.1338  0.0865 -0.7398
25381SOL    HW188121   2.727   4.373   6.887  0.0036  1.8636  3.5439
25381SOL    HW288122   2.829   4.262   6.892 -1.5691 -0.1299 -1.7301
25382SOL     OW88123   8.105   2.824   3.799 -0.3025 -0.1640  0.3257
25382SOL    HW188124   8.185   2.777   3.778 -1.1810 -2.3901  1.6832
25382SOL    HW288125   8.037   2.757   3.805 -1.9698  1.4529  0.7982
25383SOL     OW88126   6.748   6.573   5.363  0.1599  0.4931 -0.0255
25383SOL    HW188127   6.674   6.539   5.415 -0.0406 -1.0241 -1.2344
25383SOL    HW288128   6.816   6.591   5.428 -0.5209 -0.1275  0.8973
25384SOL     OW88129   2.482   9.217   0.277 -0.1369  0.2645  0.3405
25384SOL    HW188130   2.564   9.227   0.325  0.2519 -0.3510 -0.1801
25384SOL    HW288131   2.507   9.227   0.185 -0.6292 -0.0412  0.1731
25385SOL     OW88132   2.027   1.587   3.469 -0.2109  0.0065 -0.6598
25385SOL    HW188133   1.950   1.622   3.514 -1.0543 -0.9881 -1.3140
25385SOL    HW288134   2.050   1.655   3.406  0.0097  0.7015  0.1408
25386SOL     OW88135   2.008   7.323   6.955  0.3584  0.4013 -0.4137
25386SOL    HW188136   1.974   7.323   7.044  0.1896 -0.7239 -0.4646
25386SOL    HW288137   2.023   7.231   6.935 -0.6933  0.5153 -1.9522
25387SOL     OW88138   0.936   7.651   7.017 -0.2422  0.7894  0.7020
25387SOL    HW188139   0.920   7.612   6.932 -0.2093 -0.1636  1.1206
25387SOL    HW288140   1.019   7.697   7.008 -0.6483  1.4038 -0.0089
25388SOL     OW88141   5.591   1.261  10.208 -0.2991  0.2120  0.1960
25388SOL    HW188142   5.508   1.265  10.160  0.1571  0.0366 -0.6331
25388SOL    HW288143   5.567   1.277  10.299 -1.3038 -0.3219  0.0375
25389SOL     OW88144   7.468   4.938   8.508  0.4288  0.5876 -0.3290
25389SOL    HW188145   7.462   4.882   8.585 -1.7622  1.6500  0.3430
25389SOL    HW288146   7.450   5.026   8.540  2.0256  1.4657 -1.6611
25390SOL     OW88147   8.049   1.944   1.319  0.4572  0.3979  0.1826
25390SOL    HW188148   8.071   1.897   1.399 -2.1342 -0.2921  0.5910
25390SOL    HW288149   8.020   1.876   1.258  0.5122  1.0990 -0.6576
25391SOL     OW88150   5.031   1.719   7.655 -0.5753 -0.0458 -0.0188
25391SOL    HW188151   4.938   1.716   7.676 -0.6965  0.6396 -0.4440
25391SOL    HW288152   5.074   1.683   7.733 -1.0762  1.4325  0.9843
25392SOL     OW88153   4.251   7.787   8.139 -0.0138 -0.5368  0.1208
25392SOL    HW188154   4.212   7.818   8.057 -2.0493 -0.1737  1.1595
25392SOL    HW288155   4.340   7.821   8.138 -0.9169  1.9951 -0.6018
25393SOL     OW88156   1.525   8.500   4.741  0.0170 -0.2108 -0.8390
25393SOL    HW188157   1.595   8.566   4.744  1.3742 -1.6219  0.6401
25393SOL    HW288158   1.506   8.482   4.833  0.1145 -2.2890 -1.1847
25394SOL     OW88159   4.051   0.319   8.046  0.6828 -0.0534 -0.4146
25394SOL    HW188160   4.072   0.239   7.997  2.6962 -0.4522  0.9827
25394SOL    HW288161   4.132   0.370   8.045 -0.0806  1.2208  0.1460
25395SOL     OW88162   3.552   0.648   8.364 -0.2040  0.4110  0.5776
25395SOL    HW188163   3.510   0.705   8.429  0.7431  1.2456  0.4832
25395SOL    HW288164   3.512   0.562   8.379 -1.3155  0.9812  1.0447
25396SOL     OW88165   8.436   6.824   4.874  0.1405  0.4114 -0.1482
25396SOL    HW188166   8.342   6.836   4.884  0.4257  1.5850  1.4797
25396SOL    HW288167   8.475   6.895   4.925  1.9166 -1.2788  0.9920
25397SOL     OW88168   4.496   7.548   7.551 -0.6447 -0.0067 -0.0648
25397SOL    HW188169   4.444   7.497   7.488 -0.4231  0.7820 -0.9148
25397SOL    HW288170   4.434   7.610   7.589 -0.5968  0.0959 -0.1524
25398SOL     OW88171   7.412   9.922   4.342  0.1788 -0.0070  0.5992
25398SOL    HW188172   7.438   9.937   4.433 -0.3857  0.8300  0.6363
25398SOL    HW288173   7.318   9.937   4.341  0.2063  0.1746 -0.1548
25399SOL     OW88174   4.678   3.725   6.170  0.5978 -0.1108 -0.3627
25399SOL    HW188175   4.636   3.639   6.177  2.0399 -0.7588  1.2353
25399SOL    HW288176   4.617   3.785   6.215 -0.8891 -0.0377 -2.3396
25400SOL     OW88177  10.118   8.136   1.637  0.5335  0.1394  0.3868
25400SOL    HW188178  10.084   8.182   1.560 -0.3256  0.3689  0.8936
25400SOL    HW288179  10.120   8.044   1.611 -1.2645  0.0067  0.5949
25401SOL     OW88180   8.651   6.161   8.591  0.6504 -0.5774  0.2348
25401SOL    HW188181   8.588   6.171   8.520  0.1425 -0.3122  0.7136
25401SOL    HW288182   8.691   6.075   8.575  0.2330 -0.7110 -0.1276
25402SOL     OW88183   6.872   0.080   1.291 -0.4772 -0.4028 -0.1282
25402SOL    HW188184   6.879   0.068   1.196  2.3366 -1.0337  0.0689
25402SOL    HW288185   6.784   0.113   1.305 -1.2504 -1.0753 -2.8815
25403SOL     OW88186   2.792   6.863   3.749  0.4352 -0.0469 -0.3716
25403SOL    HW188187   2.709   6.827   3.716  0.7661 -3.0718  1.6394
25403SOL    HW288188   2.839   6.891   3.671 -2.2647  1.4351 -1.6100
25404SOL     OW88189   0.616   9.329   3.185  0.1062 -0.5453 -0.3501
25404SOL    HW188190   0.636   9.415   3.148 -1.2024 -0.1712 -0.2416
25404SOL    HW288191   0.588   9.277   3.110  0.2099 -0.6665 -0.3052
25405SOL     OW88192   1.136   7.893   6.723 -0.1063  0.3271 -0.0619
25405SOL    HW188193   1.146   7.817   6.779 -0.8618  0.2678 -0.0050
25405SOL    HW288194   1.212   7.948   6.744 -0.0351  0.0061  0.5369
25406SOL     OW88195   5.029   4.937   6.319 -0.0646 -0.5640 -0.1077
25406SOL    HW188196   5.105   4.995   6.310 -0.3163  0.2052  2.2394
25406SOL    HW288197   5.066   4.850   6.331  0.3214 -1.0874 -3.8311
25407SOL     OW88198   0.150   7.059   5.435 -0.8009  0.0653  0.2305
25407SOL    HW188199   0.236   7.027   5.460 -1.4360 -0.0930  2.4480
25407SOL    HW288200   0.117   6.995   5.372  1.0948  0.7343 -1.5569
25408SOL     OW88201   8.613   5.945   4.546 -0.3129  0.1096  0.0103
25408SOL    HW188202   8.589   5.891   4.621  1.2256 -1.0659 -0.2905
25408SOL    HW288203   8.708   5.954   4.553 -0.2177  0.4710 -1.4700
25409SOL     OW88204   0.314   2.233   7.285  0.3445  0.2126  0.2270
25409SOL    HW188205   0.305   2.162   7.349  2.4847  0.9955  1.4805
25409SOL    HW288206   0.346   2.190   7.206 -0.8665 -0.5522  0.1263
25410SOL     OW88207   9.045   5.502   7.606  0.2950 -1.3311  0.1470
25410SOL    HW188208   9.032   5.442   7.533  1.0446 -1.9037  0.4746
25410SOL    HW288209   8.999   5.582   7.580  1.2176 -1.2416 -1.3164
25411SOL     OW88210   7.567   1.154   6.832  0.0295 -0.1043 -0.2580
25411SOL    HW188211   7.639   1.205   6.794 -1.1074  1.9638  0.2055
25411SOL    HW288212   7.522   1.216   6.889 -1.7534 -1.5182 -0.0586
25412SOL     OW88213   9.326   2.519   4.637 -0.5596 -0.3046  0.2340
25412SOL    HW188214   9.417   2.489   4.630 -0.5617 -0.3341  0.3261
25412SOL    HW288215   9.294   2.477   4.717 -0.7488 -0.5367  0.0340
25413SOL     OW88216   9.053   3.291   0.240  0.1741  0.4411  0.0437
25413SOL    HW188217   9.118   3.349   0.199  0.9076 -0.8159 -0.6134
25413SOL    HW288218   9.104   3.237   0.301 -0.6534  1.1375  1.4128
25414SOL     OW88219   5.835   8.116   8.066  0.2457 -0.0645 -0.2937
25414SOL    HW188220   5.891   8.043   8.092  0.1806  0.0935  0.3029
25414SOL    HW288221   5.755   8.104   8.115  0.1197  0.2470 -0.4175
25415SOL     OW88222   0.899   6.493   5.487  0.0480  0.6830  0.0961
25415SOL    HW188223   0.844   6.569   5.466 -0.5576 -0.0357 -1.0498
25415SOL    HW288224   0.880   6.475   5.579 -0.6828  1.2110  0.0615
25416SOL     OW88225   4.314   2.964   9.693  0.1149 -0.2361 -0.1726
25416SOL    HW188226   4.260   2.890   9.721  1.8550 -1.5078  0.0154
25416SOL    HW288227   4.344   3.004   9.774  1.8821 -1.4407 -0.1701
25417SOL     OW88228  10.031   8.295   9.251  0.4811  0.4406  0.0034
25417SOL    HW188229  10.030   8.216   9.305 -0.1139  0.1618 -0.4049
25417SOL    HW288230   9.951   8.289   9.198  0.0854  1.6327  0.4211
25418SOL     OW88231   7.523   3.919   8.349 -0.7211 -0.1579  0.4477
25418SOL    HW188232   7.526   4.006   8.387 -0.8666 -1.3639  3.4555
25418SOL    HW288233   7.598   3.873   8.387  0.5929 -0.8675 -2.6286
25419SOL     OW88234   8.740   0.233   8.048  0.0998  0.1435  0.2330
25419SOL    HW188235   8.741   0.141   8.023 -0.0109  0.2690 -0.2389
25419SOL    HW288236   8.832   0.258   8.054  0.1287  0.0225  0.2926
25420SOL     OW88237   2.053   9.097   9.534  0.2811  0.1418 -0.4176
25420SOL    HW188238   1.967   9.063   9.510  0.1727  1.2809 -1.7713
25420SOL    HW288239   2.081   9.042   9.607 -1.2090 -0.8082 -0.5192
25421SOL     OW88240   8.810   4.450   5.960  0.7765  0.4738 -0.1373
25421SOL    HW188241   8.722   4.435   5.993  0.0910  0.5472 -1.8181
25421SOL    HW288242   8.830   4.540   5.985 -0.3219  1.0333 -1.1779
25422SOL     OW88243  10.279   5.222   0.321  0.5200 -0.1502 -0.5419
25422SOL    HW188244  10.190   5.231   0.354  0.9108 -1.8044  1.1100
25422SOL    HW288245  10.288   5.292   0.257 -2.7142 -1.2684 -2.4771
25423SOL     OW88246   7.670   4.645   8.837 -0.4298  0.2055  0.4588
25423SOL    HW188247   7.672   4.695   8.918  1.6453 -0.1310  0.6930
25423SOL    HW288248   7.731   4.573   8.853  0.4763  0.4510 -1.5763
25424SOL     OW88249   1.906   0.581   0.209 -0.3372  0.0115  0.2981
25424SOL    HW188250   1.876   0.513   0.269  2.3358  1.0989  3.1779
25424SOL    HW288251   1.978   0.540   0.161  1.8672  0.8401  2.6625
25425SOL     OW88252   9.294   8.835   3.424 -0.5997  0.3202 -0.3381
25425SOL    HW188253   9.224   8.799   3.479 -0.4260  0.5394  0.0345
25425SOL    HW288254   9.350   8.883   3.486 -0.0775  0.0807 -0.6186
25426SOL     OW88255   6.526   7.543   6.823 -0.1339 -0.3283  0.8351
25426SOL    HW188256   6.537   7.545   6.728 -2.1584 -2.2998  0.4572
25426SOL    HW288257   6.527   7.635   6.849 -0.3730  0.3083 -1.2221
25427SOL     OW88258   7.710   7.594   9.770 -0.5796 -0.0125  0.1202
25427SOL    HW188259   7.721   7.548   9.687  0.4507  0.8468 -0.2544
25427SOL    HW288260   7.729   7.686   9.749  2.0731 -0.0954  1.7088
25428SOL     OW88261   2.619   8.367   9.530 -0.0542 -0.1996  0.0035
25428SOL    HW188262   2.632   8.273   9.516  1.5034 -0.3595  1.9894
25428SOL    HW288263   2.604   8.403   9.442  0.9925 -2.0658 -1.0042
25429SOL     OW88264   7.784   9.412   6.342 -0.5955 -0.2560 -0.5446
25429SOL    HW188265   7.777   9.463   6.422 -0.7620 -1.0195 -0.0656
25429SOL    HW288266   7.713   9.348   6.348 -2.5528  1.5089 -2.6757
25430SOL     OW88267   8.102   8.125   8.480  0.0306  0.0133  0.2539
25430SOL    HW188268   8.107   8.035   8.447  1.7792 -0.5762  1.9227
25430SOL    HW288269   8.192   8.156   8.476 -0.7762  2.3835 -1.9031
25431SOL     OW88270   1.535   3.400   5.039  0.2105  0.2310  0.0008
25431SOL    HW188271   1.631   3.394   5.035  0.2696 -0.6247  1.7759
25431SOL    HW288272   1.517   3.493   5.046  1.0894  0.3142  1.9050
25432SOL     OW88273   7.383   6.159   4.687 -0.3082  0.1530  0.2056
25432SOL    HW188274   7.321   6.102   4.641  2.9528 -2.4395 -1.3689
25432SOL    HW288275   7.437   6.100   4.739 -0.1513  2.4652  2.9477
25433SOL     OW88276   9.557   0.147   8.911 -0.5114 -0.0542  0.1790
25433SOL    HW188277   9.489   0.212   8.928  1.2052  1.8782  0.1141
25433SOL    HW288278   9.638   0.189   8.939  0.6918 -2.2562  0.2389
25434SOL     OW88279   9.452   7.356   9.592  0.0163 -0.0631 -0.0303
25434SOL    HW188280   9.364   7.349   9.554  0.5818 -1.4363 -1.1691
25434SOL    HW288281   9.491   7.432   9.548 -0.0011 -0.5164 -0.8559
25435SOL     OW88282   1.761   1.301   8.982  0.0643 -0.1682 -0.0880
25435SOL    HW188283   1.711   1.358   8.923 -0.2233  0.7384  0.9918
25435SOL    HW288284   1.822   1.256   8.924 -0.5062  0.3484 -1.1449
25436SOL     OW88285   2.603   1.362   0.378 -0.0298 -0.1180 -0.3073
25436SOL    HW188286   2.538   1.292   0.386  0.4177 -0.6355 -1.0022
25436SOL    HW288287   2.682   1.327   0.419  0.1358  0.0526 -0.4739
25437SOL     OW88288   8.986   7.415   4.807 -0.3765 -0.3196 -0.2881
25437SOL    HW188289   9.017   7.392   4.894 -0.9831 -0.1886 -0.0314
25437SOL    HW288290   8.891   7.422   4.816 -0.3302  1.1072 -0.6138
25438SOL     OW88291   2.458  10.047   5.116 -0.3871  0.4088 -0.1559
25438SOL    HW188292   2.493  10.015   5.199 -2.9563  0.7746  1.1731
25438SOL    HW288293   2.379  10.095   5.141  0.5879  3.5330 -2.5059
25439SOL     OW88294   9.480   4.330   6.480 -0.0083  0.4876  0.0803
25439SOL    HW188295   9.507   4.388   6.552  2.8782 -0.5596 -0.0184
25439SOL    HW288296   9.524   4.365   6.403  0.6361 -0.9982 -0.2565
25440SOL     OW88297   4.347   0.692   1.189 -0.0738 -0.6494  0.3061
25440SOL    HW188298   4.264   0.710   1.145 -0.1841 -1.3656  0.2117
25440SOL    HW288299   4.381   0.778   1.213  0.2317 -0.1938 -1.6200
25441SOL     OW88300   7.530   4.010   7.718 -0.2992  0.6194 -0.3595
25441SOL    HW188301   7.624   4.025   7.716 -0.3477  0.8722 -1.2970
25441SOL    HW288302   7.521   3.921   7.752  0.2060  1.0073  0.8575
25442SOL     OW88303   2.538   7.819   7.500  0.1221  0.0829  0.2381
25442SOL    HW188304   2.589   7.746   7.467  0.6245  1.1235 -1.4003
25442SOL    HW288305   2.598   7.894   7.499  0.3947  0.1726  4.1743
25443SOL     OW88306   7.712   8.771   2.699  0.1356 -0.2667  0.3336
25443SOL    HW188307   7.649   8.839   2.722 -0.8995 -1.6132  1.7356
25443SOL    HW288308   7.712   8.770   2.603 -0.9900  0.6750  0.3029
25444SOL     OW88309   2.435   5.914   3.219  0.2617 -0.3269 -0.1535
25444SOL    HW188310   2.451   5.854   3.292 -1.2598  2.1906  2.4769
25444SOL    HW288311   2.516   5.965   3.213 -0.1917  0.5644  0.9778
25445SOL     OW88312   0.799  10.075  10.295 -0.1310  0.2099 -0.0118
25445SOL    HW188313   0.853  10.041  10.367 -1.4108 -0.6901  0.5709
25445SOL    HW288314   0.824  10.022  10.219  1.7901  1.6874 -0.4593
25446SOL     OW88315   9.316   5.738   2.818  0.5257 -0.2170 -0.7635
25446SOL    HW188316   9.266   5.791   2.756  0.1354 -0.2551 -0.4908
25446SOL    HW288317   9.367   5.678   2.764  4.2652  3.1048 -1.3719
25447SOL     OW88318   3.254   4.635   7.374  0.3929  0.4484 -0.5550
25447SOL    HW188319   3.302   4.599   7.299 -0.7220  0.0583 -1.0916
25447SOL    HW288320   3.288   4.587   7.450  1.1885  0.5154 -0.8634
25448SOL     OW88321   6.917   4.487   7.040  0.1826 -0.2309  0.3909
25448SOL    HW188322   6.847   4.454   6.984 -1.5262  1.5837  1.3178
25448SOL    HW288323   6.980   4.527   6.980 -1.3985  1.3083 -0.3237
25449SOL     OW88324   3.011   3.911   0.519  0.8141  0.3793 -0.4039
25449SOL    HW188325   2.972   3.990   0.557 -0.0488  0.2329 -0.9445
25449SOL    HW288326   2.960   3.839   0.557  1.9084  0.0401  0.4573
25450SOL     OW88327   0.796   6.559   2.672 -0.4133 -0.3659 -0.0893
25450SOL    HW188328   0.745   6.577   2.593 -2.0922  0.8918  1.1928
25450SOL    HW288329   0.842   6.477   2.653 -0.3519  0.1518 -2.5203
25451SOL     OW88330   3.402   6.031   7.710 -0.1794  0.0883  0.3250
25451SOL    HW188331   3.484   6.052   7.754  0.5526 -0.1885 -0.8480
25451SOL    HW288332   3.383   6.109   7.657 -0.2653 -0.1335  0.0240
25452SOL     OW88333   3.700   6.807   7.725  0.3656 -0.1582 -0.0707
25452SOL    HW188334   3.725   6.820   7.634 -0.1253  3.2011  0.1315
25452SOL    HW288335   3.765   6.857   7.775 -0.9490  0.3789  1.1854
25453SOL     OW88336   0.673   2.491   0.735 -0.0264  0.4785  0.5475
25453SOL    HW188337   0.653   2.437   0.811 -1.7743 -0.4781 -0.5143
25453SOL    HW288338   0.602   2.556   0.733 -0.4208  0.0419 -0.6311
25454SOL     OW88339   9.208   3.773   6.677 -0.0369 -0.3677  0.1015
25454SOL    HW188340   9.284   3.729   6.638 -0.1382 -1.0568  0.6643
25454SOL    HW288341   9.238   3.862   6.694  0.7399 -0.7046  0.5669
25455SOL     OW88342   3.417   2.042   3.398  0.3287  0.2253  0.1680
25455SOL    HW188343   3.415   2.135   3.419  2.7284  0.1161  1.2089
25455SOL    HW288344   3.334   2.008   3.431 -0.3685  1.9029  0.2055
25456SOL     OW88345   8.389   2.311   1.893 -0.2456  0.1281  0.2559
25456SOL    HW188346   8.417   2.228   1.933  0.1260  0.8879  1.6486
25456SOL    HW288347   8.463   2.338   1.840  0.1212  0.1676  0.7793
25457SOL     OW88348   2.712   0.893   6.434 -0.5661 -0.2491  0.3447
25457SOL    HW188349   2.630   0.857   6.399  0.5464 -1.2527 -1.3524
25457SOL    HW288350   2.776   0.823   6.421  0.4070  0.1467  2.5018
25458SOL     OW88351   2.004   3.353   3.574  0.7438  0.4260 -0.4715
25458SOL    HW188352   1.956   3.272   3.560 -0.4201  1.0994 -0.4429
25458SOL    HW288353   1.937   3.418   3.596  1.7213  1.2476  0.1747
25459SOL     OW88354   3.779   9.870   2.618  0.2072 -0.0900  0.5982
25459SOL    HW188355   3.845   9.929   2.654 -0.5935 -0.0416  2.0594
25459SOL    HW288356   3.824   9.787   2.608  1.1341  0.5409 -0.7407
25460SOL     OW88357   3.336   2.160   8.896  0.2465 -0.1634  0.0215
25460SOL    HW188358   3.306   2.094   8.959  1.8137 -1.0703 -0.1325
25460SOL    HW288359   3.383   2.224   8.949  1.1750 -0.6872 -0.1567
25461SOL     OW88360   9.106   7.964   2.436  0.1110  0.2881 -0.4156
25461SOL    HW188361   9.047   7.962   2.360 -0.3681 -0.1799 -0.0404
25461SOL    HW288362   9.151   8.048   2.429 -1.8312  1.4424  0.1956
25462SOL     OW88363   7.390   1.761   5.433 -0.6137 -0.0246 -0.3400
25462SOL    HW188364   7.474   1.733   5.397  0.2313  2.1850 -0.2293
25462SOL    HW288365   7.397   1.857   5.438 -3.0846  0.1962 -0.1755
25463SOL     OW88366   3.140   0.626   4.219 -0.1686  0.4544  0.1509
25463SOL    HW188367   3.207   0.599   4.283 -0.7188 -1.2714  0.0602
25463SOL    HW288368   3.112   0.544   4.179  0.0269  1.4681 -2.2092
25464SOL     OW88369   8.535   1.900   9.919 -0.0162 -0.4093  0.6381
25464SOL    HW188370   8.600   1.830   9.916 -1.7363 -2.0683  0.3593
25464SOL    HW288371   8.582   1.977   9.886  1.1366 -2.1026 -2.0428
25465SOL     OW88372   1.670   7.001   2.695 -0.3741  0.1499  0.3363
25465SOL    HW188373   1.636   7.009   2.784 -0.2550  1.3350  0.2916
25465SOL    HW288374   1.702   7.088   2.673 -3.1143  0.7376 -1.9527
25466SOL     OW88375   2.160  10.015   4.801 -0.3106  0.3288 -0.2625
25466SOL    HW188376   2.129   9.933   4.762 -0.6175  0.6242 -0.6501
25466SOL    HW288377   2.110  10.023   4.882 -1.1242  0.7018 -0.7851
25467SOL     OW88378   1.458   6.234   1.812 -0.4990 -0.0010 -0.0317
25467SOL    HW188379   1.521   6.287   1.861 -1.7024  0.8003  0.6927
25467SOL    HW288380   1.375   6.281   1.821 -1.3095 -1.2927 -0.5333
25468SOL     OW88381   9.974   0.931   1.092 -0.5203  0.0110 -0.2984
25468SOL    HW188382   9.953   1.021   1.119 -0.2666 -0.1609  0.4782
25468SOL    HW288383  10.006   0.940   1.002  2.7708  1.1570  0.8315
25469SOL     OW88384   9.678   1.065   0.968 -0.4132 -0.3344  0.5954
25469SOL    HW188385   9.699   0.981   0.928  0.1063 -0.4897  1.1820
25469SOL    HW288386   9.762   1.111   0.973 -0.8865  0.8055 -0.9909
25470SOL     OW88387   3.657   0.076   6.292 -0.1403  0.0164  0.2252
25470SOL    HW188388   3.650   0.149   6.355  2.8504  1.1614 -0.5976
25470SOL    HW288389   3.706   0.009   6.339 -1.9900 -1.1334  0.6182
25471SOL     OW88390   1.765   6.464  10.318 -0.2204 -0.0144 -0.1616
25471SOL    HW188391   1.791   6.438  10.407  0.0199 -1.3451 -0.6060
25471SOL    HW288392   1.762   6.383  10.269 -1.7818  0.5314 -1.0286
25472SOL     OW88393   1.490   4.879   1.256  0.1597 -0.4216 -0.1278
25472SOL    HW188394   1.482   4.811   1.190 -0.5752 -0.5795  0.1129
25472SOL    HW288395   1.513   4.958   1.207 -1.3192 -0.3139 -0.7113
25473SOL     OW88396  10.183   3.359   4.046  0.0739 -0.0680  0.0761
25473SOL    HW188397  10.240   3.317   3.982 -1.8413 -0.5713 -1.4116
25473SOL    HW288398  10.162   3.444   4.007  0.9019  0.7041  1.2736
25474SOL     OW88399  10.013   9.652   3.269 -0.2138 -0.2208 -0.2056
25474SOL    HW188400  10.065   9.658   3.189 -0.5628  1.6645 -0.3424
25474SOL    HW288401   9.922   9.664   3.240 -0.1688  3.2182  0.6389
25475SOL     OW88402   3.762   3.202   8.511 -0.6736  0.1309 -0.4439
25475SOL    HW188403   3.834   3.138   8.509 -0.1248  0.2103  4.5525
25475SOL    HW288404   3.806   3.286   8.525 -1.6274  0.4286  0.9142
25476SOL     OW88405   4.322   1.253   3.670  0.1728 -0.1105 -0.2693
25476SOL    HW188406   4.301   1.160   3.657 -0.5806  0.1436 -1.0352
25476SOL    HW288407   4.313   1.291   3.583  3.8537  0.0877 -0.6953
25477SOL     OW88408   2.183   3.216   7.928 -0.0664  0.6053 -0.8299
25477SOL    HW188409   2.196   3.283   7.861  0.4618 -0.9682 -2.3686
25477SOL    HW288410   2.097   3.178   7.909  0.1648  0.0232 -0.7341
25478SOL     OW88411   8.798   3.756   2.895  0.0125  0.3805  0.4852
25478SOL    HW188412   8.753   3.678   2.927 -0.6189  1.4249  2.2489
25478SOL    HW288413   8.890   3.729   2.891 -0.4849 -1.3018 -1.7079
25479SOL     OW88414   7.394   3.001   9.621  0.5449 -0.1214 -0.0834
25479SOL    HW188415   7.347   3.045   9.551  0.1345 -1.5641 -0.7635
25479SOL    HW288416   7.342   2.922   9.639  1.2153 -0.3182  1.0997
25480SOL     OW88417   0.218   5.733   8.564 -0.2825  0.0187  0.4035
25480SOL    HW188418   0.136   5.749   8.611  0.0434 -1.4250  1.5291
25480SOL    HW288419   0.211   5.643   8.531  1.7483 -1.0407  2.5659
25481SOL     OW88420   9.110   8.100   0.035  0.0945 -0.4628  0.4530
25481SOL    HW188421   9.151   8.162   0.094 -0.4606  1.0866 -0.7298
25481SOL    HW288422   9.063   8.039   0.093 -0.6287  1.1275  1.6121
25482SOL     OW88423   6.912   6.992   4.501  0.5603  0.1943 -0.4006
25482SOL    HW188424   6.991   7.037   4.529  0.6124 -0.9285  1.3865
25482SOL    HW288425   6.891   6.933   4.573 -0.9269 -0.7943 -1.5872
25483SOL     OW88426   7.309   0.094   9.962 -0.0502  0.2545 -0.5847
25483SOL    HW188427   7.234   0.145   9.990  0.6332  1.0280 -0.1260
25483SOL    HW288428   7.276   0.041   9.889 -1.0325  0.5720 -0.3818
25484SOL     OW88429   3.450   0.005   7.782  0.5544 -0.7956  0.0111
25484SOL    HW188430   3.527  -0.022   7.833  1.3041 -0.7657 -1.0632
25484SOL    HW288431   3.466   0.098   7.763 -0.8800 -0.1586  1.7208
25485SOL     OW88432   3.953   1.131   5.164  0.3042  0.6186 -0.4416
25485SOL    HW188433   3.952   1.100   5.255  2.3753  2.4272  0.2894
25485SOL    HW288434   3.885   1.198   5.161 -0.0653  0.2509 -0.3585
25486SOL     OW88435   6.190   1.251   1.509 -0.1632 -0.2341  0.2304
25486SOL    HW188436   6.265   1.259   1.568  1.1190 -2.3053 -1.0085
25486SOL    HW288437   6.157   1.162   1.523 -2.0043  0.3932  0.2385
25487SOL     OW88438   7.779   2.947   6.171  0.7329  0.2818  0.1892
25487SOL    HW188439   7.860   2.956   6.221 -0.1416  1.6550  1.4398
25487SOL    HW288440   7.713   2.992   6.224 -0.9322 -1.1002 -0.6181
25488SOL     OW88441   2.729   3.817   1.931 -0.2905 -0.5800  0.1165
25488SOL    HW188442   2.653   3.775   1.891 -1.6023  0.8250  1.0546
25488SOL    HW288443   2.695   3.861   2.008  1.5159 -0.0273  0.6566
25489SOL     OW88444   4.707   8.556   7.610  0.2005 -0.0386 -0.6158
25489SOL    HW188445   4.763   8.623   7.649 -0.4996 -0.6765  1.6283
25489SOL    HW288446   4.693   8.587   7.521  1.7174  1.6319 -0.3513
25490SOL     OW88447   6.440   9.457   4.254  0.7484 -0.2496 -0.0859
25490SOL    HW188448   6.377   9.395   4.290 -0.9817  1.2886 -0.2860
25490SOL    HW288449   6.443   9.528   4.319  1.3045  0.2709 -0.6684
25491SOL     OW88450   0.185   6.866   9.128 -0.4019  0.2168  0.3831
25491SOL    HW188451   0.250   6.798   9.144 -2.2382 -1.5898  0.5644
25491SOL    HW288452   0.236   6.942   9.099  1.6877 -1.4193 -0.4807
25492SOL     OW88453   7.935   1.113   9.269 -0.1272  0.4857 -0.1537
25492SOL    HW188454   7.914   1.031   9.314 -2.5976  2.0764  1.9408
25492SOL    HW288455   7.918   1.096   9.177  0.2036 -1.5536  0.1254
25493SOL     OW88456   3.970   6.299   5.408  0.1964 -0.3218 -0.1276
25493SOL    HW188457   4.008   6.229   5.461  2.1759  0.6783 -0.1385
25493SOL    HW288458   3.895   6.330   5.459  0.6519 -0.9443  0.9588
25494SOL     OW88459   9.837   0.294   0.730 -0.3842  0.6106 -0.0186
25494SOL    HW188460   9.857   0.286   0.636 -0.9271 -0.1931 -0.0764
25494SOL    HW288461   9.765   0.232   0.744  0.2533  0.1083  1.1015
25495SOL     OW88462   7.541   3.734   7.688  0.3240 -0.1887  0.5687
25495SOL    HW188463   7.623   3.739   7.737 -0.0622 -0.1596  1.2232
25495SOL    HW288464   7.562   3.680   7.612  0.2906 -2.5687  2.1317
25496SOL     OW88465   1.080   1.384   1.275  0.0382  0.2037  0.2012
25496SOL    HW188466   1.022   1.456   1.250 -2.0806 -1.8001 -1.0431
25496SOL    HW288467   1.038   1.305   1.240  4.4556 -1.3039 -2.4895
25497SOL     OW88468   2.711   4.827   4.078  0.2812 -0.3643  0.3409
25497SOL    HW188469   2.685   4.900   4.023  0.4058 -0.2925  0.3753
25497SOL    HW288470   2.802   4.810   4.054  0.0410 -0.9810 -0.1880
25498SOL     OW88471   7.089   1.281  10.334 -0.0044  0.4209 -0.3594
25498SOL    HW188472   7.037   1.285  10.254 -1.9295  1.6255  0.8642
25498SOL    HW288473   7.076   1.193  10.367  0.2546  0.1327 -1.0130
25499SOL     OW88474   2.808   9.985   1.575  0.8064 -0.4857 -0.0873
25499SOL    HW188475   2.782  10.056   1.516 -1.6620 -1.5364 -0.4150
25499SOL    HW288476   2.903   9.983   1.571  0.8534  1.5674 -1.5104
25500SOL     OW88477   3.312   7.817   0.123  0.0274  0.4506 -0.0343
25500SOL    HW188478   3.390   7.762   0.125 -0.5964 -0.4582  1.9526
25500SOL    HW288479   3.322   7.877   0.198 -0.9971  0.5556  0.0420
25501SOL     OW88480   8.364   3.242   4.229 -0.2854  0.0139 -0.0935
25501SOL    HW188481   8.284   3.229   4.279 -0.3779  1.3031  0.1423
25501SOL    HW288482   8.433   3.200   4.280 -0.4756  0.8042  0.8378
25502SOL     OW88483   5.686   8.360   1.698 -0.1992  0.1374  0.3177
25502SOL    HW188484   5.743   8.338   1.771 -1.2575 -0.4022  1.0024
25502SOL    HW288485   5.661   8.451   1.714  0.9154  0.5744 -0.3078
25503SOL     OW88486   9.381   4.255   1.772 -0.0676 -0.4778 -0.0972
25503SOL    HW188487   9.409   4.290   1.857 -1.0758 -0.6978  0.3312
25503SOL    HW288488   9.441   4.181   1.756  2.1360  1.4015 -1.0520
25504SOL     OW88489   7.344   8.373   4.702 -0.3825  0.4343  0.7493
25504SOL    HW188490   7.344   8.393   4.796  0.5064  1.3879  0.5669
25504SOL    HW288491   7.435   8.351   4.683 -0.3978  1.0566 -0.0579
25505SOL     OW88492   4.982   8.274   9.500  0.2109  0.1719 -0.2597
25505SOL    HW188493   5.031   8.199   9.467 -0.2517  0.3054 -1.2822
25505SOL    HW288494   5.037   8.310   9.569  0.7395 -0.7163 -0.2045
25506SOL     OW88495   7.642   0.705   4.492  0.1354  0.3569 -0.3641
25506SOL    HW188496   7.685   0.784   4.458 -1.2861  0.6636 -1.5396
25506SOL    HW288497   7.671   0.635   4.433 -0.7885  0.5249 -1.0263
25507SOL     OW88498   9.457   9.511   6.844 -0.1020 -0.8248  0.3070
25507SOL    HW188499   9.506   9.440   6.801  0.3107  0.3960 -1.3509
25507SOL    HW288500   9.379   9.521   6.791  1.0742  1.6576 -1.1368
25508SOL     OW88501  10.102   7.913   6.891  0.1332  0.0852  0.4926
25508SOL    HW188502  10.169   7.924   6.958  0.9248  2.3099 -0.5708
25508SOL    HW288503  10.144   7.942   6.810 -1.6143  0.0005 -0.4947
25509SOL     OW88504   8.986   5.265   9.504 -0.3327  0.5038  0.4476
25509SOL    HW188505   8.968   5.304   9.419  0.2678  0.2152  0.1754
25509SOL    HW288506   9.012   5.338   9.560  0.0897  0.5940  0.1419
25510SOL     OW88507   0.356   4.865  10.286 -0.8667  0.3199 -0.5920
25510SOL    HW188508   0.432   4.907  10.327 -0.7844 -0.1967 -0.1965
25510SOL    HW288509   0.301   4.838  10.359 -0.0387 -1.8989 -0.6893
25511SOL     OW88510   2.933   2.397   3.024 -0.5918 -0.4361  0.4138
25511SOL    HW188511   2.870   2.326   3.010 -1.6853  0.1443  2.0595
25511SOL    HW288512   2.893   2.451   3.092  0.0095  2.0199 -1.0709
25512SOL     OW88513   7.678   4.119   4.439  0.2231 -0.2392 -0.4510
25512SOL    HW188514   7.746   4.121   4.506 -1.9348  1.2475  1.9070
25512SOL    HW288515   7.710   4.176   4.370  1.7525 -0.3638  0.1177
25513SOL     OW88516   4.644   3.214   7.526  0.2561  0.6354 -0.5140
25513SOL    HW188517   4.687   3.180   7.605 -0.5857 -0.7653 -0.6194
25513SOL    HW288518   4.587   3.284   7.557  1.7902  1.8054 -0.2323
25514SOL     OW88519   2.597   2.556   0.037  0.2318 -0.2394  0.5497
25514SOL    HW188520   2.629   2.486   0.095 -1.8912 -1.6076  0.1844
25514SOL    HW288521   2.529   2.514  -0.016  1.8346  1.0315 -2.7926
25515SOL     OW88522   6.525   2.573   0.894  0.7117 -0.0734 -0.2933
25515SOL    HW188523   6.444   2.551   0.848  0.3276  0.1260  0.2790
25515SOL    HW288524   6.586   2.503   0.872  0.3103 -0.3423 -0.5447
25516SOL     OW88525   1.796   2.346   8.938 -0.0772  0.0767  0.3533
25516SOL    HW188526   1.854   2.294   8.994 -1.3335 -1.2626  0.4892
25516SOL    HW288527   1.758   2.411   8.997  0.1278 -0.0363  0.6139
25517SOL     OW88528   3.477   7.260   5.693  0.8643  0.2655 -0.0149
25517SOL    HW188529   3.557   7.307   5.668  1.4941 -0.8238 -0.1234
25517SOL    HW288530   3.482   7.177   5.644 -0.6314  0.4263 -0.4831
25518SOL     OW88531   7.996   0.006   5.335  0.3785  0.2318  0.2131
25518SOL    HW188532   8.008   0.098   5.360 -1.1423  0.5212  0.0130
25518SOL    HW288533   8.062  -0.010   5.268  0.0364  1.5010 -0.4658
25519SOL     OW88534   1.925   8.395   8.966 -0.0900  0.0206 -0.1857
25519SOL    HW188535   1.929   8.327   8.898 -0.4779 -0.9775  0.7658
25519SOL    HW288536   2.000   8.451   8.947 -1.2928  0.9799 -2.6591
25520SOL     OW88537   2.504   4.627   8.316 -0.2002 -0.2094  0.1615
25520SOL    HW188538   2.505   4.707   8.368 -1.0361 -0.2246  0.2084
25520SOL    HW288539   2.432   4.576   8.351  0.8616 -1.3881  0.7131
25521SOL     OW88540   9.571   6.168   4.578 -0.2511  0.5266 -0.5608
25521SOL    HW188541   9.588   6.164   4.484  0.4656  1.3007 -0.4820
25521SOL    HW288542   9.499   6.107   4.593  0.2390 -0.2966 -1.4658
25522SOL     OW88543   5.377   0.816   9.330 -0.0238  0.0454 -0.6211
25522SOL    HW188544   5.320   0.802   9.255 -0.6515  0.5845 -0.2603
25522SOL    HW288545   5.448   0.871   9.297 -0.5027  0.6023 -0.7405
25523SOL     OW88546   8.965   8.335   5.936 -0.4156  0.0261 -0.2129
25523SOL    HW188547   8.878   8.366   5.911 -0.1746  0.3467 -0.6606
25523SOL    HW288548   9.023   8.408   5.918 -0.1087 -0.0314  0.5005
25524SOL     OW88549   3.132   5.514   6.921  0.3159  0.0414 -0.2030
25524SOL    HW188550   3.069   5.582   6.944 -0.2085 -0.5274  0.0548
25524SOL    HW288551   3.109   5.488   6.832  1.0119  0.7388 -0.6082
25525SOL     OW88552   9.908   1.571   9.375  0.1854  0.1027 -0.3597
25525SOL    HW188553   9.881   1.661   9.394  2.6731  0.3557  2.9450
25525SOL    HW288554   9.846   1.516   9.423  0.3460  0.2441  0.0172
25526SOL     OW88555   3.761   8.795   7.262  0.3154  0.2323  0.3150
25526SOL    HW188556   3.687   8.846   7.296  0.7980  1.5612 -0.5445
25526SOL    HW288557   3.836   8.825   7.313  1.0841  2.3792 -1.8696
25527SOL     OW88558   8.492   2.696   8.111 -0.5754  0.1280 -0.3777
25527SOL    HW188559   8.448   2.629   8.162 -1.5427 -0.4370 -1.9156
25527SOL    HW288560   8.444   2.776   8.130  0.4108  0.4012  1.2402
25528SOL     OW88561   2.155   6.423   7.859  0.4535 -0.0902  0.0468
25528SOL    HW188562   2.124   6.372   7.784  0.7338 -0.1548 -0.0267
25528SOL    HW288563   2.146   6.514   7.831 -0.5488 -0.0748  0.3763
25529SOL     OW88564   8.182   2.017   7.832 -0.4462 -0.1074  0.0018
25529SOL    HW188565   8.272   2.008   7.803 -0.1078  0.3206  0.8705
25529SOL    HW288566   8.151   2.097   7.789  0.3202  0.9928  1.4251
25530SOL     OW88567   9.566   5.928   0.347 -0.4237 -0.3200 -0.0976
25530SOL    HW188568   9.500   5.971   0.292 -0.5488 -1.8018 -1.1844
25530SOL    HW288569   9.546   5.834   0.339 -0.1452 -0.6277  2.1394
25531SOL     OW88570   5.365   2.017   7.529 -0.4293 -0.0026  0.0377
25531SOL    HW188571   5.340   2.000   7.439  0.9027  1.7248 -0.7292
25531SOL    HW288572   5.458   1.994   7.532 -0.3944  0.2241  0.9005
25532SOL     OW88573   3.560   6.026   8.160  0.3630  0.1991  0.4855
25532SOL    HW188574   3.622   6.080   8.209  1.2960  0.7864 -1.2428
25532SOL    HW288575   3.556   6.067   8.073 -0.0397 -1.6465 -0.4261
25533SOL     OW88576   1.285   0.950   3.686 -0.4326 -0.2750  0.4156
25533SOL    HW188577   1.203   0.900   3.693 -0.0638 -0.8126  1.0420
25533SOL    HW288578   1.257   1.041   3.679 -1.0732 -0.2626  2.5448
25534SOL     OW88579   9.661   2.052   3.047 -0.1909  0.0107  0.1457
25534SOL    HW188580   9.580   2.018   3.007 -0.4875  1.2000 -0.3110
25534SOL    HW288581   9.641   2.143   3.066  0.7536  0.0731  0.8867
25535SOL     OW88582   9.849   7.779   5.111  0.0471  0.4553 -0.7362
25535SOL    HW188583   9.836   7.834   5.188 -0.5029 -0.7255  0.0537
25535SOL    HW288584   9.944   7.766   5.106  0.0085 -0.4332  0.4764
25536SOL     OW88585   3.529   2.240   7.470  0.5094  0.6603  0.3965
25536SOL    HW188586   3.460   2.301   7.445 -0.0965 -0.8136 -1.7606
25536SOL    HW288587   3.578   2.224   7.389  0.3148 -2.1020  0.7434
25537SOL     OW88588   5.395  10.102   9.656  0.0271 -0.2074  0.7593
25537SOL    HW188589   5.437  10.168   9.600 -0.2323 -0.3351  0.4147
25537SOL    HW288590   5.405  10.020   9.609  0.2258 -0.3974  1.1250
25538SOL     OW88591   7.679   6.975   4.080 -0.3740 -0.0182  0.5075
25538SOL    HW188592   7.698   6.969   3.987 -0.6590 -0.3210  0.4670
25538SOL    HW288593   7.584   6.989   4.085 -0.4685 -0.7016  0.7675
25539SOL     OW88594   0.772   0.570   3.207 -0.9484 -0.0514 -0.4868
25539SOL    HW188595   0.831   0.592   3.135 -0.4683 -1.0884 -0.4238
25539SOL    HW288596   0.772   0.474   3.210 -3.2787 -0.1318 -1.0085
25540SOL     OW88597   9.118   5.289   7.938 -0.1333  0.7682 -0.2316
25540SOL    HW188598   9.068   5.255   7.863 -0.6094  0.6658  0.1322
25540SOL    HW288599   9.203   5.245   7.930 -0.1930  0.7252 -0.6898
25541SOL     OW88600  10.326   3.221   4.689 -0.4718  0.3513 -0.2430
25541SOL    HW188601  10.342   3.299   4.743 -2.3356 -0.5702  1.8144
25541SOL    HW288602  10.247   3.241   4.640 -2.6980 -1.1010  2.4389
25542SOL     OW88603   0.289   9.991   3.089  0.1961 -0.1035  0.5739
25542SOL    HW188604   0.364   9.979   3.030 -0.4549  1.0876 -0.5601
25542SOL    HW288605   0.312  10.067   3.143  0.0233 -0.0467  0.5695
25543SOL     OW88606   6.635   9.842   8.476  0.6676  0.2374  0.3990
25543SOL    HW188607   6.697   9.838   8.548  0.5378  1.5852  0.6066
25543SOL    HW288608   6.645   9.758   8.431  2.0490  0.1067  0.9109
25544SOL     OW88609   2.517   7.078  10.366 -0.2632 -0.5242 -0.3928
25544SOL    HW188610   2.574   7.152  10.389  1.1487 -0.8612 -2.5768
25544SOL    HW288611   2.531   7.014  10.436 -0.3991  0.6538  0.7485
25545SOL     OW88612   0.194   9.335   5.711 -0.1962  0.2534  0.4279
25545SOL    HW188613   0.250   9.353   5.786 -0.9520  3.2082  0.4104
25545SOL    HW288614   0.254   9.315   5.639  0.6547  0.2975  1.1196
25546SOL     OW88615   4.932   1.680   0.478  0.1525  0.5476 -0.3905
25546SOL    HW188616   4.981   1.638   0.407 -0.7582 -0.5703 -0.3945
25546SOL    HW288617   4.927   1.613   0.546 -0.5629  0.9727 -0.0172
25547SOL     OW88618   7.957   6.888   5.904 -0.4948  0.0746  0.2503
25547SOL    HW188619   7.869   6.882   5.944 -0.3376 -1.8068  0.3770
25547SOL    HW288620   7.973   6.801   5.868  2.1941 -0.3058  2.1083
25548SOL     OW88621   3.251   0.134  10.231 -0.6605  0.1237  0.5561
25548SOL    HW188622   3.195   0.180  10.167  2.4055  0.5241 -2.1014
25548SOL    HW288623   3.267   0.049  10.191  1.2628  0.3407  0.8078
25549SOL     OW88624   2.910   7.255   8.356 -0.5169 -0.4359  0.0818
25549SOL    HW188625   2.873   7.327   8.407  1.3127 -0.8160  2.0663
25549SOL    HW288626   2.994   7.288   8.325 -0.7199 -0.9237 -1.0573
25550SOL     OW88627   0.467   4.578   0.761  0.1809  0.1346  0.3257
25550SOL    HW188628   0.510   4.502   0.799  0.3118  0.1424  0.1923
25550SOL    HW288629   0.523   4.652   0.784  0.4092  0.1037 -0.1206
25551SOL     OW88630  10.209   6.320   8.732  0.7057 -0.0457  0.4170
25551SOL    HW188631  10.217   6.376   8.654 -0.4819  0.6398  0.7622
25551SOL    HW288632  10.261   6.242   8.711 -1.2246 -0.8130 -1.9148
25552SOL     OW88633   0.317   8.105   3.719 -0.2960  0.0314 -0.1251
25552SOL    HW188634   0.284   8.053   3.792 -3.6944 -0.5938 -1.9130
25552SOL    HW288635   0.327   8.193   3.754 -1.9721 -0.2276  1.0798
25553SOL     OW88636   5.596   9.517   2.448  0.1196  0.1401 -0.0083
25553SOL    HW188637   5.533   9.586   2.467 -1.2848 -0.9743 -0.4064
25553SOL    HW288638   5.649   9.552   2.376 -0.0526  1.0935  0.3158
25554SOL     OW88639   2.821   2.491   0.946  0.7242  0.0133 -0.4627
25554SOL    HW188640   2.804   2.423   1.011 -1.0948  1.1555  0.3455
25554SOL    HW288641   2.913   2.513   0.958  1.0384 -1.4606  0.0503
25555SOL     OW88642   9.670   3.033   2.109 -0.0941 -0.1468 -0.2770
25555SOL    HW188643   9.676   3.024   2.014 -1.3565 -0.2235 -0.3653
25555SOL    HW288644   9.751   3.079   2.134 -0.3965  1.1667 -1.5571
25556SOL     OW88645   1.384   6.962   4.380 -0.1998  0.3133  0.7207
25556SOL    HW188646   1.431   6.910   4.445 -0.2746 -0.3275  0.2771
25556SOL    HW288647   1.309   6.998   4.428  0.4209  0.8907  1.2935
25557SOL     OW88648   2.561   1.862  10.325  0.2212  0.4921  0.3754
25557SOL    HW188649   2.468   1.859  10.305  0.0113 -0.3966  1.4408
25557SOL    HW288650   2.602   1.807  10.258 -0.0845  0.3086  0.3411
25558SOL     OW88651   8.541   8.480   9.642 -0.3208 -0.6079  0.6304
25558SOL    HW188652   8.627   8.514   9.615 -0.9126 -0.5063 -1.2487
25558SOL    HW288653   8.539   8.391   9.607 -1.3167 -0.3043 -0.1011
25559SOL     OW88654   6.245   1.592   1.547  0.3905 -0.5714 -0.1370
25559SOL    HW188655   6.284   1.509   1.574 -0.8912 -0.7179  1.3942
25559SOL    HW288656   6.208   1.574   1.460  2.8494 -0.6525 -1.2612
25560SOL     OW88657   8.033   8.675   8.006 -0.6790  0.5759 -0.0756
25560SOL    HW188658   8.062   8.703   7.919 -1.5389  1.0325 -0.2339
25560SOL    HW288659   8.069   8.741   8.066  0.2135  0.0633 -0.0318
25561SOL     OW88660   3.666   3.532   1.187 -0.5436 -0.0442  0.2867
25561SOL    HW188661   3.645   3.528   1.094  0.8635 -2.3026 -0.0073
25561SOL    HW288662   3.728   3.604   1.195  1.0122 -1.1469 -0.9760
25562SOL     OW88663   4.056   9.504   8.578 -0.0129 -0.1997 -0.4080
25562SOL    HW188664   3.961   9.506   8.593 -0.4465  0.5138 -2.8241
25562SOL    HW288665   4.091   9.565   8.644 -1.3072  0.1135  0.0381
25563SOL     OW88666   5.632   9.928   5.577  0.5655  0.1685  0.5040
25563SOL    HW188667   5.547   9.885   5.586  0.2799  0.1117 -1.8621
25563SOL    HW288668   5.687   9.886   5.643 -0.8437 -0.8502  1.0832
25564SOL     OW88669   3.719   4.746   1.162  0.2081 -0.1970 -0.0445
25564SOL    HW188670   3.700   4.823   1.217 -1.7530 -0.6998  0.0545
25564SOL    HW288671   3.660   4.679   1.195  0.5291 -1.1682 -1.3922
25565SOL     OW88672   9.940  10.271   4.371  0.3557 -0.5654 -0.6947
25565SOL    HW188673   9.961  10.295   4.462  1.4688 -2.8285 -0.2567
25565SOL    HW288674  10.025  10.268   4.327 -0.1323  0.0357 -1.7073
25566SOL     OW88675   8.998   1.663  10.151 -0.4923  0.3200  0.5377
25566SOL    HW188676   9.049   1.584  10.133 -0.2267  0.7360 -0.6759
25566SOL    HW288677   8.923   1.633  10.201 -0.6617 -0.7936 -0.3323
25567SOL     OW88678   2.371   9.632   0.487 -0.3261 -0.1393  0.4453
25567SOL    HW188679   2.352   9.548   0.528 -1.5933 -0.1100 -0.0365
25567SOL    HW288680   2.462   9.624   0.458 -0.7054 -1.7421 -0.4700
25568SOL     OW88681   8.085   7.140   7.896  0.4195 -0.4009 -0.0146
25568SOL    HW188682   8.125   7.173   7.976 -1.5711  2.3144 -0.0101
25568SOL    HW288683   8.007   7.094   7.925  0.4874 -0.7108 -0.3162
25569SOL     OW88684   2.205   6.204   5.194  0.3026 -0.3048 -0.1792
25569SOL    HW188685   2.113   6.182   5.180 -0.1108  1.0588  0.2695
25569SOL    HW288686   2.215   6.292   5.158  1.2859 -0.1936  0.3294
25570SOL     OW88687   7.136   8.592   0.019 -0.1600 -0.7417 -0.1512
25570SOL    HW188688   7.156   8.547   0.101 -0.9405  0.0253  0.4831
25570SOL    HW288689   7.041   8.607   0.022  0.0465  0.7943 -0.4071
25571SOL     OW88690   6.663   2.166   4.305 -0.3721  0.3922  0.3592
25571SOL    HW188691   6.730   2.110   4.342 -2.5158 -2.5739  0.0973
25571SOL    HW288692   6.706   2.209   4.231  1.4147 -0.7990  0.6403
25572SOL     OW88693   2.741   2.730   5.063  0.3925  0.5143  0.3337
25572SOL    HW188694   2.793   2.779   5.126  1.0849 -1.4186  1.3654
25572SOL    HW288695   2.764   2.638   5.079 -1.7136 -0.2646 -0.6743
25573SOL     OW88696   0.872   1.148   9.953  0.1514 -0.4396  0.5178
25573SOL    HW188697   0.928   1.078   9.922 -1.1262 -0.7853 -1.1678
25573SOL    HW288698   0.932   1.211   9.993  1.7259 -0.8567 -1.0615
25574SOL     OW88699   7.961   2.771   7.242 -0.0135  0.0654 -0.2263
25574SOL    HW188700   8.018   2.724   7.183 -0.7269  0.0717 -0.9372
25574SOL    HW288701   8.020   2.826   7.294  0.6045  0.2310 -1.0837
25575SOL     OW88702   6.255   5.016   6.994  0.3358 -0.1984  0.0417
25575SOL    HW188703   6.284   4.971   7.073 -1.9016 -1.1394  0.4051
25575SOL    HW288704   6.218   5.099   7.024  0.0473 -0.2841 -0.0651
25576SOL     OW88705   1.813   6.120   7.469  0.3468 -0.5261 -0.0300
25576SOL    HW188706   1.855   6.043   7.430  1.7907  1.1967 -2.0851
25576SOL    HW288707   1.883   6.164   7.516 -0.0771  0.3773 -0.2291
25577SOL     OW88708   9.842   3.865   4.757 -0.0967 -0.3668  0.8091
25577SOL    HW188709   9.832   3.776   4.790 -0.2725 -0.2248  1.1380
25577SOL    HW288710   9.936   3.875   4.744 -0.0055 -0.3650  1.4318
25578SOL     OW88711   2.198   3.485   5.996  0.0040 -0.1589 -0.0943
25578SOL    HW188712   2.285   3.506   5.962 -0.9920  2.0483 -1.5033
25578SOL    HW288713   2.203   3.504   6.089  1.2764 -1.0002  0.0328
25579SOL     OW88714   3.118   8.807   0.642  0.1544  0.0379 -0.3170
25579SOL    HW188715   3.125   8.738   0.575 -2.8011  1.1858 -1.9860
25579SOL    HW288716   3.114   8.888   0.592 -0.6719  1.0708  1.3456
25580SOL     OW88717   7.276   1.513   7.774  0.3015 -0.1635  0.2711
25580SOL    HW188718   7.344   1.571   7.739  0.5371 -0.5841  0.0291
25580SOL    HW288719   7.303   1.495   7.864  0.1237  0.2580  0.4128
25581SOL     OW88720   2.846   0.421   7.263 -0.2559  0.2528 -0.5014
25581SOL    HW188721   2.854   0.364   7.187 -0.6207  0.5806 -0.7893
25581SOL    HW288722   2.897   0.378   7.331  0.0026 -0.0845 -0.9077
25582SOL     OW88723   8.507   1.156   5.994 -0.2828  0.1657  0.0374
25582SOL    HW188724   8.526   1.165   5.901  0.6186 -1.9801 -0.0338
25582SOL    HW288725   8.558   1.226   6.035  0.0392  0.5534 -0.9789
25583SOL     OW88726   1.429   0.779   7.377 -0.4943 -0.1449 -0.2322
25583SOL    HW188727   1.441   0.687   7.404  0.5845 -0.0789 -0.4163
25583SOL    HW288728   1.454   0.829   7.455 -0.8595 -0.0072 -0.2063
25584SOL     OW88729   8.144   7.570   8.386 -0.3776 -0.0141  0.7675
25584SOL    HW188730   8.142   7.475   8.399  1.5382 -0.4488 -1.3995
25584SOL    HW288731   8.056   7.593   8.358 -0.3994 -1.4983 -0.4853
25585SOL     OW88732   5.504   3.632   6.810  0.3943  0.0769  0.1798
25585SOL    HW188733   5.498   3.545   6.850 -3.3769  0.4228  0.7192
25585SOL    HW288734   5.577   3.675   6.856  1.9041 -2.5032  0.3744
25586SOL     OW88735   1.203   8.201   3.680  0.1141  0.0766  0.0073
25586SOL    HW188736   1.270   8.258   3.719 -0.4518  0.1197  0.9542
25586SOL    HW288737   1.178   8.143   3.751 -1.2247  0.3967 -0.1794
25587SOL     OW88738  10.085   2.095   2.969  0.2151  0.0848  0.3455
25587SOL    HW188739  10.030   2.115   3.045 -1.2743 -0.9511 -0.4229
25587SOL    HW288740  10.165   2.146   2.984  0.2059 -0.4924  2.8749
25588SOL     OW88741  10.030   7.595   8.299  0.0776 -0.0872 -0.1543
25588SOL    HW188742   9.954   7.537   8.305  0.6510 -1.0660 -1.6265
25588SOL    HW288743  10.090   7.562   8.366  0.5667 -1.5238 -1.2498
25589SOL     OW88744   3.309   3.346   3.319  0.3050  0.5250  0.2860
25589SOL    HW188745   3.393   3.302   3.325  0.3666  0.3205 -1.4827
25589SOL    HW288746   3.253   3.301   3.383  1.0339 -0.5263  0.2082
25590SOL     OW88747   7.606   9.891   2.556  0.4966  0.2442  0.4685
25590SOL    HW188748   7.702   9.891   2.553  0.4903  0.4248  0.1361
25590SOL    HW288749   7.585   9.939   2.636  0.6829  0.4859  0.3750
25591SOL     OW88750   9.400   9.847   8.443  0.0188  0.1006  0.1179
25591SOL    HW188751   9.402   9.929   8.492 -2.9334 -0.9460  2.2515
25591SOL    HW288752   9.416   9.779   8.509  0.2639 -1.1966 -1.2095
25592SOL     OW88753   4.132   9.772   8.497 -0.3731 -0.4483 -0.3842
25592SOL    HW188754   4.225   9.786   8.479 -0.2929  0.2381  0.4822
25592SOL    HW288755   4.126   9.776   8.592 -1.1292 -1.5879 -0.3662
25593SOL     OW88756   5.407   3.860   7.031 -0.1201 -0.7960 -0.0652
25593SOL    HW188757   5.364   3.792   6.980 -0.2974  0.2246 -1.3297
25593SOL    HW288758   5.500   3.846   7.016 -0.1654 -0.6190 -0.5101
25594SOL     OW88759   7.171   4.698  10.104 -0.5149  0.4922  0.1334
25594SOL    HW188760   7.190   4.618  10.153  0.9073  1.1092  0.6399
25594SOL    HW288761   7.103   4.742  10.155 -0.5000  0.1531  0.4478
25595SOL     OW88762   0.155   7.838   2.819  0.4195  0.1262 -0.8650
25595SOL    HW188763   0.165   7.872   2.730  0.1446  0.0874 -0.9099
25595SOL    HW288764   0.185   7.747   2.813  0.3587  0.1103 -0.9266
25596SOL     OW88765   9.020   1.562   0.284 -0.2222  0.1952  0.9198
25596SOL    HW188766   9.032   1.615   0.363  1.5802  1.8831 -0.3853
25596SOL    HW288767   9.100   1.577   0.233 -0.2915 -2.6761 -0.2146
25597SOL     OW88768   3.454   0.823   1.433 -0.4263 -0.2681  0.2313
25597SOL    HW188769   3.475   0.865   1.350  1.4163  1.2625  1.3794
25597SOL    HW288770   3.381   0.875   1.468  1.1748  1.4713  1.1715
25598SOL     OW88771   0.358   6.608  10.152 -0.1844 -0.7156 -0.4684
25598SOL    HW188772   0.290   6.633  10.091 -2.4444 -0.4361  1.9825
25598SOL    HW288773   0.352   6.513  10.158 -0.8153 -0.6436  0.1889
25599SOL     OW88774   8.031   9.203   2.195  0.3097  0.1186  0.6627
25599SOL    HW188775   8.099   9.142   2.166  0.0216  0.0861  0.0492
25599SOL    HW288776   7.957   9.187   2.136 -0.4493 -0.2454  1.6735
25600SOL     OW88777   8.043   0.606   9.998  0.0979 -0.1420  0.3460
25600SOL    HW188778   8.074   0.607  10.088 -0.6154  0.4690  0.5962
25600SOL    HW288779   7.965   0.552  10.000  0.4989 -0.7454 -0.0568
25601SOL     OW88780   2.610   1.076   3.842 -0.1622  0.7264 -0.3533
25601SOL    HW188781   2.523   1.090   3.803 -0.8611  0.8721  1.1875
25601SOL    HW288782   2.607   0.987   3.875 -0.4394  1.3364  1.3728
25602SOL     OW88783   0.228   3.206   7.019  0.2700  0.1528  0.1649
25602SOL    HW188784   0.135   3.204   7.040  0.1732  1.4688 -0.0574
25602SOL    HW288785   0.257   3.294   7.043  1.5343 -0.3284  0.5107
25603SOL     OW88786   7.991   3.312   7.816 -0.0252  0.2599 -0.0910
25603SOL    HW188787   7.983   3.228   7.770 -0.1730  0.4898 -0.4841
25603SOL    HW288788   8.070   3.352   7.779 -0.9378  1.0942 -1.2031
25604SOL     OW88789   3.805   0.072   2.816 -0.4678 -0.2035  0.1311
25604SOL    HW188790   3.714   0.086   2.788 -1.3632 -1.3926  2.1918
25604SOL    HW288791   3.803  -0.013   2.860  1.5934 -0.1051  0.4755
25605SOL     OW88792  10.366   6.766  10.266  0.3726 -0.3344  0.5887
25605SOL    HW188793  10.285   6.717  10.253  1.2691 -1.4337 -1.2644
25605SOL    HW288794  10.375   6.819  10.187  2.3576 -1.6502 -0.1582
25606SOL     OW88795   5.752   7.426   7.092  0.5032 -0.7806 -0.0118
25606SOL    HW188796   5.662   7.447   7.066  0.2380  1.0257  2.0586
25606SOL    HW288797   5.747   7.337   7.126 -0.3281 -0.9944 -0.6670
25607SOL     OW88798   1.928   0.202   0.626 -0.0996  0.0188 -0.3137
25607SOL    HW188799   1.849   0.179   0.674  1.0435 -1.0273  1.1243
25607SOL    HW288800   1.944   0.127   0.568  0.2249 -0.0883 -0.0885
25608SOL     OW88801   1.694   8.232   3.834  0.4675  0.5652 -0.2040
25608SOL    HW188802   1.771   8.200   3.880  0.1082 -0.6846 -0.4408
25608SOL    HW288803   1.642   8.154   3.816 -0.8099  1.3601 -0.1437
25609SOL     OW88804   5.455   5.744   5.861 -0.4167  0.2427 -0.2387
25609SOL    HW188805   5.540   5.712   5.830  0.1183 -0.8217  2.0953
25609SOL    HW288806   5.400   5.665   5.866 -1.4516  0.8678 -1.3739
25610SOL     OW88807   6.564   7.962   7.626 -0.3246 -0.0654 -0.3710
25610SOL    HW188808   6.593   8.014   7.702 -2.2568 -0.4045  0.6549
25610SOL    HW288809   6.635   7.972   7.563  1.5507 -0.0689  1.5974
25611SOL     OW88810   2.972   2.148   7.000 -0.0360  0.0777  0.0708
25611SOL    HW188811   2.906   2.211   6.971  0.8039  1.4202  0.9789
25611SOL    HW288812   2.944   2.122   7.087  0.7900  0.8916  0.5868
25612SOL     OW88813   0.163   5.454   8.215 -0.5170  0.0783 -0.3493
25612SOL    HW188814   0.189   5.468   8.124 -0.3932  0.8292 -0.2094
25612SOL    HW288815   0.239   5.415   8.257 -0.0035  1.1880 -0.2122
25613SOL     OW88816   4.552   4.387   8.480  0.0161 -0.4616  0.3750
25613SOL    HW188817   4.465   4.373   8.517  0.8942 -0.0908  2.7950
25613SOL    HW288818   4.611   4.378   8.555  1.9183  0.8609 -0.8848
25614SOL     OW88819   4.209   5.278   7.552  0.2546  0.9321 -0.4421
25614SOL    HW188820   4.162   5.321   7.624  2.4411 -0.5586  2.0033
25614SOL    HW288821   4.215   5.346   7.485 -0.1918  3.0387  1.5147
25615SOL     OW88822   4.120   8.527   4.172  0.2098 -0.0267  0.5970
25615SOL    HW188823   4.031   8.505   4.145  0.6338 -2.5199  0.9304
25615SOL    HW288824   4.131   8.482   4.257  2.2295 -1.0839 -0.1422
25616SOL     OW88825   3.722   8.277   6.127 -0.4444  0.0859 -0.1666
25616SOL    HW188826   3.702   8.196   6.175  0.7910 -0.9857 -1.3673
25616SOL    HW288827   3.705   8.256   6.036 -1.6395  1.7212 -0.3579
25617SOL     OW88828   0.906   5.046   9.410  0.3169 -0.2696  0.0112
25617SOL    HW188829   0.965   5.122   9.419 -0.2574  0.1972 -0.0871
25617SOL    HW288830   0.942   4.996   9.338 -1.2157  1.7424 -2.3134
25618SOL     OW88831   6.536   6.472   5.509  0.3758 -0.4290 -0.4140
25618SOL    HW188832   6.568   6.383   5.518  0.8149 -0.1100  1.9329
25618SOL    HW288833   6.504   6.495   5.597 -2.1832  0.8184 -1.5558
25619SOL     OW88834   5.780   3.189   4.091 -0.5225 -0.0785  0.0683
25619SOL    HW188835   5.871   3.219   4.081 -0.6379  0.3014  0.1711
25619SOL    HW288836   5.785   3.120   4.157 -0.3822  0.3015  0.4631
25620SOL     OW88837   2.422   7.045   2.965 -0.3981  0.4089 -0.5329
25620SOL    HW188838   2.440   7.137   2.944 -1.0868  0.1420 -2.6049
25620SOL    HW288839   2.509   7.005   2.974 -0.0933  1.2633  0.5169
25621SOL     OW88840   4.862   9.597   9.786  0.8127  0.2399  0.1785
25621SOL    HW188841   4.846   9.512   9.745  0.1899  0.5213 -0.1743
25621SOL    HW288842   4.934   9.634   9.734  1.4222 -0.2682  0.6398
25622SOL     OW88843   5.217   8.687   6.212 -1.0044 -0.2337 -0.2936
25622SOL    HW188844   5.161   8.761   6.190 -0.6352 -0.6302 -2.9873
25622SOL    HW288845   5.260   8.711   6.294 -1.2680  2.3195 -0.8482
25623SOL     OW88846   3.331   8.716   0.918 -0.1268  0.6069 -0.0311
25623SOL    HW188847   3.398   8.784   0.907 -0.1827  0.5021 -1.0358
25623SOL    HW288848   3.325   8.673   0.833  0.8359 -1.5394  0.9172
25624SOL     OW88849   2.317   3.564   9.267  0.5498  0.0261 -0.2919
25624SOL    HW188850   2.268   3.642   9.244  0.2317 -0.6924 -2.2482
25624SOL    HW288851   2.341   3.525   9.183  1.4616 -1.5057  0.6292
25625SOL     OW88852   7.515  10.346   7.078 -0.0372  0.3511 -0.0338
25625SOL    HW188853   7.516  10.252   7.095 -0.1585  0.4447  0.5032
25625SOL    HW288854   7.469  10.354   6.995  0.9893 -0.1487 -0.6770
25626SOL     OW88855   7.645   5.170   5.225  0.2160 -0.0060  0.0639
25626SOL    HW188856   7.637   5.264   5.207  1.4646  0.3474  1.2226
25626SOL    HW288857   7.694   5.165   5.307  1.0886 -1.6950 -0.5172
25627SOL     OW88858   4.117   5.817   0.683 -0.1127 -0.5037  0.6082
25627SOL    HW188859   4.124   5.737   0.629  0.8526  0.7308 -1.2090
25627SOL    HW288860   4.208   5.838   0.705 -0.3129  0.3828  0.6066
25628SOL     OW88861   1.674   8.196   8.150 -0.1911 -0.3069  0.4954
25628SOL    HW188862   1.584   8.226   8.159  0.5752  1.7641  2.2620
25628SOL    HW288863   1.722   8.272   8.116  0.6185 -1.9700 -2.3722
25629SOL     OW88864  10.247  10.010   1.562  0.1492 -0.0610  0.3585
25629SOL    HW188865  10.252   9.997   1.467 -2.1419 -2.0133  0.3941
25629SOL    HW288866  10.166  10.060   1.575  0.7028  0.6221  1.2809
25630SOL     OW88867   1.925   3.065   2.280  0.3348 -0.1774  0.3931
25630SOL    HW188868   1.897   2.977   2.308  1.1902 -0.3645  0.7035
25630SOL    HW288869   1.884   3.124   2.343 -0.2941 -0.3482  0.1492
25631SOL     OW88870   0.400   3.513   4.946 -0.7845  0.0391  0.2254
25631SOL    HW188871   0.351   3.595   4.957 -0.2082  0.6008 -1.1531
25631SOL    HW288872   0.359   3.470   4.871 -0.7676 -0.7123  0.6374
25632SOL     OW88873  10.082  10.318   0.201 -0.0404  0.1562 -0.3913
25632SOL    HW188874  10.034  10.265   0.265  0.3981  0.7173  0.4233
25632SOL    HW288875  10.117  10.255   0.139  0.2771 -0.5020  0.4319
25633SOL     OW88876   0.895   3.327   2.597  0.0352 -0.1613 -0.4466
25633SOL    HW188877   0.872   3.245   2.639 -0.1461 -0.0090 -0.2472
25633SOL    HW288878   0.824   3.344   2.536 -0.0416 -0.0389 -0.3244
25634SOL     OW88879   2.114   9.134   1.383  0.2582  0.2202 -0.1180
25634SOL    HW188880   2.103   9.184   1.301 -1.4164 -0.0670 -0.1176
25634SOL    HW288881   2.128   9.201   1.450  3.6998  0.3870 -0.8452
25635SOL     OW88882   5.757   7.043   4.536  0.0088 -0.7426  0.5757
25635SOL    HW188883   5.724   7.093   4.462  0.1740 -1.2192  0.1718
25635SOL    HW288884   5.803   7.106   4.590 -2.1838  0.1303  1.5742
25636SOL     OW88885   3.813   2.278   2.900 -0.3306  0.1335  0.1524
25636SOL    HW188886   3.779   2.222   2.970  1.1608  1.2212  1.8717
25636SOL    HW288887   3.886   2.229   2.863  0.4097  0.5262  1.0489
25637SOL     OW88888   1.694   6.443   8.336  0.0480 -0.1961  0.1583
25637SOL    HW188889   1.653   6.484   8.412 -1.3743 -0.6028 -0.3661
25637SOL    HW288890   1.711   6.353   8.363  0.8587  0.0332  0.4553
25638SOL     OW88891   2.695   7.517   5.719  0.2933 -0.2390 -0.1376
25638SOL    HW188892   2.763   7.452   5.739 -0.6688 -1.2925 -0.1420
25638SOL    HW288893   2.672   7.499   5.628  1.4387  1.4969 -0.8156
25639SOL     OW88894   8.885   4.537   9.713 -0.1822  0.3248  0.2489
25639SOL    HW188895   8.916   4.582   9.791  1.3525  0.3733 -0.3456
25639SOL    HW288896   8.829   4.600   9.669  0.2767  0.9079  0.4872
25640SOL     OW88897   8.244   9.091  10.097  0.7169  0.6644  0.2799
25640SOL    HW188898   8.256   9.045  10.180 -0.1285  1.2564  0.7543
25640SOL    HW288899   8.310   9.055  10.039 -0.8085 -2.2361  0.1692
25641SOL     OW88900   8.180  10.326   6.526 -0.1656  0.0961  0.2663
25641SOL    HW188901   8.170  10.269   6.602 -0.1586 -3.0163 -1.8724
25641SOL    HW288902   8.090  10.342   6.495 -0.0834 -1.9582 -1.2251
25642SOL     OW88903   8.582   1.585   9.843  0.3604 -0.0032 -0.6051
25642SOL    HW188904   8.612   1.614   9.929  0.9947  1.8094 -1.3776
25642SOL    HW288905   8.598   1.491   9.842  0.4807 -0.0331  1.1823
25643SOL     OW88906   8.409   8.610   9.838  0.0699 -0.4726  0.0645
25643SOL    HW188907   8.316   8.589   9.827 -0.0241  0.2482 -0.6062
25643SOL    HW288908   8.453   8.563   9.768  0.3199 -1.4866  0.8873
25644SOL     OW88909   8.012   8.250   3.764 -0.3994 -0.0855  0.5650
25644SOL    HW188910   8.047   8.335   3.737 -1.7879  0.0364 -0.9845
25644SOL    HW288911   7.920   8.268   3.786 -1.5230 -1.5835 -2.4438
25645SOL     OW88912   6.068   5.975   7.251 -0.4560  0.3026  0.2733
25645SOL    HW188913   6.127   5.922   7.197  0.2553  1.7424 -0.4327
25645SOL    HW288914   6.088   5.949   7.341  0.7108  0.1888  0.0002
25646SOL     OW88915   7.959   9.738   3.632  0.1708 -0.3681  0.6541
25646SOL    HW188916   7.887   9.701   3.580 -0.1837  0.8096  0.2911
25646SOL    HW288917   7.919   9.810   3.680  1.5704  1.9109 -1.3930
25647SOL     OW88918   2.932   1.246   7.394  0.3285  0.0357 -0.1745
25647SOL    HW188919   2.842   1.279   7.399  0.4398  0.4035 -0.5738
25647SOL    HW288920   2.984   1.320   7.364  0.9607  0.1407  1.1207
25648SOL     OW88921   8.749   7.277   9.902 -0.3503 -0.0233 -0.2002
25648SOL    HW188922   8.752   7.189   9.864  1.6460 -1.0884  2.1727
25648SOL    HW288923   8.675   7.275   9.962 -0.2562 -0.1218 -0.0861
25649SOL     OW88924   1.199   0.958   4.682 -0.6399  0.5842 -0.1668
25649SOL    HW188925   1.273   1.000   4.726 -0.7647  1.0857 -0.4197
25649SOL    HW288926   1.206   0.986   4.591 -1.5804  1.2840 -0.0446
25650SOL     OW88927   3.754   7.052   0.194 -0.1935 -0.0377  0.6244
25650SOL    HW188928   3.811   7.128   0.206  3.7702 -2.2415 -1.7890
25650SOL    HW288929   3.667   7.088   0.182  1.7121  4.3713 -2.3931
25651SOL     OW88930   8.132   2.264   6.607  0.1640 -0.0472 -0.3407
25651SOL    HW188931   8.101   2.174   6.598  1.2702 -0.3600 -1.1277
25651SOL    HW288932   8.127   2.300   6.518  1.8295 -0.0401 -0.4492
25652SOL     OW88933   9.523   0.794   5.820 -0.4502  0.0261  0.1042
25652SOL    HW188934   9.591   0.778   5.755 -1.2380 -1.3519 -0.4330
25652SOL    HW288935   9.514   0.889   5.822  0.2925  0.1424 -1.0769
25653SOL     OW88936  10.194   4.687   1.262  0.8137  0.1240 -0.4301
25653SOL    HW188937  10.255   4.628   1.305  1.5515 -0.0030 -1.6041
25653SOL    HW288938  10.247   4.735   1.198 -0.1543  0.6173 -0.8955
25654SOL     OW88939   8.579   8.552   1.930  0.1310  0.2578  0.2187
25654SOL    HW188940   8.560   8.575   2.021  1.1285  1.6357  0.1153
25654SOL    HW288941   8.611   8.633   1.892 -1.0058 -0.0994 -1.5962
25655SOL     OW88942   2.006   1.450   2.770  0.3152  0.0574 -0.0953
25655SOL    HW188943   1.932   1.409   2.816  0.1315  0.2818 -0.1896
25655SOL    HW288944   1.985   1.543   2.769  1.8534  0.5150  2.2425
25656SOL     OW88945  10.282   7.421   5.842  0.1041 -0.5512  0.3370
25656SOL    HW188946  10.366   7.432   5.799 -0.5502  1.0153 -0.6517
25656SOL    HW288947  10.238   7.351   5.794  0.5592 -0.8644  0.3805
25657SOL     OW88948   2.701   8.003   8.382  0.2359  0.4172  0.1433
25657SOL    HW188949   2.737   7.954   8.456  1.7226  3.2386  1.4299
25657SOL    HW288950   2.608   8.013   8.403  0.3037 -0.2039  0.7916
25658SOL     OW88951   4.479   3.180   4.833 -0.0898 -0.6016 -0.5512
25658SOL    HW188952   4.491   3.238   4.908  1.2201 -1.7705  0.1909
25658SOL    HW288953   4.424   3.109   4.865  0.7144 -1.2580 -0.5853
25659SOL     OW88954   8.536   6.872   1.761 -0.5399  0.3356 -0.0659
25659SOL    HW188955   8.480   6.947   1.781 -2.8381 -1.5559  1.1981
25659SOL    HW288956   8.478   6.812   1.714  0.9988 -0.9637 -0.3650
25660SOL     OW88957   8.759   8.532   7.515 -0.2635  0.0582  0.0670
25660SOL    HW188958   8.834   8.530   7.574  1.1165 -0.2278 -1.6176
25660SOL    HW288959   8.707   8.607   7.544  0.9323  0.5550  0.9834
25661SOL     OW88960   2.402   3.220   7.731  0.1011 -0.0862  0.4742
25661SOL    HW188961   2.429   3.303   7.771 -0.1040  0.3310 -0.2511
25661SOL    HW288962   2.374   3.243   7.643  1.7096 -1.1599 -0.3660
25662SOL     OW88963   3.180   9.893   1.933 -0.0470 -0.4827 -0.4190
25662SOL    HW188964   3.250   9.957   1.919 -0.5175 -0.2902 -2.1435
25662SOL    HW288965   3.100   9.946   1.936 -0.0902 -0.5416  2.9122
25663SOL     OW88966   5.319   6.894   5.933 -0.3931  0.0729  0.7553
25663SOL    HW188967   5.286   6.949   6.005  0.5862  0.6704  0.7642
25663SOL    HW288968   5.314   6.805   5.967  0.3041  0.3681  1.6884
25664SOL     OW88969   6.172   0.560   8.694  0.2469  0.7565 -0.3419
25664SOL    HW188970   6.261   0.531   8.673 -0.0120 -0.5432  0.2636
25664SOL    HW288971   6.122   0.546   8.614  0.4475  0.9327 -0.5006
25665SOL     OW88972   4.525   3.539  10.170 -0.1681  0.5745  0.1778
25665SOL    HW188973   4.518   3.512  10.078 -0.6877 -1.4868  0.7650
25665SOL    HW288974   4.568   3.624  10.167  1.0377 -0.0341 -1.9206
25666SOL     OW88975   3.705   4.270   9.486  0.1365  0.6324 -0.2792
25666SOL    HW188976   3.632   4.223   9.446  0.5686 -1.2202  0.9951
25666SOL    HW288977   3.668   4.310   9.564  0.4242 -0.1678  0.2775
25667SOL     OW88978   0.907   0.705   8.987  0.4260 -0.5546 -0.0119
25667SOL    HW188979   0.896   0.751   9.071  0.4508 -1.8951  0.7579
25667SOL    HW288980   0.996   0.672   8.989  0.3896 -0.6939 -0.5244
25668SOL     OW88981   1.012   7.639  10.055  0.3324  0.4442 -0.4469
25668SOL    HW188982   1.008   7.543  10.057  1.8624  0.3104 -1.7602
25668SOL    HW288983   1.103   7.660  10.073 -0.0380  1.6752  0.0725
25669SOL     OW88984   8.810   6.357   1.874  0.0045 -0.3611 -0.7292
25669SOL    HW188985   8.732   6.379   1.823 -0.8277  0.8198  0.9532
25669SOL    HW288986   8.882   6.400   1.828 -0.3430 -1.1518 -2.0952
25670SOL     OW88987   6.602   1.257   7.019 -0.1115  0.5693  0.2420
25670SOL    HW188988   6.607   1.162   7.032  2.0339  0.3794 -1.3191
25670SOL    HW288989   6.603   1.293   7.108  1.0549 -0.8521  0.8540
25671SOL     OW88990   4.985   7.638   9.144 -0.5688  0.1868 -0.3749
25671SOL    HW188991   4.901   7.598   9.122 -0.4179  0.0751 -0.7388
25671SOL    HW288992   5.013   7.591   9.223  1.5453 -3.3056 -2.9654
25672SOL     OW88993   5.611   9.243   2.383 -0.2357  0.1914  0.5052
25672SOL    HW188994   5.581   9.334   2.385 -0.2688  0.3240 -2.0247
25672SOL    HW288995   5.530   9.192   2.380 -0.2149  0.1336  0.9167
25673SOL     OW88996   0.722   1.280   2.140 -0.0800  0.2357  0.7002
25673SOL    HW188997   0.632   1.298   2.170 -0.0330  1.1356  0.3444
25673SOL    HW288998   0.772   1.269   2.221 -0.6933 -1.3252  0.8998
25674SOL     OW88999   5.098   8.272   3.724 -0.3272  0.1653 -0.1272
25674SOL    HW189000   5.010   8.271   3.761 -0.5320 -0.8083 -0.6184
25674SOL    HW289001   5.086   8.246   3.633  0.2924  1.5467 -0.6360
25675SOL     OW89002   9.435   4.621   6.293 -0.2803 -0.3709 -0.2255
25675SOL    HW189003   9.347   4.659   6.303 -0.2913 -0.5581  0.5055
25675SOL    HW289004   9.431   4.540   6.344  0.1126 -0.7245 -0.7552
25676SOL     OW89005   7.582   4.346   5.724 -0.3275  0.5356 -0.1962
25676SOL    HW189006   7.619   4.336   5.636 -2.2662  1.5640 -1.1834
25676SOL    HW289007   7.491   4.318   5.716 -0.5406  0.6020  1.5228
25677SOL     OW89008   6.679   9.172   1.113  0.2743  0.1798  0.3594
25677SOL    HW189009   6.648   9.113   1.045 -0.9292  0.5138  0.5865
25677SOL    HW289010   6.764   9.136   1.139 -0.5287 -1.6342  0.6870
25678SOL     OW89011   2.265   0.806   2.245 -0.4205  0.5104  0.6365
25678SOL    HW189012   2.278   0.716   2.273  0.0033  0.5196  0.4680
25678SOL    HW289013   2.211   0.800   2.166 -0.5506  0.4130  0.7348
25679SOL     OW89014  10.017   8.968   4.223  0.2275 -0.2717 -0.0558
25679SOL    HW189015   9.944   9.030   4.228  1.0698  0.6792  0.7698
25679SOL    HW289016  10.044   8.970   4.132 -0.7287 -0.5950 -0.3653
25680SOL     OW89017   6.470   6.232   4.436  0.9606 -0.0785 -0.4279
25680SOL    HW189018   6.494   6.164   4.372  0.7076 -0.1984 -0.3969
25680SOL    HW289019   6.402   6.191   4.489  1.3805 -0.0835  0.1111
25681SOL     OW89020   0.556   8.599   2.892  0.2132 -0.6015  0.2184
25681SOL    HW189021   0.650   8.613   2.907  0.0142  0.2079  0.7956
25681SOL    HW289022   0.540   8.636   2.805  0.3761 -0.4918  0.2343
25682SOL     OW89023   8.235   3.689   5.744  0.3480 -0.1994 -0.1646
25682SOL    HW189024   8.195   3.634   5.812  3.6042 -0.3835  1.7869
25682SOL    HW289025   8.250   3.773   5.787  0.6243  0.3600 -1.3191
25683SOL     OW89026   6.889   8.074   0.740  0.5427  0.5890 -0.6774
25683SOL    HW189027   6.820   8.012   0.716 -0.2636  1.6766 -1.3112
25683SOL    HW289028   6.894   8.069   0.835  1.3861 -1.3297 -0.7791
25684SOL     OW89029   9.762   2.650   6.003 -0.1242  0.1261 -0.0399
25684SOL    HW189030   9.833   2.699   6.045 -0.0024  0.2925 -0.4394
25684SOL    HW289031   9.682   2.697   6.028 -0.1015 -0.0810  0.4378
25685SOL     OW89032   5.957  10.114   7.102 -0.0574  0.1903 -0.5155
25685SOL    HW189033   5.914  10.197   7.125  2.9782  2.2654 -1.7365
25685SOL    HW289034   5.960  10.114   7.007  1.0106 -0.7892 -0.4962
25686SOL     OW89035   2.423   6.577   5.936 -0.0091 -0.1514 -0.1031
25686SOL    HW189036   2.441   6.564   6.029  0.2372  0.7888 -0.0070
25686SOL    HW289037   2.337   6.619   5.935  0.0175 -0.1051 -0.3029
25687SOL     OW89038   5.145   9.151   3.752  0.4200  0.0561 -0.0015
25687SOL    HW189039   5.133   9.246   3.753  1.5663  0.2442  1.8800
25687SOL    HW289040   5.238   9.138   3.734  0.1686 -0.7591 -0.8096
25688SOL     OW89041   6.057   8.896   9.080  0.4984 -0.3179  0.0143
25688SOL    HW189042   6.074   8.976   9.030  1.6088 -0.9873 -0.7125
25688SOL    HW289043   6.066   8.923   9.172 -0.6614  0.7192 -0.1560
25689SOL     OW89044   3.093   6.917   4.329 -0.7630 -0.5353 -0.5072
25689SOL    HW189045   3.016   6.971   4.312 -0.1475  0.0594 -1.5106
25689SOL    HW289046   3.117   6.938   4.419 -1.8567 -0.8566 -0.1172
25690SOL     OW89047   0.589   4.706   3.245 -0.0606 -0.6742  0.4058
25690SOL    HW189048   0.545   4.625   3.220 -1.0634 -0.7717  2.3196
25690SOL    HW289049   0.656   4.678   3.307  0.6936 -0.1780 -0.1588
25691SOL     OW89050   2.395   9.392   2.820 -0.3820 -0.2580  0.1972
25691SOL    HW189051   2.472   9.360   2.865 -0.0052  1.8705  1.1705
25691SOL    HW289052   2.327   9.328   2.839  0.2923 -0.4480  2.1500
25692SOL     OW89053   5.352   3.133   3.553  0.2505 -0.3016  0.1253
25692SOL    HW189054   5.341   3.053   3.501  1.0204 -0.7208  0.5933
25692SOL    HW289055   5.379   3.199   3.489 -1.2087 -0.1879 -0.4047
25693SOL     OW89056   9.318   7.951   2.829  0.3495  0.2433  0.3126
25693SOL    HW189057   9.294   8.034   2.789  2.2303 -0.4606 -2.6010
25693SOL    HW289058   9.260   7.887   2.787  1.7643 -0.4076 -0.7275
25694SOL     OW89059   7.144   7.318   7.931 -0.0395  0.0822 -0.1792
25694SOL    HW189060   7.149   7.349   8.022 -2.5151 -0.4406  0.2271
25694SOL    HW289061   7.094   7.237   7.937  1.4879 -1.0248 -1.8287
25695SOL     OW89062   3.052   3.836   8.626  0.1511  0.0825 -0.1748
25695SOL    HW189063   3.015   3.907   8.573  0.3031 -0.2879 -0.7892
25695SOL    HW289064   3.102   3.783   8.564  3.1038  1.4376  0.8876
25696SOL     OW89065   9.774   5.719   1.313  0.0247 -0.2081 -0.1593
25696SOL    HW189066   9.842   5.760   1.260 -0.2457  0.6096  0.1178
25696SOL    HW289067   9.790   5.751   1.402  1.1211 -2.3816  0.4925
25697SOL     OW89068   5.761   5.846   6.691 -0.1201 -0.4388  0.1397
25697SOL    HW189069   5.691   5.903   6.725  1.5415  1.3267  0.7420
25697SOL    HW289070   5.773   5.780   6.760 -0.6339 -0.2735  0.3972
25698SOL     OW89071   9.044   1.227   6.553 -0.1637  0.6730  0.3198
25698SOL    HW189072   9.052   1.131   6.559 -0.3341  0.6141 -0.3506
25698SOL    HW289073   9.099   1.260   6.624 -0.0722  0.0766  0.5334
25699SOL     OW89074   5.893   7.116   8.777  0.1213 -0.0784  0.1074
25699SOL    HW189075   5.872   7.082   8.690  0.0106  0.1984  0.0232
25699SOL    HW289076   5.977   7.078   8.799  1.7580  2.3041 -1.4814
25700SOL     OW89077   1.919   7.645   8.748 -0.0302  0.3815 -0.0281
25700SOL    HW189078   1.981   7.571   8.752  1.6864  1.8047  2.1163
25700SOL    HW289079   1.833   7.604   8.755  0.7530 -1.5126 -0.5963
25701SOL     OW89080   7.784   0.793   7.896 -0.3514 -0.4220 -0.7925
25701SOL    HW189081   7.830   0.865   7.939  0.3612 -0.2643 -1.7783
25701SOL    HW289082   7.844   0.720   7.899 -1.6483 -1.4800  1.5354
25702SOL     OW89083   8.162   5.505   8.258  0.6073  0.2202  0.0440
25702SOL    HW189084   8.217   5.562   8.311 -0.1011  0.7953  0.1765
25702SOL    HW289085   8.107   5.458   8.321 -1.5709  2.2794 -0.1899
25703SOL     OW89086   5.889   6.278   7.776  0.2399 -0.2837  0.2686
25703SOL    HW189087   5.855   6.357   7.818 -1.3990 -0.5649 -0.4463
25703SOL    HW289088   5.982   6.277   7.798  0.3371  1.9373  0.1440
25704SOL     OW89089   9.472   9.358   9.073  0.2219 -0.3574  0.2877
25704SOL    HW189090   9.395   9.412   9.091 -0.3227 -1.5252  1.6809
25704SOL    HW289091   9.532   9.379   9.145  0.5265 -0.6770  0.1289
25705SOL     OW89092  10.134   9.379   9.348 -0.7239  0.5769  0.2882
25705SOL    HW189093  10.136   9.398   9.254 -0.3055  0.7482  0.3305
25705SOL    HW289094  10.116   9.464   9.389 -1.0543  0.4760  0.3572
25706SOL     OW89095   6.247   8.870   4.372 -0.1847 -0.0276  0.0079
25706SOL    HW189096   6.162   8.887   4.333  0.5195  0.4101 -1.4114
25706SOL    HW289097   6.230   8.866   4.466 -1.7872 -0.1435 -0.2583
25707SOL     OW89098   5.266   0.115   3.783  0.3103 -0.7242  0.3942
25707SOL    HW189099   5.265   0.099   3.689 -2.7722 -1.1377  0.4097
25707SOL    HW289100   5.271   0.211   3.791 -0.2527 -0.6368 -0.2315
25708SOL     OW89101   0.338   1.124   6.758 -0.5954  0.3273 -0.2867
25708SOL    HW189102   0.369   1.211   6.736  0.8068 -0.2181 -0.5212
25708SOL    HW289103   0.249   1.121   6.723 -0.5461  1.5427 -0.5538
25709SOL     OW89104   2.740   9.612   3.158  0.0011 -0.4293  0.1042
25709SOL    HW189105   2.654   9.577   3.135  0.0805 -0.2740 -0.4570
25709SOL    HW289106   2.737   9.623   3.253 -0.1227 -1.6890  0.2585
25710SOL     OW89107   1.188   6.642   5.456 -0.4486  0.1980  0.5862
25710SOL    HW189108   1.244   6.708   5.415  0.6190 -0.0805  1.5129
25710SOL    HW289109   1.152   6.592   5.383 -2.5420  2.7040 -0.2521
25711SOL     OW89110   2.327   0.156   1.782  0.8476  0.5644  0.0305
25711SOL    HW189111   2.415   0.192   1.789  1.1958 -0.3761  0.6486
25711SOL    HW289112   2.281   0.190   1.859  1.0637  0.0061  0.4100
25712SOL     OW89113   3.324   8.504   5.181  0.0958  0.2192  0.1270
25712SOL    HW189114   3.300   8.577   5.239  0.1032  0.0308  0.3689
25712SOL    HW289115   3.390   8.541   5.122 -0.8252  0.7704 -0.5952
25713SOL     OW89116   9.895   2.939   5.529 -0.2166 -0.0654 -0.5195
25713SOL    HW189117   9.839   2.953   5.605 -1.3785 -1.1340 -1.1273
25713SOL    HW289118   9.931   3.025   5.509  1.1931  0.0315  1.9987
25714SOL     OW89119   6.903   5.247   6.513  0.2498 -0.2714  0.2031
25714SOL    HW189120   6.821   5.234   6.465  1.1425 -1.5775 -1.0249
25714SOL    HW289121   6.933   5.159   6.534  2.1120  0.0984 -0.7030
25715SOL     OW89122   2.627   9.819   6.838 -0.0295  0.4792  0.1780
25715SOL    HW189123   2.596   9.742   6.791 -2.5338  0.7960  1.1078
25715SOL    HW289124   2.703   9.788   6.888 -0.2632 -1.0780 -0.3725
25716SOL     OW89125   9.607   6.189   2.842  0.2351 -0.6886  0.0187
25716SOL    HW189126   9.586   6.198   2.935  1.8009 -2.1266  0.5687
25716SOL    HW289127   9.653   6.105   2.836  2.4011  0.5109 -1.6157
25717SOL     OW89128   3.258   2.602   7.869 -0.0896  0.2101  0.3644
25717SOL    HW189129   3.291   2.619   7.957  0.5000 -0.4358  0.2712
25717SOL    HW289130   3.240   2.689   7.833  1.8914  0.6226  0.2685
25718SOL     OW89131   5.158   9.796  10.089 -0.3295  0.0017 -0.0754
25718SOL    HW189132   5.138   9.840  10.172 -0.7172  2.2223 -1.2550
25718SOL    HW289133   5.072   9.777  10.051 -0.2013 -2.7172  0.7741
25719SOL     OW89134   4.863   4.897   8.188  0.2155 -0.0805  0.6592
25719SOL    HW189135   4.953   4.868   8.177  0.7108  1.2533  0.9649
25719SOL    HW289136   4.850   4.961   8.117  0.5335  1.9502  2.3133
25720SOL     OW89137   1.839   5.631  10.253 -0.5551  0.0057 -0.2215
25720SOL    HW189138   1.826   5.608  10.161  0.4703 -3.0226  0.2595
25720SOL    HW289139   1.778   5.574  10.301  0.0213  0.4103  1.0514
25721SOL     OW89140   1.215   0.676   5.064  0.0713  0.2241  0.3424
25721SOL    HW189141   1.260   0.594   5.085  0.3339  0.4141  0.5258
25721SOL    HW289142   1.173   0.660   4.980  0.6323  0.1050  0.0812
25722SOL     OW89143   3.549   0.718   6.025  0.1422 -0.2661  0.3250
25722SOL    HW189144   3.518   0.693   6.113 -0.6500 -1.3825 -0.2472
25722SOL    HW289145   3.570   0.635   5.982 -0.5570  0.1785 -0.9235
25723SOL     OW89146   3.322   0.248   2.042  0.0081  0.0581  0.8742
25723SOL    HW189147   3.352   0.164   2.008 -2.4089 -0.0100 -1.3706
25723SOL    HW289148   3.373   0.313   1.993  0.9808 -0.0369  1.7166
25724SOL     OW89149   5.484   9.885   4.075 -0.0981  0.0926  0.3930
25724SOL    HW189150   5.423   9.958   4.085  1.9516  1.6885  2.2553
25724SOL    HW289151   5.505   9.859   4.165 -0.2600 -2.4177 -0.2191
25725SOL     OW89152   9.931   9.925   2.759  0.3770 -0.3057  0.1805
25725SOL    HW189153  10.025   9.905   2.751  0.3761  0.2100 -1.3225
25725SOL    HW289154   9.913   9.988   2.689 -1.4560 -1.7610 -0.7784
25726SOL     OW89155   9.501   5.483   8.709  0.7851  0.0957 -0.1843
25726SOL    HW189156   9.571   5.453   8.767 -0.2797 -1.1393  0.5182
25726SOL    HW289157   9.536   5.562   8.668  1.8222  0.6330  1.6392
25727SOL     OW89158   9.018   6.414   8.870  0.5443 -0.4209  0.1805
25727SOL    HW189159   8.956   6.412   8.797  0.9314  2.1736 -0.3380
25727SOL    HW289160   9.072   6.336   8.858  0.0236 -0.5358 -1.8036
25728SOL     OW89161   0.773   8.124   7.813  0.0921  0.0626 -0.3639
25728SOL    HW189162   0.817   8.203   7.781  1.4765 -0.5015  0.0628
25728SOL    HW289163   0.843   8.072   7.853 -0.9081 -1.0761 -0.0287
25729SOL     OW89164   5.442   4.514   7.571  0.1200 -0.3809 -0.6542
25729SOL    HW189165   5.514   4.577   7.574 -0.3138  0.0935  0.2607
25729SOL    HW289166   5.365   4.566   7.550 -0.1375 -0.7132 -0.5496
25730SOL     OW89167   3.463   7.033   7.764 -0.5691  0.4282  0.5240
25730SOL    HW189168   3.424   6.998   7.683 -0.4253  1.6291 -0.0839
25730SOL    HW289169   3.530   6.969   7.788  0.0232  0.5161 -0.8251
25731SOL     OW89170   0.397   3.020  10.345  0.0284 -0.1507 -0.2050
25731SOL    HW189171   0.415   2.943  10.291  1.1127  0.0457 -0.1412
25731SOL    HW289172   0.375   3.088  10.281 -0.6056 -0.4228 -0.2815
25732SOL     OW89173   0.574   0.895   5.109  0.0910 -0.3188  0.0921
25732SOL    HW189174   0.487   0.862   5.133 -0.2968  0.8556  0.3979
25732SOL    HW289175   0.572   0.898   5.013  0.3852 -1.7916  0.0276
25733SOL     OW89176   5.270   5.747   9.867 -0.3158  0.0362  0.6244
25733SOL    HW189177   5.253   5.654   9.855  0.4078 -0.7340  4.2915
25733SOL    HW289178   5.350   5.763   9.816  0.2055 -1.6633  0.8334
25734SOL     OW89179   8.214   0.087   9.760  0.6048 -0.3500 -0.0494
25734SOL    HW189180   8.253   0.090   9.673 -1.8743 -0.6294 -1.2527
25734SOL    HW289181   8.275   0.036   9.812  1.3379 -1.6425 -2.0712
25735SOL     OW89182   2.670   2.761   9.609 -0.0980 -0.2629 -0.2370
25735SOL    HW189183   2.596   2.739   9.553 -3.0030  2.9119  1.9640
25735SOL    HW289184   2.718   2.828   9.560 -1.2268  0.7668  0.0315
25736SOL     OW89185   9.528   1.068   6.738  0.6437  0.3771  0.2796
25736SOL    HW189186   9.460   1.017   6.783  0.7991  0.5413  0.7010
25736SOL    HW289187   9.504   1.159   6.753  0.0563  0.4523 -0.9346
25737SOL     OW89188   5.224   3.302   8.476  0.5996  0.4904 -0.4615
25737SOL    HW189189   5.278   3.257   8.542 -0.1086  0.0296 -0.1865
25737SOL    HW289190   5.143   3.323   8.522  0.5477  1.1960 -0.8683
25738SOL     OW89191  10.369   1.999   2.534 -0.3882 -0.0954  0.1564
25738SOL    HW189192  10.452   1.955   2.520 -0.7612 -0.3308 -1.4541
25738SOL    HW289193  10.383   2.051   2.614  1.5551  0.4943 -0.5028
25739SOL     OW89194   9.223   6.716   2.995 -0.3109 -0.1050  0.6971
25739SOL    HW189195   9.151   6.715   3.058 -0.5186  0.1754  0.4731
25739SOL    HW289196   9.204   6.792   2.940  0.1838 -0.0057  0.6627
25740SOL     OW89197   9.415   6.710   1.377 -0.5627 -0.7594  0.4602
25740SOL    HW189198   9.413   6.735   1.469 -0.3001 -1.6580  0.7242
25740SOL    HW289199   9.437   6.616   1.378 -1.2470 -0.9467 -0.4840
25741SOL     OW89200   6.203   0.382   6.232  0.1439  0.1626 -0.0036
25741SOL    HW189201   6.246   0.439   6.296  1.6745 -0.2107 -0.6611
25741SOL    HW289202   6.149   0.323   6.286  0.5048  0.5965  0.8532
25742SOL     OW89203   7.397   5.836   5.195  0.3944  0.6320  0.0603
25742SOL    HW189204   7.351   5.877   5.268  1.8686 -2.8662  3.3158
25742SOL    HW289205   7.340   5.764   5.169  1.4049 -0.2444  0.2070
25743SOL     OW89206   9.642   6.802   5.915  0.6674  0.0528 -0.2919
25743SOL    HW189207   9.669   6.850   5.836 -0.5217 -0.9238 -1.3263
25743SOL    HW289208   9.616   6.716   5.883 -1.7688  0.2748  0.8828
25744SOL     OW89209   3.185   6.184   8.390 -0.4665  0.7006  0.3741
25744SOL    HW189210   3.197   6.235   8.471  0.1507  1.1728 -0.0052
25744SOL    HW289211   3.096   6.149   8.397  0.0060 -0.3239  1.8495
25745SOL     OW89212   6.345   6.645   2.893 -0.1931  0.6417 -0.0734
25745SOL    HW189213   6.398   6.592   2.953 -1.1397 -0.6724 -0.3498
25745SOL    HW289214   6.332   6.728   2.939 -1.7164 -0.6803  1.9986
25746SOL     OW89215   3.155   4.120   6.239 -0.3578  0.4433  0.4263
25746SOL    HW189216   3.174   4.027   6.246 -0.6416  0.4341  1.0808
25746SOL    HW289217   3.067   4.124   6.201  0.4508  0.4773 -1.5716
25747SOL     OW89218   1.032   2.115   4.268  0.3245 -0.2783 -0.2424
25747SOL    HW189219   0.998   2.085   4.352  1.7392  0.1444  0.5147
25747SOL    HW289220   1.085   2.192   4.290 -0.6059  0.8429 -1.7310
25748SOL     OW89221   7.841   8.613   5.242 -0.1933  0.0193 -0.9427
25748SOL    HW189222   7.770   8.678   5.246  0.1588  0.5095 -2.1606
25748SOL    HW289223   7.815   8.553   5.172 -2.5322 -3.7176  2.6918
25749SOL     OW89224   8.505   3.003   2.110 -0.0380 -0.4508 -0.3245
25749SOL    HW189225   8.582   2.957   2.078  0.1004  0.9600 -2.1685
25749SOL    HW289226   8.539   3.073   2.165 -0.1075 -0.8803  0.2719
25750SOL     OW89227   6.758   5.481   3.608  0.0545 -0.0662  0.1240
25750SOL    HW189228   6.829   5.482   3.544 -0.1245  0.0389 -0.0747
25750SOL    HW289229   6.680   5.500   3.557 -0.2332 -0.9796  0.2028
25751SOL     OW89230   5.669   9.406   9.156 -0.1848 -0.2743  0.0091
25751SOL    HW189231   5.636   9.474   9.097 -1.9113 -1.4537 -0.4780
25751SOL    HW289232   5.717   9.453   9.223  1.6514  1.1386 -2.1785
25752SOL     OW89233   2.852   9.502   0.398 -0.6953  0.4022 -0.6624
25752SOL    HW189234   2.893   9.518   0.313  0.7817  2.5632  0.3526
25752SOL    HW289235   2.923   9.514   0.461 -1.3252 -2.8984  0.8688
25753SOL     OW89236   6.196   7.095   1.791  0.4650 -0.2196 -0.4201
25753SOL    HW189237   6.139   7.109   1.715  0.1631  2.5818  0.2388
25753SOL    HW289238   6.282   7.076   1.753 -0.1852 -1.3117 -1.4247
25754SOL     OW89239   1.844   8.965   6.379  0.0238  0.0507  0.0965
25754SOL    HW189240   1.921   9.018   6.359  0.3880 -0.7140 -0.5788
25754SOL    HW289241   1.869   8.915   6.457 -0.8890  1.9843  1.7336
25755SOL     OW89242   1.833   1.682   3.625  0.6277  0.7751 -0.4917
25755SOL    HW189243   1.762   1.657   3.566  1.0467  0.2464 -0.7780
25755SOL    HW289244   1.817   1.774   3.645  0.2989  0.8680 -1.1698
25756SOL     OW89245   9.770   2.862   2.616  0.1998 -0.2531  0.4336
25756SOL    HW189246   9.759   2.769   2.635 -2.0651 -0.1262 -0.0560
25756SOL    HW289247   9.764   2.904   2.702  1.1404 -0.5153  0.6460
25757SOL     OW89248   0.230   3.562   5.205 -0.2469 -0.2432  0.5069
25757SOL    HW189249   0.321   3.533   5.204 -0.0958  0.1777 -1.4508
25757SOL    HW289250   0.236   3.658   5.207 -0.6513 -0.2211  0.7362
25758SOL     OW89251   4.570   6.149   2.496 -0.3350  0.4444  0.2892
25758SOL    HW189252   4.655   6.185   2.472 -0.6617  1.5771  0.7923
25758SOL    HW289253   4.587   6.055   2.510  0.3974  0.2365 -1.6603
25759SOL     OW89254   0.001   1.892   2.951 -0.4533  0.2362 -0.4452
25759SOL    HW189255  -0.044   1.837   2.888  1.5418 -0.8025 -1.0459
25759SOL    HW289256   0.092   1.862   2.949  0.0539  1.4277  1.5654
25760SOL     OW89257   8.008   0.319   6.651  0.1115 -0.9767  0.7595
25760SOL    HW189258   8.098   0.293   6.631  0.4873  0.8685 -0.1781
25760SOL    HW289259   7.978   0.363   6.572 -0.9532  0.1112  1.7398
25761SOL     OW89260   0.174   4.866   2.054 -0.3268 -0.2856  0.1707
25761SOL    HW189261   0.240   4.876   2.124  0.1875 -0.2930 -0.3030
25761SOL    HW289262   0.222   4.888   1.974 -1.4622  1.9074  0.0084
25762SOL     OW89263   4.084   6.770   4.830 -0.1902  0.3461  0.2874
25762SOL    HW189264   3.989   6.782   4.836 -0.2995  0.1231 -0.7449
25762SOL    HW289265   4.098   6.732   4.743  0.8726  0.6449  0.3087
25763SOL     OW89266  10.213   8.983  10.196 -0.3976  0.1868 -0.0030
25763SOL    HW189267  10.186   9.009  10.107 -1.8447 -1.4440 -0.0851
25763SOL    HW289268  10.208   9.065  10.246 -0.3190  0.9860 -1.2414
25764SOL     OW89269   2.097   0.840   3.710 -0.3818  0.3881  0.2095
25764SOL    HW189270   2.126   0.750   3.723 -0.7557  0.3907  1.1872
25764SOL    HW289271   2.043   0.838   3.631  1.1405  0.1298 -0.8446
25765SOL     OW89272   5.887   2.831   5.460 -0.2570  0.9149 -0.2999
25765SOL    HW189273   5.848   2.897   5.403 -1.2453 -0.0447 -0.7659
25765SOL    HW289274   5.814   2.777   5.488  0.5498 -0.0857 -0.0528
25766SOL     OW89275   3.904   0.659   4.426  0.2744 -0.2252 -0.3935
25766SOL    HW189276   3.976   0.634   4.484  0.5054  0.3760 -0.4172
25766SOL    HW289277   3.839   0.698   4.483  0.8783  1.1817 -0.6355
25767SOL     OW89278   7.271   6.662   4.264  0.0876  0.1006  0.1810
25767SOL    HW189279   7.270   6.668   4.359  0.9489  1.3384  0.1351
25767SOL    HW289280   7.244   6.749   4.234  0.6868  0.0014 -0.6964
25768SOL     OW89281   5.588   9.735   8.289 -0.2076  0.0957 -0.2044
25768SOL    HW189282   5.597   9.677   8.213 -0.3790 -0.5460  0.2572
25768SOL    HW289283   5.671   9.783   8.293  1.4104 -2.5953  1.4273
25769SOL     OW89284   2.131   4.715   8.212 -0.5670 -0.2962 -0.4072
25769SOL    HW189285   2.106   4.784   8.274 -2.7567 -2.0122  0.7318
25769SOL    HW289286   2.160   4.642   8.267  1.2138 -0.5601 -1.5827
25770SOL     OW89287   3.854   0.627   0.775 -0.0527  0.4180  0.0821
25770SOL    HW189288   3.876   0.647   0.866 -1.6259  3.3378 -0.0436
25770SOL    HW289289   3.812   0.541   0.779 -0.2365  0.5524  2.1556
25771SOL     OW89290   6.066   7.262   2.775  0.2420  0.0768 -0.2760
25771SOL    HW189291   6.143   7.317   2.762  0.2469  0.2322  0.3825
25771SOL    HW289292   5.993   7.323   2.774  0.2224  0.0664  0.1617
25772SOL     OW89293   6.465   0.530   1.888 -0.3178 -0.3315  0.4034
25772SOL    HW189294   6.453   0.625   1.895  0.8308  0.3438 -3.9088
25772SOL    HW289295   6.556   0.515   1.913 -0.0782 -0.0328 -0.2638
25773SOL     OW89296   9.214   0.935   0.067 -0.0861  0.4769  0.0702
25773SOL    HW189297   9.184   1.006   0.124 -0.6600  0.4439 -0.1885
25773SOL    HW289298   9.258   0.874   0.125  2.6484  2.2088  0.0115
25774SOL     OW89299   1.445   0.406   6.277 -0.0257  0.7802 -0.5578
25774SOL    HW189300   1.443   0.470   6.205  0.2456  2.3449  0.7807
25774SOL    HW289301   1.440   0.321   6.233  2.4076  1.5568 -2.6146
25775SOL     OW89302   1.522   1.934   4.866 -0.6796 -0.3502 -0.1250
25775SOL    HW189303   1.564   1.914   4.950 -0.3963 -1.6655 -0.5559
25775SOL    HW289304   1.529   2.029   4.858  2.6193 -0.4919 -0.3583
25776SOL     OW89305   2.320   3.463   7.263  0.7339 -0.4229 -0.6047
25776SOL    HW189306   2.335   3.446   7.170 -0.4984  0.6999 -1.0573
25776SOL    HW289307   2.327   3.559   7.271  3.4784 -0.6673  1.0051
25777SOL     OW89308   7.174   0.648   5.205 -0.0973  0.5217 -0.6348
25777SOL    HW189309   7.153   0.566   5.248 -0.5118  0.8662 -0.1762
25777SOL    HW289310   7.269   0.645   5.193 -0.0881  0.0653 -0.4482
25778SOL     OW89311   3.804   3.874   5.702 -0.7233 -0.4060 -0.2974
25778SOL    HW189312   3.768   3.949   5.751 -0.6988 -0.3627 -0.3456
25778SOL    HW289313   3.744   3.802   5.722 -0.5397 -0.4676  0.0403
25779SOL     OW89314   9.690   7.683   6.117 -0.0352 -0.5655 -0.4870
25779SOL    HW189315   9.771   7.690   6.168  0.2326  1.4090 -1.1013
25779SOL    HW289316   9.638   7.618   6.164  0.4274  0.7484  2.0084
25780SOL     OW89317   3.035   5.847   1.419  0.4744  0.0526 -0.1016
25780SOL    HW189318   3.113   5.898   1.440  0.9588 -1.3514  1.8468
25780SOL    HW289319   3.066   5.779   1.359  0.3007  0.6896 -0.9254
25781SOL     OW89320   9.847   4.841   5.852  0.2208 -0.4637  0.6009
25781SOL    HW189321   9.893   4.761   5.876  1.8593 -0.3559 -1.7863
25781SOL    HW289322   9.806   4.821   5.768 -0.1628  0.9110  0.4320
25782SOL     OW89323   4.805   4.921  10.005 -0.1936  0.2843 -0.3383
25782SOL    HW189324   4.784   5.012  10.026  2.9799  0.7051  1.8549
25782SOL    HW289325   4.864   4.927   9.929  1.9468  0.4020  1.2430
25783SOL     OW89326   3.574   4.450   7.853  0.0522 -0.3102  0.6246
25783SOL    HW189327   3.562   4.387   7.782  0.5309  0.1538  0.1213
25783SOL    HW289328   3.581   4.396   7.932 -0.8899 -0.8104  0.3839
25784SOL     OW89329   4.223   2.050   9.766  0.0940 -0.4501  0.5457
25784SOL    HW189330   4.245   1.978   9.706 -2.4159 -0.5550 -0.3855
25784SOL    HW289331   4.291   2.047   9.833  0.3684 -3.4055  0.2787
25785SOL     OW89332   0.761   6.704   5.429  0.7135  0.1758 -0.2526
25785SOL    HW189333   0.757   6.752   5.346  1.9835  0.9465  0.1051
25785SOL    HW289334   0.761   6.773   5.496 -2.6404 -0.4477  0.5773
25786SOL     OW89335   7.414   4.833   4.437  0.2036 -0.0608 -0.2549
25786SOL    HW189336   7.492   4.879   4.467  0.7904 -1.6864  0.8781
25786SOL    HW289337   7.444   4.744   4.419 -1.4763 -0.9073  0.8553
25787SOL     OW89338  10.270   5.075   2.349 -0.4848 -0.0658  0.6026
25787SOL    HW189339  10.312   5.159   2.364  0.4050 -0.4267  0.2794
25787SOL    HW289340  10.177   5.093   2.347 -0.2355  1.2854 -1.6216
25788SOL     OW89341   0.155   4.313   7.542 -0.4875  0.0705  0.1647
25788SOL    HW189342   0.141   4.218   7.538 -1.4245  0.1560  0.9140
25788SOL    HW289343   0.248   4.324   7.525 -0.4082 -0.9680 -0.1743
25789SOL     OW89344  10.163   8.852   1.775  0.1819 -0.1227  0.3168
25789SOL    HW189345  10.097   8.787   1.801  1.5609 -1.2720  1.0452
25789SOL    HW289346  10.142   8.929   1.827 -0.4279 -0.5588  0.7359
25790SOL     OW89347   8.306   5.723  10.127 -0.0673 -0.5531  0.5473
25790SOL    HW189348   8.224   5.698  10.085  0.3683 -0.0745 -0.6604
25790SOL    HW289349   8.339   5.795  10.073  0.0575  0.7655  2.3053
25791SOL     OW89350   0.883   0.604   6.308  0.0202  0.5119  0.1167
25791SOL    HW189351   0.803   0.646   6.338  1.1798  2.1026  1.1591
25791SOL    HW289352   0.942   0.676   6.285  0.5267 -0.6222 -2.5152
25792SOL     OW89353   9.699   5.043   3.841 -0.1004 -0.0229  0.2283
25792SOL    HW189354   9.758   5.069   3.912 -0.3758 -0.7495  0.7293
25792SOL    HW289355   9.621   5.097   3.854 -0.0714 -0.0134  0.3629
25793SOL     OW89356   8.201   2.241   4.695 -0.6558  0.5647  0.1661
25793SOL    HW189357   8.109   2.213   4.699 -0.8706  1.1049 -0.7737
25793SOL    HW289358   8.240   2.204   4.774 -1.3809 -0.7505 -0.0542
25794SOL     OW89359   9.138   1.123   0.259 -0.2514 -0.1430  0.0421
25794SOL    HW189360   9.213   1.143   0.315  0.6301  0.0911 -1.1630
25794SOL    HW289361   9.061   1.137   0.314  0.5356  1.3107  0.8247
25795SOL     OW89362   5.212   8.265   7.753 -0.2270  0.5337  0.3194
25795SOL    HW189363   5.188   8.205   7.824  1.5796  1.4133  1.7642
25795SOL    HW289364   5.130   8.282   7.707 -1.1710 -1.2976  1.2260
25796SOL     OW89365   2.938   1.545   6.418 -0.4051 -0.1482 -0.3190
25796SOL    HW189366   2.908   1.567   6.330  1.0754 -0.0426 -0.8127
25796SOL    HW289367   2.860   1.507   6.461 -1.2136  0.0591 -1.5599
25797SOL     OW89368   4.286   4.531   5.935 -0.0022  0.6320  0.8934
25797SOL    HW189369   4.238   4.595   5.988 -0.2871  0.9722  0.2459
25797SOL    HW289370   4.359   4.581   5.898  0.3186  0.3449  1.1401
25798SOL     OW89371   4.304  10.192   0.729  0.3627 -0.3344 -0.0349
25798SOL    HW189372   4.325  10.103   0.758 -0.9620 -0.9999 -0.9511
25798SOL    HW289373   4.350  10.201   0.646 -0.7054 -0.7695 -0.6976
25799SOL     OW89374   8.525   7.968   9.406 -0.0407 -0.0083 -0.8545
25799SOL    HW189375   8.478   8.000   9.329  1.2056 -0.9397 -2.0421
25799SOL    HW289376   8.473   7.894   9.437 -0.9655  0.8555 -0.3078
25800SOL     OW89377   8.983   4.246   2.415  0.7038  0.4493 -0.1835
25800SOL    HW189378   8.932   4.268   2.493 -0.2997 -0.8279 -0.4437
25800SOL    HW289379   9.065   4.295   2.425 -0.3541  2.1714  0.4921
25801SOL     OW89380   8.765   2.802   8.578  0.4700 -0.1812 -0.0446
25801SOL    HW189381   8.694   2.857   8.544 -0.9611 -0.5296  2.1455
25801SOL    HW289382   8.730   2.766   8.660  2.4765 -1.9670  0.1110
25802SOL     OW89383   8.129   7.392   0.764  0.1001  0.3230  0.3328
25802SOL    HW189384   8.201   7.354   0.714  1.6963  1.7824  1.4083
25802SOL    HW289385   8.064   7.416   0.698  0.4404 -1.2522 -0.6444
25803SOL     OW89386   1.105   7.532   2.170 -0.7008  0.4869 -0.3001
25803SOL    HW189387   1.127   7.625   2.174  0.7847  0.1241  1.4856
25803SOL    HW289388   1.107   7.510   2.077  0.6455  1.8761 -0.6421
25804SOL     OW89389   3.862   6.889   9.014  0.1872 -0.3507  0.3917
25804SOL    HW189390   3.778   6.868   8.972 -0.3080  1.0377  0.6482
25804SOL    HW289391   3.863   6.836   9.093  0.0359 -1.1734 -0.1419
25805SOL     OW89392   5.371   4.152   1.150  0.2516  0.4136  0.0067
25805SOL    HW189393   5.301   4.179   1.209  0.8357  1.1224  0.3926
25805SOL    HW289394   5.440   4.217   1.163 -0.9405  2.9493 -4.1433
25806SOL     OW89395  10.258  10.066   9.562 -0.0991 -0.5150  0.1083
25806SOL    HW189396  10.308  10.120   9.623  0.4207  1.7541 -2.1614
25806SOL    HW289397  10.323  10.006   9.525 -0.1853 -1.1157  0.8981
25807SOL     OW89398   8.424   8.004   0.846  0.3422  0.4406  0.3424
25807SOL    HW189399   8.491   7.946   0.811 -0.1669 -0.9415  1.5291
25807SOL    HW289400   8.446   8.012   0.939 -0.8968  0.2707  0.6730
25808SOL     OW89401   9.995   2.966  10.153 -0.0008 -0.3198 -0.8328
25808SOL    HW189402  10.091   2.965  10.157 -0.0203 -1.9122  0.2398
25808SOL    HW289403   9.976   2.976  10.060  1.1413  2.1593 -0.8896
25809SOL     OW89404   8.553   1.757   0.309  0.1677 -0.1643  0.0150
25809SOL    HW189405   8.499   1.793   0.239  0.2378  0.8427  0.4579
25809SOL    HW289406   8.595   1.680   0.270 -0.5951 -0.2255 -0.7150
25810SOL     OW89407   6.536   7.418   4.382  0.0766 -0.3203 -0.8315
25810SOL    HW189408   6.508   7.381   4.465 -0.0727 -0.3436 -0.8918
25810SOL    HW289409   6.544   7.512   4.399 -1.7570 -0.0482 -1.2665
25811SOL     OW89410   2.004   6.437   0.896  0.1725 -0.2655 -0.1619
25811SOL    HW189411   1.967   6.480   0.819 -1.5831 -0.7501  0.3664
25811SOL    HW289412   1.963   6.482   0.970  0.0768 -1.2924  0.4343
25812SOL     OW89413   3.542   1.158   7.373  0.3852 -0.2955  0.2118
25812SOL    HW189414   3.586   1.156   7.458  0.5147 -0.7732  0.1368
25812SOL    HW289415   3.526   1.251   7.356 -0.6688 -0.2629  1.2747
25813SOL     OW89416   1.686   7.596   1.655  0.0873 -0.1889  0.4917
25813SOL    HW189417   1.766   7.634   1.618  0.2522  0.0118  1.0343
25813SOL    HW289418   1.630   7.672   1.673 -0.1011 -0.3058  0.3930
25814SOL     OW89419   3.986   1.323  10.329 -0.1906 -0.3007 -0.4288
25814SOL    HW189420   3.951   1.393  10.384 -1.7260 -0.0206 -1.6889
25814SOL    HW289421   4.028   1.263  10.391  1.1412  1.6681  0.6951
25815SOL     OW89422   7.422  10.146   3.712  0.3228 -0.5895  0.0390
25815SOL    HW189423   7.359  10.148   3.640  1.5714 -0.3157 -1.1026
25815SOL    HW289424   7.453  10.055   3.713 -0.5108 -0.8715  0.9914
25816SOL     OW89425   9.573   1.475   3.454  0.3526 -0.1202  0.3149
25816SOL    HW189426   9.569   1.562   3.494 -1.5759  0.2365 -0.5596
25816SOL    HW289427   9.573   1.414   3.528 -1.8414  0.5497  0.9314
25817SOL     OW89428   1.555  10.018   6.962  0.2036 -0.1454 -0.8931
25817SOL    HW189429   1.604   9.936   6.959  0.2982 -0.1281 -0.1175
25817SOL    HW289430   1.566  10.056   6.875  0.4660 -0.7757 -1.1439
25818SOL     OW89431   5.045   0.720   1.289 -0.8441 -0.7288  0.3953
25818SOL    HW189432   4.981   0.651   1.303 -2.6404  1.0953  1.6943
25818SOL    HW289433   5.103   0.715   1.364 -1.2609 -0.5503  0.7348
25819SOL     OW89434   4.379   8.479   8.520 -0.9753 -0.2061  0.3047
25819SOL    HW189435   4.422   8.513   8.441  0.0560 -0.9260  0.5304
25819SOL    HW289436   4.434   8.406   8.547 -2.5313 -1.3967  0.4298
25820SOL     OW89437   4.997   2.604   4.633 -0.2404  0.0340  0.2253
25820SOL    HW189438   5.048   2.613   4.713  0.3355 -1.3768  0.0462
25820SOL    HW289439   5.013   2.684   4.584 -0.6516  0.9477  1.5298
25821SOL     OW89440   4.697   9.226   7.891  0.1671 -0.7796 -0.3262
25821SOL    HW189441   4.755   9.238   7.966 -2.5611 -1.8637  2.1215
25821SOL    HW289442   4.726   9.291   7.827  4.1040 -1.3550  0.6157
25822SOL     OW89443   9.559   9.308   6.705 -0.2430  0.6917 -0.1905
25822SOL    HW189444   9.540   9.253   6.629 -0.0640  0.7560 -0.2823
25822SOL    HW289445   9.622   9.258   6.756 -0.0760  0.8138 -0.2764
25823SOL     OW89446   6.316   2.250   7.868 -0.1004  0.0704  0.4775
25823SOL    HW189447   6.293   2.342   7.884 -1.7045 -0.3584  0.7816
25823SOL    HW289448   6.326   2.212   7.955  2.5526  0.3795  0.3731
25824SOL     OW89449   8.694   3.087   8.586 -0.4343 -0.4081 -0.3035
25824SOL    HW189450   8.785   3.084   8.556 -0.1392  1.0793  0.3668
25824SOL    HW289451   8.645   3.043   8.516  0.8780 -1.9997 -0.2658
25825SOL     OW89452   0.451   7.281   0.894 -0.3474  0.1600  0.0952
25825SOL    HW189453   0.430   7.335   0.971 -1.6833 -1.7595  1.1549
25825SOL    HW289454   0.409   7.325   0.821 -2.1563  0.1353  1.0755
25826SOL     OW89455   1.119   0.620   2.013  0.0735 -0.1499 -0.2279
25826SOL    HW189456   1.079   0.597   2.097  0.4697 -0.3767 -0.0937
25826SOL    HW289457   1.052   0.602   1.948  0.5039 -2.2264 -0.1849
25827SOL     OW89458   9.543   1.356   7.039  0.1862 -0.1444 -0.1425
25827SOL    HW189459   9.626   1.314   7.019  0.1809 -0.2549  0.0636
25827SOL    HW289460   9.518   1.321   7.125  0.6278  0.9566  0.4553
25828SOL     OW89461   7.285   8.570   7.985  0.5490 -0.3296  0.2538
25828SOL    HW189462   7.282   8.485   7.941  1.1643  0.3490 -1.1731
25828SOL    HW289463   7.223   8.562   8.056  0.1962 -1.8009 -0.1756
25829SOL     OW89464   3.405   2.817   5.470 -0.2641 -0.5557  0.2609
25829SOL    HW189465   3.459   2.845   5.544 -0.1660 -0.6015  0.2077
25829SOL    HW289466   3.390   2.896   5.419 -1.8406 -0.1529  1.2785
25830SOL     OW89467   8.611   8.940   1.301  0.6907  0.3418  0.5225
25830SOL    HW189468   8.650   8.890   1.230  0.1117  0.1596  0.3272
25830SOL    HW289469   8.654   8.907   1.380 -0.2133 -1.0226  0.4765
25831SOL     OW89470   9.999  10.005   2.412 -0.3596 -0.1026  0.5928
25831SOL    HW189471  10.073   9.948   2.434  0.8122  1.1696  0.0497
25831SOL    HW289472   9.986  10.060   2.489 -1.5878 -1.1368  1.1741
25832SOL     OW89473   6.140   3.369   8.164 -0.3064  0.2736 -0.7812
25832SOL    HW189474   6.218   3.365   8.219 -1.1114 -1.3046  0.3196
25832SOL    HW289475   6.122   3.462   8.154  0.6771  0.6184  0.4600
25833SOL     OW89476   2.246   6.004   3.838  0.1011  0.6380 -0.1497
25833SOL    HW189477   2.185   6.002   3.764 -0.0026  0.2047 -0.0572
25833SOL    HW289478   2.299   5.925   3.827  0.8179  1.1325 -0.3676
25834SOL     OW89479   9.804   6.956   9.795  0.0784  0.3490 -0.2064
25834SOL    HW189480   9.867   7.023   9.823 -0.0674  0.8893 -1.1430
25834SOL    HW289481   9.769   6.922   9.877  0.7926  0.8075  0.3070
25835SOL     OW89482   9.403   0.314   1.507 -0.1106 -0.1642 -0.2843
25835SOL    HW189483   9.335   0.294   1.572 -0.6494  1.2991 -0.3552
25835SOL    HW289484   9.482   0.273   1.542 -0.4927  0.1775  1.0608
25836SOL     OW89485   7.324   8.218  10.254 -0.4141 -0.0711 -0.2327
25836SOL    HW189486   7.415   8.196  10.235 -0.5213 -1.4348  0.7103
25836SOL    HW289487   7.319   8.313  10.242  0.9902 -0.0495 -0.8074
25837SOL     OW89488   6.666   2.766   9.233  0.2534 -0.1226 -0.0773
25837SOL    HW189489   6.571   2.756   9.231  0.2454 -0.0148 -0.3785
25837SOL    HW289490   6.698   2.695   9.177  0.3321  0.0132 -0.2071
25838SOL     OW89491   4.500   3.546   6.106  0.2987 -0.1408  0.2733
25838SOL    HW189492   4.433   3.596   6.152 -0.5289  0.7850 -1.7875
25838SOL    HW289493   4.460   3.525   6.021  2.5583  0.4037 -1.0243
25839SOL     OW89494   3.093   6.974   0.590  0.4475 -0.3942  0.2146
25839SOL    HW189495   3.063   7.014   0.509 -1.8652  2.7012  2.3957
25839SOL    HW289496   3.178   7.016   0.607  0.2414  0.0534  0.1442
25840SOL     OW89497   8.861   1.047   8.561 -0.7469 -0.3004  0.3383
25840SOL    HW189498   8.865   1.030   8.656 -0.8860 -1.9075  0.0821
25840SOL    HW289499   8.787   1.107   8.551 -1.7290 -1.3564  1.1055
25841SOL     OW89500   0.267   6.099   3.817 -0.3060  0.4802 -0.4274
25841SOL    HW189501   0.284   6.059   3.732 -0.9210  0.6110 -0.6183
25841SOL    HW289502   0.265   6.193   3.800 -3.1183  0.4470 -0.8266
25842SOL     OW89503   8.631   3.854   9.616  0.0750  0.2672  0.3670
25842SOL    HW189504   8.658   3.927   9.559 -0.9624  0.1188 -0.3416
25842SOL    HW289505   8.561   3.891   9.670  0.8573  0.3213  1.3642
25843SOL     OW89506   3.665   7.159   9.899  0.6559  0.2501  0.2498
25843SOL    HW189507   3.624   7.074   9.914  0.6334  0.2588  0.2372
25843SOL    HW289508   3.758   7.145   9.919  1.1054 -0.3856 -2.0013
25844SOL     OW89509   9.558  10.063   3.015  0.3961 -0.3813 -0.3140
25844SOL    HW189510   9.494  10.087   2.947  2.6203  1.1891 -2.0061
25844SOL    HW289511   9.576   9.971   2.999 -3.3041 -1.7051  1.9465
25845SOL     OW89512   6.578   6.540   7.541  0.4354 -0.1038 -0.0997
25845SOL    HW189513   6.552   6.510   7.628 -1.6603  2.9587  0.4905
25845SOL    HW289514   6.550   6.470   7.482  1.6907 -2.1299  1.5911
25846SOL     OW89515   4.908   4.078   4.860 -0.1860  0.2433  0.3323
25846SOL    HW189516   4.966   4.036   4.797  0.3227 -0.6803  1.3787
25846SOL    HW289517   4.963   4.144   4.902  0.3058 -0.9871  1.6942
25847SOL     OW89518   5.618   9.471   1.491  0.3502  0.2601  0.2982
25847SOL    HW189519   5.642   9.403   1.554 -0.7948  0.3842  0.9045
25847SOL    HW289520   5.681   9.541   1.504  2.2676 -1.0904 -1.1091
25848SOL     OW89521   7.627   6.859   6.839  0.1043  0.2117 -0.3918
25848SOL    HW189522   7.584   6.929   6.791 -0.9396  1.7356  2.4977
25848SOL    HW289523   7.701   6.901   6.883  2.7900 -1.7030 -2.6926
25849SOL     OW89524   6.611   1.573   9.640  0.1816  0.5507 -0.3706
25849SOL    HW189525   6.529   1.619   9.656  0.6426  1.0578  0.5959
25849SOL    HW289526   6.679   1.635   9.664  0.9476  0.9383 -3.1490
25850SOL     OW89527   1.128   8.124   5.837  0.5443 -0.6761 -0.4492
25850SOL    HW189528   1.136   8.072   5.917  0.6611  0.9921  0.6828
25850SOL    HW289529   1.196   8.090   5.779  1.4103 -1.0070  0.7242
25851SOL     OW89530   9.348   2.295   6.659  0.3681  0.1603  0.3848
25851SOL    HW189531   9.444   2.286   6.664  0.6578  2.0940 -0.8880
25851SOL    HW289532   9.322   2.233   6.590  0.5266 -1.1257  1.4290
25852SOL     OW89533   1.270   1.003   7.978 -0.3426 -0.2184 -1.2144
25852SOL    HW189534   1.362   1.029   7.970 -0.5970  0.5503 -1.7457
25852SOL    HW289535   1.272   0.907   7.977  0.5899 -0.2650  0.3934
25853SOL     OW89536   1.591  10.353   5.523 -0.2771  0.1442  0.2361
25853SOL    HW189537   1.681  10.332   5.500 -0.3233 -0.6808  0.7529
25853SOL    HW289538   1.540  10.281   5.486 -0.5848 -0.0400  1.0059
25854SOL     OW89539   4.247   8.005   1.690 -0.5967  0.2127  0.1289
25854SOL    HW189540   4.175   7.961   1.645 -0.7665  0.3737  0.2384
25854SOL    HW289541   4.255   8.090   1.647  0.1659 -0.1746 -0.5156
25855SOL     OW89542   9.276   1.553   4.247 -0.1551 -0.0413 -0.0448
25855SOL    HW189543   9.209   1.501   4.289  0.4050  0.2160  1.2016
25855SOL    HW289544   9.258   1.643   4.275  0.4942  0.0746  0.0282
25856SOL     OW89545   8.505   9.688   2.634 -0.6064 -0.6746  0.1355
25856SOL    HW189546   8.452   9.681   2.713 -1.4853  0.1959 -0.3610
25856SOL    HW289547   8.482   9.772   2.596  1.3311 -0.1369  0.0221
25857SOL     OW89548   3.725   5.031   5.333 -0.2483  0.0483 -0.2597
25857SOL    HW189549   3.736   4.986   5.249  2.1783  0.8912 -0.4447
25857SOL    HW289550   3.720   4.960   5.397 -0.3402 -0.5585 -0.9219
25858SOL     OW89551   5.653   5.851   9.284  0.0989  0.5711 -0.1755
25858SOL    HW189552   5.676   5.935   9.245  1.1015  0.8213  0.8988
25858SOL    HW289553   5.734   5.801   9.285 -0.6068 -0.6916 -1.3765
25859SOL     OW89554   0.725   7.399   7.366 -0.2926  0.7088  0.1522
25859SOL    HW189555   0.808   7.382   7.322 -0.3985 -0.5056  0.3849
25859SOL    HW289556   0.743   7.471   7.426  0.3148  1.1524 -0.5415
25860SOL     OW89557   0.042   8.907   7.812 -0.0306  0.2189  0.1920
25860SOL    HW189558   0.065   8.857   7.891 -0.1231  0.1592  0.1817
25860SOL    HW289559  -0.024   8.853   7.768  1.2350 -0.5674 -0.7973
25861SOL     OW89560   8.299   7.874   8.482  0.4540 -0.1044  0.3552
25861SOL    HW189561   8.258   7.893   8.567 -1.1438 -1.3710 -0.0832
25861SOL    HW289562   8.349   7.793   8.498  2.9489  1.4257  0.8888
25862SOL     OW89563   4.109   8.470   2.536  0.1080 -0.0599  0.6107
25862SOL    HW189564   4.172   8.539   2.517  1.1970 -1.1485  0.1659
25862SOL    HW289565   4.090   8.479   2.629 -0.3231  1.2759  0.4172
25863SOL     OW89566   6.920   3.855   2.903  0.1013  0.0852  0.0256
25863SOL    HW189567   6.958   3.921   2.844  0.9112 -0.4905 -0.1103
25863SOL    HW289568   6.854   3.811   2.850  0.4409 -0.0594 -0.2826
25864SOL     OW89569   2.859   7.548   1.897  0.3511  0.1970 -0.2502
25864SOL    HW189570   2.802   7.479   1.863  0.7925  0.8829 -2.4979
25864SOL    HW289571   2.798   7.616   1.927 -0.0322  0.0799 -0.7601
25865SOL     OW89572   3.409   9.803   6.344 -0.5730 -0.8306  0.0545
25865SOL    HW189573   3.499   9.776   6.322  0.1392 -0.2116  1.9695
25865SOL    HW289574   3.418   9.849   6.428 -2.8481 -1.7502  0.8715
25866SOL     OW89575   6.401   9.569   2.311 -0.3044  0.5082  0.5176
25866SOL    HW189576   6.376   9.570   2.218 -0.6373  0.1458  0.6004
25866SOL    HW289577   6.481   9.517   2.313 -0.1315  0.7672  0.3946
25867SOL     OW89578   8.122   8.114  10.336  0.1424 -0.3579  0.3078
25867SOL    HW189579   8.212   8.104  10.306  1.0225  1.9529  1.9081
25867SOL    HW289580   8.130   8.136  10.429 -1.8000  3.2722 -0.2013
25868SOL     OW89581   3.912   9.199   9.347  0.9747 -0.1342 -0.8034
25868SOL    HW189582   3.922   9.112   9.385  2.6818  0.4914  0.2988
25868SOL    HW289583   3.996   9.215   9.303  0.4953  0.7739 -1.4200
25869SOL     OW89584   5.844   3.130   1.508 -0.7495  0.3290 -0.2367
25869SOL    HW189585   5.916   3.191   1.490  1.5487 -1.8504  0.9072
25869SOL    HW289586   5.839   3.127   1.604 -2.3082  0.3169 -0.2892
25870SOL     OW89587   8.132   3.821   9.899  0.4129  0.0609  0.3419
25870SOL    HW189588   8.095   3.909   9.891 -0.3833 -0.0357  2.4151
25870SOL    HW289589   8.059   3.762   9.880  0.4222 -0.1387  0.9123
25871SOL     OW89590   5.501   8.428   8.677 -0.0012 -0.1572 -0.5144
25871SOL    HW189591   5.495   8.385   8.762  2.9719 -0.1832 -0.2371
25871SOL    HW289592   5.519   8.357   8.615  1.2672  0.2451 -0.6201
25872SOL     OW89593   8.217  10.172   7.623 -0.2342 -0.1592 -0.3198
25872SOL    HW189594   8.209  10.077   7.622 -0.8432 -0.1032 -0.6384
25872SOL    HW289595   8.281  10.191   7.554 -0.4883 -0.2993 -0.5937
25873SOL     OW89596   6.161   7.889   7.826 -0.0410 -0.4859 -0.5948
25873SOL    HW189597   6.122   7.932   7.749 -0.0183  0.9801  0.1661
25873SOL    HW289598   6.255   7.906   7.818  0.2757 -2.3796 -1.4380
25874SOL     OW89599   6.016   6.502   7.346 -0.0740 -0.3936  0.0132
25874SOL    HW189600   6.044   6.571   7.285 -2.3519 -0.0975 -0.7726
25874SOL    HW289601   5.982   6.433   7.290  1.7201 -2.0374  0.8265
25875SOL     OW89602   4.094   9.376   4.514 -0.4325 -0.4545 -0.4027
25875SOL    HW189603   4.108   9.363   4.421 -0.1420  0.9026 -0.5621
25875SOL    HW289604   4.117   9.291   4.554  2.9770 -0.0521 -1.1850
25876SOL     OW89605   3.836   4.186   7.933 -0.2883  0.1550 -0.5529
25876SOL    HW189606   3.909   4.229   7.887  0.2385  0.0353  0.1542
25876SOL    HW289607   3.879   4.120   7.988 -0.9572 -0.0847 -0.3167
25877SOL     OW89608   5.263   9.274   5.210  0.1094  0.1664  0.3069
25877SOL    HW189609   5.216   9.288   5.128  1.4687 -1.2795 -0.7852
25877SOL    HW289610   5.355   9.265   5.183  0.3864 -2.1120  1.7378
25878SOL     OW89611   0.746   6.561   5.747 -0.1394 -0.5039 -0.4516
25878SOL    HW189612   0.692   6.505   5.803 -0.9908 -1.6304 -2.3232
25878SOL    HW289613   0.708   6.648   5.757 -0.2096 -0.6505  0.7711
25879SOL     OW89614   1.858   0.320   7.453  0.2161  0.2012 -0.2160
25879SOL    HW189615   1.791   0.323   7.385  0.4619 -0.6120 -0.5031
25879SOL    HW289616   1.919   0.389   7.429  0.1621  0.0910 -0.6772
25880SOL     OW89617   1.348   8.433   5.656  0.4129 -0.0203  0.0378
25880SOL    HW189618   1.418   8.499   5.664  1.3032 -0.8885 -0.3599
25880SOL    HW289619   1.298   8.441   5.737  1.0720  0.5193  0.3982
25881SOL     OW89620   5.692   2.130   6.443  0.4441 -0.5820  0.6932
25881SOL    HW189621   5.675   2.039   6.417  1.2419 -0.7317  0.6637
25881SOL    HW289622   5.654   2.182   6.373  1.3030 -0.9450 -0.0632
25882SOL     OW89623   9.481   3.229  10.200  0.0137 -0.3740 -0.1687
25882SOL    HW189624   9.531   3.246  10.280  0.1873 -0.1308 -0.3262
25882SOL    HW289625   9.544   3.245  10.129 -0.5126  0.8034 -0.4022
25883SOL     OW89626   1.691   4.133   1.425 -0.3052 -0.2320 -0.5571
25883SOL    HW189627   1.703   4.060   1.364 -1.7893  0.1638 -1.3537
25883SOL    HW289628   1.600   4.160   1.413 -0.5195  0.1254  1.5539
25884SOL     OW89629   3.201   1.737   7.550  0.7739 -0.3755 -0.6200
25884SOL    HW189630   3.204   1.831   7.533  1.4223 -0.3124 -0.2086
25884SOL    HW289631   3.122   1.707   7.505 -0.6578  0.7214  1.0330
25885SOL     OW89632   1.849   9.101   5.417 -0.2307 -0.2864 -0.3692
25885SOL    HW189633   1.833   9.190   5.447 -1.4189 -0.6645  0.1688
25885SOL    HW289634   1.870   9.052   5.497 -0.0371 -0.5929 -0.6015
25886SOL     OW89635   6.319   5.871   8.004 -0.6760 -0.3816  0.7404
25886SOL    HW189636   6.362   5.793   8.037  0.9455 -0.1520 -0.6910
25886SOL    HW289637   6.252   5.838   7.943  1.2183 -0.7004 -1.2856
25887SOL     OW89638   4.202   3.054   2.204 -0.4004 -0.0744  0.4190
25887SOL    HW189639   4.195   2.982   2.268 -0.2152  0.2811  0.8485
25887SOL    HW289640   4.285   3.097   2.226 -0.6737  0.4793  0.3938
25888SOL     OW89641   5.945  10.308   2.341  0.0630  0.6271  0.3229
25888SOL    HW189642   5.968  10.294   2.249  2.7486 -0.4693  1.0810
25888SOL    HW289643   6.008  10.255   2.390 -3.2715 -1.4549  2.7811
25889SOL     OW89644   0.971   9.992   3.886  0.0388 -1.0159 -0.1033
25889SOL    HW189645   1.006   9.926   3.826  2.4879 -0.9905  1.1553
25889SOL    HW289646   1.020  10.071   3.866 -1.1089 -0.2404  0.0655
25890SOL     OW89647   5.150   3.867   4.036  0.4590 -0.1399 -0.4805
25890SOL    HW189648   5.202   3.929   4.088 -0.5623  0.3687 -0.0205
25890SOL    HW289649   5.090   3.827   4.099 -0.0544 -0.3332 -1.0743
25891SOL     OW89650   2.273   1.917   3.097 -0.1410 -0.7649 -0.1752
25891SOL    HW189651   2.236   1.832   3.076 -1.9560 -0.3995  1.3469
25891SOL    HW289652   2.198   1.973   3.114  1.0498  0.4244  1.5376
25892SOL     OW89653   6.464   6.633   1.699  0.2517 -0.3499  0.2008
25892SOL    HW189654   6.372   6.608   1.704 -0.5946  1.9024 -2.0281
25892SOL    HW289655   6.497   6.591   1.620  0.6576  0.1460  0.0959
25893SOL     OW89656   3.989   0.009   5.892 -0.4400  0.2341  0.5354
25893SOL    HW189657   3.963  -0.083   5.890 -1.6949  0.5690  0.2066
25893SOL    HW289658   3.988   0.032   5.985 -0.0406 -0.0937  0.6257
25894SOL     OW89659   2.713   8.786   6.806 -0.5720 -0.5054 -1.0263
25894SOL    HW189660   2.719   8.755   6.716 -0.5115 -0.2840 -1.0981
25894SOL    HW289661   2.790   8.843   6.817  0.2211 -1.6454 -0.4050
25895SOL     OW89662   9.161   6.385   8.121 -0.4597 -0.1015 -0.1190
25895SOL    HW189663   9.084   6.328   8.113 -0.6966  0.3499 -1.2057
25895SOL    HW289664   9.128   6.473   8.102 -0.1617  0.4848  1.8592
25896SOL     OW89665   9.810   5.675   6.364 -0.5396  0.6067  0.0455
25896SOL    HW189666   9.832   5.684   6.271  0.5205  3.8998  0.4882
25896SOL    HW289667   9.715   5.688   6.367 -0.5767  0.5120 -0.5675
25897SOL     OW89668   3.566   1.663   5.773 -0.1567 -0.6779 -0.0729
25897SOL    HW189669   3.590   1.573   5.796 -0.6651 -0.7998  0.0020
25897SOL    HW289670   3.497   1.686   5.836  0.2444 -0.0916  0.1683
25898SOL     OW89671   4.042   4.075   8.479 -0.0759 -1.0294 -0.1417
25898SOL    HW189672   3.969   4.015   8.464 -0.8685 -0.3101  0.6944
25898SOL    HW289673   4.119   4.019   8.481 -0.5334 -1.7498 -1.4992
25899SOL     OW89674   9.739   9.349   4.604 -0.5165  0.6723 -0.4841
25899SOL    HW189675   9.800   9.407   4.559 -1.0413  0.7699 -1.0927
25899SOL    HW289676   9.657   9.399   4.608 -0.6608  0.4077 -0.0041
25900SOL     OW89677   8.403   5.743   0.113  0.3144  0.1157 -0.4922
25900SOL    HW189678   8.400   5.836   0.091  1.1810  0.3356  0.3090
25900SOL    HW289679   8.473   5.708   0.058  1.8477  0.4869  1.1377
25901SOL     OW89680   2.536   1.470   5.219  0.1127 -0.3233 -0.8094
25901SOL    HW189681   2.588   1.441   5.294 -0.4668  2.2525  0.6967
25901SOL    HW289682   2.451   1.427   5.231  0.5892 -1.3623 -1.0466
25902SOL     OW89683   5.806   6.460   5.883 -0.1411 -0.6349  0.0634
25902SOL    HW189684   5.901   6.468   5.890 -0.3007  1.4503  0.6192
25902SOL    HW289685   5.776   6.458   5.974 -0.6586 -0.4130 -0.0991
25903SOL     OW89686   7.301   1.948   3.926 -0.4282 -0.4361  0.3252
25903SOL    HW189687   7.365   2.004   3.882 -1.3698  1.0081  0.7441
25903SOL    HW289688   7.224   1.949   3.870 -0.3838 -1.5445  0.2131
25904SOL     OW89689   7.002   2.894  10.301 -0.6634  0.4787 -0.0193
25904SOL    HW189690   7.036   2.818  10.254 -0.1583  1.2609 -0.9443
25904SOL    HW289691   6.907   2.882  10.299 -0.5629 -0.4779  0.4629
25905SOL     OW89692   9.265  10.327   3.067 -0.4257 -0.2586 -0.4569
25905SOL    HW189693   9.235  10.236   3.070  0.7591 -0.6452  0.1169
25905SOL    HW289694   9.360  10.321   3.056 -0.3775  0.9121 -0.7761
25906SOL     OW89695   4.343   8.975   2.039  0.0580 -0.1891 -0.0058
25906SOL    HW189696   4.421   9.031   2.035  0.4488 -0.7478 -0.4998
25906SOL    HW289697   4.309   8.988   2.127  1.8829 -1.4494  0.9523
25907SOL     OW89698   9.873   3.490   4.325  0.7023 -0.7884  0.1514
25907SOL    HW189699   9.947   3.549   4.340 -1.0726  1.2936  1.3377
25907SOL    HW289700   9.796   3.541   4.352 -1.0776 -3.2369  0.0275
25908SOL     OW89701   3.621   1.979   7.799  0.0265  0.0469  0.6085
25908SOL    HW189702   3.584   1.982   7.711  0.5939 -0.6929  0.3306
25908SOL    HW289703   3.707   1.937   7.787  1.1827  2.0841  1.1559
25909SOL     OW89704   0.453   3.801   6.079  0.7546 -0.1699 -0.5489
25909SOL    HW189705   0.512   3.770   6.010  0.0068 -0.8747 -0.8910
25909SOL    HW289706   0.419   3.884   6.047  0.1954 -0.6319 -1.1640
25910SOL     OW89707   9.892   9.857   5.319  0.0897  0.3732  0.0909
25910SOL    HW189708   9.919   9.934   5.268 -1.0437  0.9672  0.3580
25910SOL    HW289709   9.974   9.818   5.347  0.7068  1.0894 -0.6388
25911SOL     OW89710  10.196   3.038   3.874 -0.2246 -0.0662 -0.1916
25911SOL    HW189711  10.126   3.103   3.876 -2.0868 -2.0015  1.3823
25911SOL    HW289712  10.267   3.077   3.925 -1.3210  0.7122  0.7563
25912SOL     OW89713   0.484   8.018   0.375  0.4910  0.4200  0.6742
25912SOL    HW189714   0.564   8.029   0.427  0.4089  2.1976  0.4767
25912SOL    HW289715   0.437   8.100   0.385 -1.0126 -0.3455  0.2269
25913SOL     OW89716   5.738   8.942   8.155 -0.0162  0.4150  0.6808
25913SOL    HW189717   5.827   8.936   8.190  1.0205  0.4535 -1.7505
25913SOL    HW289718   5.698   8.858   8.175  2.1090 -1.3591 -1.9090
25914SOL     OW89719   6.046   3.427   4.949 -0.7486  0.2341 -0.1651
25914SOL    HW189720   5.971   3.485   4.938 -1.0916 -0.3573 -1.0994
25914SOL    HW289721   6.054   3.382   4.865 -0.7526 -1.3816  0.6658
25915SOL     OW89722   3.535   1.412   0.603  0.3072 -0.3683  0.1604
25915SOL    HW189723   3.609   1.425   0.543 -1.2057  0.6692 -1.6055
25915SOL    HW289724   3.471   1.363   0.551 -0.3605 -1.0384  1.5738
25916SOL     OW89725   5.175   1.242   4.969 -0.2965  0.7302  0.1216
25916SOL    HW189726   5.116   1.288   5.029  0.5317  2.4863 -0.3519
25916SOL    HW289727   5.207   1.167   5.020  0.7730  2.4345  2.1155
25917SOL     OW89728   8.513   6.328   6.521 -0.2388  0.3347 -0.9181
25917SOL    HW189729   8.608   6.327   6.531 -0.4115 -0.2110  1.0818
25917SOL    HW289730   8.499   6.357   6.431  1.8166  0.0371 -1.3915
25918SOL     OW89731   8.802   1.533   1.572 -0.4641  0.5081  0.1505
25918SOL    HW189732   8.856   1.494   1.504  0.8905  1.4305  0.6556
25918SOL    HW289733   8.715   1.493   1.560 -0.4341  1.0309 -2.4349
25919SOL     OW89734   1.867   1.819   1.594  0.1230  0.0184 -0.0809
25919SOL    HW189735   1.797   1.772   1.640 -0.0864 -0.7523 -1.1526
25919SOL    HW289736   1.839   1.819   1.502  0.0334  2.4140 -0.1026
25920SOL     OW89737   1.272   0.413   5.156  0.4233 -0.0112 -0.3687
25920SOL    HW189738   1.249   0.334   5.107  1.0081  0.2873 -1.1569
25920SOL    HW289739   1.230   0.402   5.241 -0.9864 -0.3521 -1.0698
25921SOL     OW89740   4.122   5.725   7.147  0.8953  0.1482  0.2192
25921SOL    HW189741   4.048   5.760   7.196 -0.0797  0.3820 -1.3401
25921SOL    HW289742   4.111   5.761   7.059  2.2504 -0.7130 -0.3294
25922SOL     OW89743   0.826   9.739   6.717 -0.5926  0.3912  0.1848
25922SOL    HW189744   0.809   9.802   6.647 -0.7513 -0.2915 -0.4009
25922SOL    HW289745   0.878   9.670   6.675 -1.7881 -0.6694  0.4134
25923SOL     OW89746   2.490   8.187   9.200  0.5851 -0.1361  0.0671
25923SOL    HW189747   2.551   8.120   9.169  0.3241  0.1558 -1.1199
25923SOL    HW289748   2.409   8.138   9.220  0.3702 -0.1791 -0.8699
25924SOL     OW89749   3.373   4.595   5.687  0.0575  0.5654  0.3711
25924SOL    HW189750   3.429   4.673   5.689 -0.7328  1.1431  1.0133
25924SOL    HW289751   3.287   4.628   5.661 -0.8300  0.3168  2.7057
25925SOL     OW89752   2.528   4.555   7.141 -0.0443  0.5742  0.1562
25925SOL    HW189753   2.502   4.580   7.230 -1.4595 -2.7844  0.8342
25925SOL    HW289754   2.605   4.499   7.155 -1.9329 -2.3515 -0.3045
25926SOL     OW89755   6.749  10.096   1.379 -0.1596 -0.0971 -0.3093
25926SOL    HW189756   6.693  10.023   1.405 -0.9941  0.3216 -0.8913
25926SOL    HW289757   6.704  10.174   1.412  0.4696  0.1980 -0.1257
25927SOL     OW89758   8.653   9.372   2.518 -0.1875 -0.0012 -0.2026
25927SOL    HW189759   8.653   9.372   2.423 -0.5178  0.2410 -0.2010
25927SOL    HW289760   8.616   9.456   2.543 -0.2851 -0.1444  0.1424
25928SOL     OW89761   2.453   7.375   7.189 -0.9496  0.0410  0.0572
25928SOL    HW189762   2.526   7.420   7.145 -1.0539  1.2673  1.0838
25928SOL    HW289763   2.424   7.437   7.256 -1.6892 -1.2306  0.9408
25929SOL     OW89764   1.670   1.983   8.451  0.0343  0.3563  0.0009
25929SOL    HW189765   1.717   2.017   8.527  1.0559 -2.6103  0.8442
25929SOL    HW289766   1.737   1.937   8.400 -1.0302  0.4842 -1.5795
25930SOL     OW89767   3.897   3.031   5.629 -0.5830  0.5930 -0.3387
25930SOL    HW189768   3.883   3.052   5.721 -0.2834 -1.8771  0.3453
25930SOL    HW289769   3.808   3.027   5.592 -0.8342 -0.1458  0.3092
25931SOL     OW89770   0.765   7.671   7.498 -0.0258  0.4634  0.3334
25931SOL    HW189771   0.830   7.741   7.506  0.8043 -0.2731  0.2716
25931SOL    HW289772   0.681   7.714   7.513  0.4722  1.4471  0.4017
25932SOL     OW89773   0.357   7.216  10.331  0.0756  0.8362 -0.1641
25932SOL    HW189774   0.268   7.226  10.364  0.9390  0.0882  2.6378
25932SOL    HW289775   0.370   7.121  10.324  0.4146  0.9495 -1.3781
25933SOL     OW89776   4.646   4.370   2.184 -0.3353 -0.5835  0.3536
25933SOL    HW189777   4.709   4.367   2.256 -1.4261 -0.7496  1.3454
25933SOL    HW289778   4.588   4.443   2.206 -0.0530  0.0440 -0.9246
25934SOL     OW89779   4.440  10.338   1.570 -0.1410 -0.2152  0.5693
25934SOL    HW189780   4.431  10.361   1.478  0.9038  0.4500  0.6201
25934SOL    HW289781   4.446  10.422   1.616 -0.2682 -0.5427  1.2009
25935SOL     OW89782   7.879   3.530   5.080  0.4756 -0.0881 -0.3080
25935SOL    HW189783   7.927   3.574   5.150 -0.5266  0.8853 -0.2052
25935SOL    HW289784   7.843   3.451   5.121  0.6529  0.0021  0.0237
25936SOL     OW89785   6.731   8.973   6.730 -1.0226  0.0601 -0.0803
25936SOL    HW189786   6.728   8.933   6.817 -3.0606  0.5517  0.1401
25936SOL    HW289787   6.750   8.901   6.670  1.1829 -0.1596  0.7925
25937SOL     OW89788   0.651   9.234   4.778 -0.2829  0.2200 -0.6034
25937SOL    HW189789   0.745   9.239   4.761 -0.0125 -0.7557  0.4561
25937SOL    HW289790   0.612   9.297   4.718  1.0733  0.8374 -0.8653
25938SOL     OW89791   1.948   2.648   5.234  0.5771 -0.1804 -0.1787
25938SOL    HW189792   1.906   2.652   5.320 -0.0832  0.9338 -0.5292
25938SOL    HW289793   1.902   2.715   5.182  0.2939 -1.4955 -1.6972
25939SOL     OW89794   1.058   2.628   1.192 -0.8687 -0.9395  0.9443
25939SOL    HW189795   1.102   2.556   1.237 -0.4168 -0.4394  1.3321
25939SOL    HW289796   1.029   2.592   1.109  2.4370 -0.7109 -0.4494
25940SOL     OW89797   6.540   3.066   8.709 -0.3814 -0.2283  0.1018
25940SOL    HW189798   6.475   2.997   8.722  1.4325 -2.0464 -0.0175
25940SOL    HW289799   6.577   3.047   8.622 -0.6354  1.6319 -0.4625
25941SOL     OW89800   1.449   3.866   0.806  0.2112 -0.3448 -0.2055
25941SOL    HW189801   1.515   3.797   0.800  0.2645 -0.3251  0.1251
25941SOL    HW289802   1.493   3.936   0.855  0.2132 -0.0101 -0.6788
25942SOL     OW89803   3.869   5.994   3.862  0.4356  0.2093 -0.8353
25942SOL    HW189804   3.849   6.057   3.932  3.2915 -0.5976  0.8920
25942SOL    HW289805   3.920   6.045   3.799  1.4240  0.0359 -0.2026
25943SOL     OW89806   9.057   4.612   6.349 -0.3452 -0.4547 -0.3085
25943SOL    HW189807   8.993   4.558   6.396  1.2544 -0.3263  2.2641
25943SOL    HW289808   9.113   4.648   6.418  1.7211  0.4577 -2.3103
25944SOL     OW89809   4.890   9.914   8.217 -0.0096 -0.3636 -0.5086
25944SOL    HW189810   4.986   9.914   8.224  0.0465 -1.9302 -0.8341
25944SOL    HW289811   4.867  10.006   8.207  1.3928  0.1236  0.3772
25945SOL     OW89812   4.402   6.674   8.994 -0.2233 -0.0722  0.4526
25945SOL    HW189813   4.367   6.761   8.979  1.7468  0.9865  1.5770
25945SOL    HW289814   4.380   6.625   8.915  0.2614  2.0219 -1.0626
25946SOL     OW89815   5.760   5.579   3.639 -0.3136  0.5816  0.6748
25946SOL    HW189816   5.814   5.501   3.634 -1.0406  0.0126  1.4612
25946SOL    HW289817   5.822   5.652   3.645  0.3688 -0.0747  1.8320
25947SOL     OW89818   4.562   9.690   6.203 -0.1473 -0.0485  0.1205
25947SOL    HW189819   4.563   9.611   6.149  1.0821  1.0848 -1.6403
25947SOL    HW289820   4.633   9.677   6.265  0.4736 -0.0859 -0.5824
25948SOL     OW89821   2.042   2.899   6.593  0.4090  0.5728  0.0790
25948SOL    HW189822   2.126   2.874   6.554 -0.0004 -0.6828 -0.0369
25948SOL    HW289823   2.018   2.980   6.548  0.7783  0.0741 -1.0459
25949SOL     OW89824   6.048   4.501   6.769  0.4528 -0.1078  0.0418
25949SOL    HW189825   6.048   4.461   6.856 -2.0352 -0.4220 -0.0282
25949SOL    HW289826   5.998   4.581   6.779  0.0256 -0.2078 -1.1149
25950SOL     OW89827   8.545   7.627   1.821  0.3057  0.2315  0.1641
25950SOL    HW189828   8.503   7.587   1.745  2.3588 -0.1695 -0.8441
25950SOL    HW289829   8.531   7.564   1.892 -0.8970  0.2019 -0.0800
25951SOL     OW89830   1.006   0.553   3.021  0.1468 -0.2936 -0.6451
25951SOL    HW189831   1.079   0.615   3.021  0.5577 -0.7685 -0.6190
25951SOL    HW289832   1.020   0.499   2.943  0.3777 -1.0118 -0.1239
25952SOL     OW89833   2.597   8.084   9.539 -0.1706 -0.5065  0.3395
25952SOL    HW189834   2.510   8.071   9.501 -0.1136 -1.7051  0.5923
25952SOL    HW289835   2.589   8.056   9.630 -0.2559  2.1789  1.2610
25953SOL     OW89836   9.738   5.950   5.201  0.0129 -0.7384 -0.0734
25953SOL    HW189837   9.777   5.962   5.287 -1.5475 -0.4196  0.6309
25953SOL    HW289838   9.786   5.878   5.161  0.0972 -1.5545  1.4698
25954SOL     OW89839   3.384   4.055   3.455  0.1517 -0.1941 -0.3004
25954SOL    HW189840   3.434   3.996   3.511  1.5205  0.0062 -1.2590
25954SOL    HW289841   3.374   4.135   3.506  0.4806 -0.3714  0.0408
25955SOL     OW89842   8.039   6.987   9.881 -0.0623 -0.0419  0.1788
25955SOL    HW189843   8.094   6.920   9.923  0.2171  0.3579  0.4629
25955SOL    HW289844   8.047   7.064   9.938 -0.4856  0.1928 -0.0726
25956SOL     OW89845   1.811   5.371   0.521  0.1972 -0.0199  0.6085
25956SOL    HW189846   1.808   5.283   0.558  0.3344 -0.3539 -0.1551
25956SOL    HW289847   1.762   5.425   0.583 -0.1992 -0.7019  0.8975
25957SOL     OW89848   7.838   7.993   8.391  0.1480 -0.0860 -0.4308
25957SOL    HW189849   7.786   7.938   8.333  0.0787 -0.2263 -0.2371
25957SOL    HW289850   7.875   8.061   8.334 -1.9433  1.2774 -0.2833
25958SOL     OW89851   3.495   2.023   5.492  0.3739 -0.2413  0.2602
25958SOL    HW189852   3.550   1.987   5.562  0.7530 -0.6504 -0.2437
25958SOL    HW289853   3.415   2.052   5.537 -0.9999 -3.8238  0.4451
25959SOL     OW89854   9.672   3.903   4.989 -0.6661 -0.1337 -0.3239
25959SOL    HW189855   9.748   3.956   5.014 -1.8638  1.0831  0.9498
25959SOL    HW289856   9.693   3.870   4.901  1.8489 -0.9050  0.4824
25960SOL     OW89857   5.050   4.885  10.373 -0.1449 -0.4353 -0.8648
25960SOL    HW189858   5.024   4.801  10.334 -0.7642 -1.5465  1.7141
25960SOL    HW289859   5.127   4.864  10.426 -0.8559  0.3640  0.5606
25961SOL     OW89860   1.856   0.200   2.093  0.2610 -0.1897 -0.4942
25961SOL    HW189861   1.781   0.148   2.122  0.6771 -0.4582  0.1300
25961SOL    HW289862   1.932   0.144   2.109  0.5161 -0.3716 -2.1978
25962SOL     OW89863   4.170   2.355   7.228  0.0183  0.2441  0.1074
25962SOL    HW189864   4.114   2.337   7.153 -0.1888 -1.4125  0.6234
25962SOL    HW289865   4.111   2.353   7.304  0.4664  0.3671  0.4675
25963SOL     OW89866   0.697   7.908   8.469 -0.4685  1.1530 -0.0301
25963SOL    HW189867   0.601   7.909   8.462 -0.4939 -0.1357  0.0557
25963SOL    HW289868   0.728   7.924   8.379 -0.7434  2.3291  0.0666
25964SOL     OW89869   4.326   1.457   5.686 -0.3846 -0.1607  0.1673
25964SOL    HW189870   4.392   1.422   5.745 -0.6345 -0.1299  0.4687
25964SOL    HW289871   4.305   1.385   5.627  1.9176  0.6050 -1.7477
25965SOL     OW89872   7.196   1.562   8.418 -0.5270 -0.0811  0.4531
25965SOL    HW189873   7.278   1.592   8.457 -0.0794 -1.3517  0.5567
25965SOL    HW289874   7.215   1.473   8.388 -1.6223 -0.0824 -0.3046
25966SOL     OW89875   7.625   6.693   0.294  0.7250 -0.4975 -0.5747
25966SOL    HW189876   7.692   6.760   0.310  0.7719 -0.9559  1.3013
25966SOL    HW289877   7.631   6.634   0.369 -2.0707 -0.3284 -0.1348
25967SOL     OW89878   1.732   8.115   0.479  0.0411 -0.0406 -0.1147
25967SOL    HW189879   1.802   8.050   0.489 -0.8291 -0.9063  0.6129
25967SOL    HW289880   1.685   8.112   0.562 -0.3438  1.1452 -0.2802
25968SOL     OW89881   2.649   5.641   8.779 -0.3125 -0.4000  0.0517
25968SOL    HW189882   2.654   5.634   8.875 -2.2575 -0.6941  0.1595
25968SOL    HW289883   2.636   5.552   8.749 -0.1991 -0.2446 -0.4600
25969SOL     OW89884   2.813   5.354   8.609  0.2505 -0.2240 -0.3213
25969SOL    HW189885   2.737   5.307   8.643 -0.6386  1.1071 -0.3642
25969SOL    HW289886   2.795   5.364   8.516 -0.0956  1.0802 -0.1349
25970SOL     OW89887   2.704   5.286   9.829  0.0265  0.0888  0.1678
25970SOL    HW189888   2.708   5.291   9.925 -2.0058  0.1962  0.2870
25970SOL    HW289889   2.770   5.219   9.807  0.6033  0.1263  1.6153
25971SOL     OW89890   0.848   9.759   6.292 -0.5912  0.0884  0.1048
25971SOL    HW189891   0.847   9.671   6.331 -0.0724  0.0266 -0.0094
25971SOL    HW289892   0.934   9.795   6.315 -0.8374  0.6043  0.2284
25972SOL     OW89893   1.955   8.639   5.935  0.7955 -0.3670  0.3380
25972SOL    HW189894   1.886   8.686   5.981  1.6946  0.3165  1.0259
25972SOL    HW289895   1.932   8.646   5.842  0.5998  0.9448  0.4721
25973SOL     OW89896   6.163   0.456   4.518  0.7908  0.6577 -0.0070
25973SOL    HW189897   6.169   0.536   4.465 -1.0357  0.2774 -0.8565
25973SOL    HW289898   6.212   0.477   4.598  1.4611  2.1476 -0.7617
25974SOL     OW89899   0.323   9.820   4.845 -0.3396 -0.4190 -0.0828
25974SOL    HW189900   0.413   9.823   4.812 -0.6011  0.1755 -0.7598
25974SOL    HW289901   0.295   9.730   4.830 -0.2088 -0.3368 -0.8340
25975SOL     OW89902   4.758   2.252   5.158 -0.0014  0.3820 -0.1332
25975SOL    HW189903   4.667   2.258   5.187 -0.0018  0.8577 -0.2295
25975SOL    HW289904   4.805   2.312   5.215  0.5775 -1.2558  1.1828
25976SOL     OW89905   0.382   7.792   3.202  0.2633  0.0750  0.1325
25976SOL    HW189906   0.287   7.794   3.215  0.4762 -0.5680  2.1156
25976SOL    HW289907   0.400   7.866   3.144 -1.6253 -0.8772 -1.8216
25977SOL     OW89908   5.254   7.764   1.281  0.0381  0.2771 -0.2949
25977SOL    HW189909   5.264   7.670   1.295  1.1025 -0.0050 -2.5265
25977SOL    HW289910   5.187   7.772   1.213  1.7059  0.9199 -1.9532
25978SOL     OW89911  10.209   2.748  10.051 -0.0788  0.6157  0.3492
25978SOL    HW189912  10.169   2.675  10.004  0.8764  0.4260 -0.1934
25978SOL    HW289913  10.230   2.712  10.138 -3.2982  1.4027  1.6087
25979SOL     OW89914   3.902   7.168   6.976 -0.0273  0.5582  0.7655
25979SOL    HW189915   3.874   7.171   6.885  1.4165  1.8152  0.3181
25979SOL    HW289916   3.966   7.096   6.980 -1.0612 -0.3707  1.1180
25980SOL     OW89917   7.379   1.302   3.966  0.3497  0.4628 -0.1785
25980SOL    HW189918   7.378   1.212   3.932 -1.5642  1.0671 -1.9318
25980SOL    HW289919   7.293   1.337   3.942 -0.3257  1.7249  3.4787
25981SOL     OW89920   8.724   8.640  10.090  0.2209 -0.7687 -0.0768
25981SOL    HW189921   8.703   8.729  10.118  0.1200 -0.5227 -0.9227
25981SOL    HW289922   8.819   8.639  10.078  0.2618 -0.8682  0.2386
25982SOL     OW89923   4.585   2.765   8.897 -0.2857  0.2537 -0.2065
25982SOL    HW189924   4.582   2.757   8.993 -1.8229 -0.7212 -0.2938
25982SOL    HW289925   4.659   2.709   8.871 -0.3289 -0.0873  0.3690
25983SOL     OW89926   2.715   0.852   4.970  0.3608 -0.2415 -0.2900
25983SOL    HW189927   2.714   0.890   5.058  0.5845 -1.2049  0.1310
25983SOL    HW289928   2.624   0.859   4.941 -0.2096 -2.0229  0.9461
25984SOL     OW89929   1.847   7.873   1.459 -0.0481  0.8679  0.0989
25984SOL    HW189930   1.915   7.873   1.526  0.4938 -0.0204 -0.4256
25984SOL    HW289931   1.885   7.920   1.385  0.0167  0.3454 -0.2065
25985SOL     OW89932   8.812   3.772   4.909  0.8041  0.1854  0.1880
25985SOL    HW189933   8.796   3.699   4.969 -3.0866  0.5411 -0.2179
25985SOL    HW289934   8.865   3.733   4.839  0.0219 -1.9062  0.6665
25986SOL     OW89935   3.890   9.189   5.526 -0.2381  0.1150 -0.5054
25986SOL    HW189936   3.831   9.250   5.481 -0.4380  0.8352  0.7048
25986SOL    HW289937   3.832   9.118   5.556 -0.2829  0.2056 -0.3803
25987SOL     OW89938   7.508   5.318  10.134  0.1327  0.0366 -0.1120
25987SOL    HW189939   7.577   5.276  10.185  1.9101  0.2243 -2.2595
25987SOL    HW289940   7.430   5.309  10.189  1.7298 -0.5706  2.2055
25988SOL     OW89941   4.631   8.185   6.265  0.3043 -0.1086 -0.6345
25988SOL    HW189942   4.643   8.189   6.359 -4.0453  2.8139  0.1097
25988SOL    HW289943   4.698   8.243   6.229  1.6017 -0.7532  0.6907
25989SOL     OW89944   1.021   6.956   5.977 -0.2785  0.5455 -0.2161
25989SOL    HW189945   1.051   6.877   5.932 -1.4321 -0.3304  0.4965
25989SOL    HW289946   1.095   7.016   5.972 -0.2069  0.3613 -2.9144
25990SOL     OW89947   2.663   7.533   2.334 -0.5252  0.3720 -0.2606
25990SOL    HW189948   2.625   7.608   2.379 -1.0295  0.0716 -0.1739
25990SOL    HW289949   2.638   7.545   2.242 -4.5017 -1.8764  0.2650
25991SOL     OW89950   3.695   8.489   2.890  0.3598 -0.0038 -0.2150
25991SOL    HW189951   3.783   8.466   2.920  0.4981  1.3696  0.5338
25991SOL    HW289952   3.701   8.486   2.794  1.9404  2.3036 -0.2864
25992SOL     OW89953   1.442   8.099   9.196  0.4156 -0.1744 -0.9291
25992SOL    HW189954   1.389   8.107   9.275  1.3694 -1.1256 -0.1734
25992SOL    HW289955   1.378   8.096   9.125 -0.4446  0.9899 -0.2461
25993SOL     OW89956   5.438   8.408   9.676 -0.7000  0.2840  0.3440
25993SOL    HW189957   5.443   8.476   9.742  0.2063  1.3689 -0.7825
25993SOL    HW289958   5.460   8.452   9.594  0.3532 -1.4420 -0.3670
25994SOL     OW89959   3.623   3.360   5.868  0.2015  0.0312 -0.4115
25994SOL    HW189960   3.644   3.394   5.955 -1.6887  0.8559 -0.2301
25994SOL    HW289961   3.652   3.269   5.871 -1.1162 -0.3900  1.6157
25995SOL     OW89962   2.853   9.113   2.097  0.2036  0.4137  0.5811
25995SOL    HW189963   2.888   9.075   2.177  0.6306  0.8176  0.5911
25995SOL    HW289964   2.762   9.136   2.118  0.4695  0.9966  1.1138
25996SOL     OW89965   1.132   5.466   1.468  0.0806 -0.1136  0.1641
25996SOL    HW189966   1.100   5.421   1.390 -2.1601  1.3325  0.1534
25996SOL    HW289967   1.058   5.463   1.529  0.6651  1.4973  1.0077
25997SOL     OW89968   4.537   5.392   7.997 -0.2754  0.2537 -0.0006
25997SOL    HW189969   4.479   5.450   7.948 -0.3911 -0.1193 -0.3199
25997SOL    HW289970   4.491   5.374   8.079 -0.5154  0.1291 -0.1624
25998SOL     OW89971   3.724   8.611   8.473  0.3392 -0.0870 -0.4415
25998SOL    HW189972   3.636   8.648   8.481 -0.2174 -1.2971 -0.7047
25998SOL    HW289973   3.781   8.687   8.463 -0.7724  0.6967 -1.1073
25999SOL     OW89974   8.914   0.071   2.803  0.0672  0.5395  0.4184
25999SOL    HW189975   8.905   0.149   2.749 -0.5035 -0.0461 -0.3616
25999SOL    HW289976   8.826   0.058   2.840  0.7366  1.6786  2.5876
26000SOL     OW89977   0.315   7.056   3.744  0.4144 -0.3332  0.1656
26000SOL    HW189978   0.263   7.127   3.781  0.9261  0.8973 -1.3519
26000SOL    HW289979   0.401   7.096   3.726  0.3467 -0.9418 -1.8425
26001SOL     OW89980   4.077   1.562   3.513 -0.2039  0.3802  0.5609
26001SOL    HW189981   4.017   1.598   3.448 -2.9446 -1.0665  2.1303
26001SOL    HW289982   4.124   1.493   3.466 -1.1278  0.2743 -0.2423
26002SOL     OW89983   4.259   0.948   5.376 -0.0715 -0.4126 -0.0655
26002SOL    HW189984   4.289   1.006   5.446  1.1342 -1.8219  0.6558
26002SOL    HW289985   4.287   0.992   5.295 -0.7520  0.8351  0.3551
26003SOL     OW89986   3.379   0.145   0.186  0.5777  0.4277  0.5137
26003SOL    HW189987   3.447   0.213   0.186  0.6958  0.3560 -1.1772
26003SOL    HW289988   3.425   0.064   0.207  1.5592 -0.0275 -2.8671
26004SOL     OW89989   1.693   8.706   4.811 -0.3575  0.3108  0.0792
26004SOL    HW189990   1.613   8.759   4.804 -0.3336  0.2599 -0.7169
26004SOL    HW289991   1.748   8.754   4.873 -0.0811  1.5864 -1.1039
26005SOL     OW89992   0.665   8.741   6.050 -0.3117 -0.2683  0.2319
26005SOL    HW189993   0.654   8.668   5.989 -1.1907  0.4773 -0.5313
26005SOL    HW289994   0.592   8.731   6.112  0.5934 -1.0406  1.2118
26006SOL     OW89995   3.349  10.261   8.215 -0.2194 -0.5093 -0.2119
26006SOL    HW189996   3.336  10.199   8.143 -0.5837 -0.6363 -0.0362
26006SOL    HW289997   3.398  10.211   8.280  0.1774 -0.3712 -0.4029
26007SOL     OW89998   6.662   6.500   7.049  0.4499  0.1826  0.2575
26007SOL    HW189999   6.709   6.550   6.982  2.1044 -0.4511  0.8825
26007SOL    HW290000   6.688   6.542   7.132 -1.2787  0.7346  0.5628
26008SOL     OW90001   3.200   5.376   1.149 -0.2018  1.0162  0.3179
26008SOL    HW190002   3.280   5.354   1.101 -0.1264  0.2257  0.7796
26008SOL    HW290003   3.170   5.292   1.185  0.2113  1.6707  2.3395
26009SOL     OW90004   9.071   0.740   6.662  0.2330  0.3905 -0.0191
26009SOL    HW190005   9.064   0.825   6.705 -0.1250 -0.1876  1.1090
26009SOL    HW290006   9.112   0.683   6.727  0.5709 -0.2736 -0.7992
26010SOL     OW90007   6.154  10.372   6.250  0.0698 -0.3602 -0.0154
26010SOL    HW190008   6.070  10.348   6.211  0.1517 -0.2949 -0.2389
26010SOL    HW290009   6.219  10.322   6.200  0.2960  0.7619 -0.8999
26011SOL     OW90010   0.938   7.838  10.283  0.1105 -0.5045 -0.0300
26011SOL    HW190011   1.021   7.883  10.264 -1.0744  0.8474 -2.4471
26011SOL    HW290012   0.963   7.747  10.298  2.1066  0.0211  0.1182
26012SOL     OW90013   0.774   0.298   3.176  0.2602  0.8171 -0.2989
26012SOL    HW190014   0.683   0.309   3.149 -0.1214  0.3090  0.7114
26012SOL    HW290015   0.821   0.273   3.096 -0.6946  0.0428 -0.6298
26013SOL     OW90016   0.536   5.001   0.967 -0.0405 -0.1186 -0.2646
26013SOL    HW190017   0.545   5.092   0.938 -0.9575 -0.3712 -1.4107
26013SOL    HW290018   0.491   4.957   0.895  0.0305 -1.3994  0.4413
26014SOL     OW90019   4.761   2.565   3.390  0.2244  0.2961  0.0979
26014SOL    HW190020   4.779   2.614   3.310 -1.1221  3.6860  1.6565
26014SOL    HW290021   4.694   2.501   3.365  0.6183  0.5369 -1.6804
26015SOL     OW90022   1.498   5.763  10.331  0.3012  0.2023  0.7110
26015SOL    HW190023   1.544   5.732  10.409 -1.5986  0.7280  2.1191
26015SOL    HW290024   1.445   5.689  10.303  0.2612  0.3147  0.4861
26016SOL     OW90025   8.059   9.358   3.916 -0.0859 -0.1629  0.5857
26016SOL    HW190026   8.060   9.448   3.883 -1.0936  0.1867  1.4479
26016SOL    HW290027   8.072   9.368   4.011 -1.1641 -0.8463  0.8206
26017SOL     OW90028   9.541   1.732   5.866 -0.0890  0.3849  0.2173
26017SOL    HW190029   9.610   1.729   5.933 -0.9957  0.8418  1.2020
26017SOL    HW290030   9.516   1.641   5.853 -0.3099  0.3333  0.9519
26018SOL     OW90031   1.399   2.663   7.559  0.4278  0.1848  0.1006
26018SOL    HW190032   1.470   2.612   7.519  0.4357  0.9554 -0.8957
26018SOL    HW290033   1.326   2.601   7.568  0.9243 -0.3778  0.3091
26019SOL     OW90034   4.175   8.834   0.924  0.5810  0.8625 -0.2231
26019SOL    HW190035   4.219   8.795   0.848  0.0482 -0.9088  0.3355
26019SOL    HW290036   4.114   8.897   0.885 -0.1165 -0.4400 -1.3429
26020SOL     OW90037   5.213   8.526   5.911  0.0434 -0.2590 -0.6617
26020SOL    HW190038   5.159   8.593   5.869 -1.3030 -1.4968 -0.9690
26020SOL    HW290039   5.155   8.485   5.976  0.5812 -1.6450 -1.0204
26021SOL     OW90040   3.362   9.181   8.934 -0.2793 -0.2273 -0.6643
26021SOL    HW190041   3.379   9.091   8.907 -0.5711 -1.2671  2.3628
26021SOL    HW290042   3.435   9.230   8.896  1.0683 -2.0830 -0.6224
26022SOL     OW90043   6.271   2.193   5.058 -0.2294 -0.4663 -0.1262
26022SOL    HW190044   6.268   2.280   5.100  1.8619 -0.2763 -0.2672
26022SOL    HW290045   6.291   2.133   5.129 -0.0282 -0.6152 -0.3099
26023SOL     OW90046   1.578   9.174   5.317 -0.0577 -0.4476 -0.1970
26023SOL    HW190047   1.539   9.113   5.254 -0.2024  0.1595 -0.7032
26023SOL    HW290048   1.640   9.120   5.367 -0.0772 -0.9799 -0.7324
26024SOL     OW90049   6.644   9.228   3.850  0.0679  0.3034 -0.4757
26024SOL    HW190050   6.639   9.135   3.874  0.8347  0.6994  1.3661
26024SOL    HW290051   6.553   9.257   3.848 -0.1654 -0.4232 -0.8275
26025SOL     OW90052   9.469   1.828   5.599 -0.1624 -0.1170  0.1630
26025SOL    HW190053   9.517   1.818   5.681 -1.0725  0.1418  0.7430
26025SOL    HW290054   9.514   1.898   5.553  1.1128 -1.0937 -0.1334
26026SOL     OW90055   0.613   8.479   5.493 -0.3418 -0.1035 -0.0329
26026SOL    HW190056   0.644   8.414   5.429  1.1634 -0.5462  1.0875
26026SOL    HW290057   0.521   8.455   5.508 -0.1422 -1.2508 -0.5125
26027SOL     OW90058   3.190   3.443   8.583 -0.7043  0.6376  0.4068
26027SOL    HW190059   3.131   3.436   8.659  1.1237 -0.4392  1.8111
26027SOL    HW290060   3.270   3.483   8.618 -0.2674  1.3320 -1.2707
26028SOL     OW90061   9.399   7.871   9.576  0.0933  0.0990  0.0268
26028SOL    HW190062   9.327   7.823   9.617  1.6156 -1.7492  0.6349
26028SOL    HW290063   9.399   7.956   9.620  0.4877 -1.1502  2.6103
26029SOL     OW90064   0.618   4.407   9.466 -0.0475 -0.2147  0.3130
26029SOL    HW190065   0.564   4.457   9.404  0.1548  2.8408  2.3599
26029SOL    HW290066   0.555   4.356   9.518 -0.8739  1.7438  1.3377
26030SOL     OW90067   0.924   8.170   6.453  0.2489 -0.0963  0.1944
26030SOL    HW190068   0.958   8.223   6.526  0.0201  0.2939  0.0248
26030SOL    HW290069   0.988   8.183   6.382 -1.1362  2.1662 -0.7724
26031SOL     OW90070   0.288   4.411   0.271 -0.1356 -0.1992 -0.2177
26031SOL    HW190071   0.258   4.410   0.362  0.9480 -1.5852  0.1444
26031SOL    HW290072   0.207   4.417   0.220 -0.8155 -0.3198  0.8053
26032SOL     OW90073  10.308   2.301   4.800  0.0333  0.4852 -0.0607
26032SOL    HW190074  10.248   2.375   4.804 -0.2374  0.2453  0.2829
26032SOL    HW290075  10.281   2.243   4.870  0.2432  0.0546 -0.3284
26033SOL     OW90076   0.856   3.756   8.539  0.6870 -0.2457  0.0703
26033SOL    HW190077   0.913   3.826   8.570  0.6948 -0.5711  0.8008
26033SOL    HW290078   0.788   3.749   8.605  0.5302 -0.7363 -0.1397
26034SOL     OW90079   0.419   6.591   9.847 -0.0314 -0.5554  0.0037
26034SOL    HW190080   0.438   6.524   9.913 -1.5205  0.5296  1.6201
26034SOL    HW290081   0.327   6.614   9.861  0.1238  1.0179 -1.2566
26035SOL     OW90082   2.181   1.195   4.750 -0.2132  0.3953 -0.7224
26035SOL    HW190083   2.186   1.281   4.708 -0.9112  2.0646  2.2808
26035SOL    HW290084   2.188   1.132   4.678  2.1948  2.8803 -2.8888
26036SOL     OW90085   6.355   2.179   0.500  0.1009  0.3358 -0.2716
26036SOL    HW190086   6.435   2.132   0.523 -0.0372  0.6461  0.9148
26036SOL    HW290087   6.368   2.205   0.409  0.3590 -1.6322 -0.8585
26037SOL     OW90088   6.305   4.249   7.101  0.1432 -0.7627  0.2297
26037SOL    HW190089   6.298   4.295   7.185 -1.4550 -1.1502  0.3415
26037SOL    HW290090   6.284   4.158   7.122  1.8987 -1.3105 -0.2319
26038SOL     OW90091   9.064   2.113   3.295  0.2982  0.3641 -0.0642
26038SOL    HW190092   9.155   2.087   3.311 -0.4344 -1.1787  2.0518
26038SOL    HW290093   9.035   2.152   3.377 -1.0455  0.5607 -0.5973
26039SOL     OW90094   3.111   2.293   9.350  0.1693 -0.6028  0.7109
26039SOL    HW190095   3.106   2.292   9.446  1.5371  1.2997  0.8557
26039SOL    HW290096   3.186   2.238   9.330 -0.4036 -1.3848  0.6948
26040SOL     OW90097   4.555   2.196   3.206  0.4074 -0.0965 -0.3274
26040SOL    HW190098   4.601   2.223   3.127 -0.4944  3.2047  0.1384
26040SOL    HW290099   4.481   2.144   3.175  1.1082 -0.4267 -1.4764
26041SOL     OW90100   6.620   2.105   9.629  0.4846  0.2827 -0.3677
26041SOL    HW190101   6.691   2.059   9.673  0.3935 -1.0754 -1.5747
26041SOL    HW290102   6.618   2.067   9.541 -1.0904  1.0029 -0.6687
26042SOL     OW90103   3.533   2.362   9.350  0.1777 -0.3270  0.0120
26042SOL    HW190104   3.504   2.318   9.430  1.0759  1.4137  1.3566
26042SOL    HW290105   3.494   2.449   9.354  1.7219  0.4226 -0.5060
26043SOL     OW90106   5.321   7.926   8.876 -0.2077  0.6336  0.1137
26043SOL    HW190107   5.244   7.876   8.906 -0.6504  0.0649 -1.8658
26043SOL    HW290108   5.286   8.014   8.858 -0.0361  0.8356  0.7124
26044SOL     OW90109   3.790   6.017   9.883 -0.4327 -0.3508  0.1495
26044SOL    HW190110   3.739   6.098   9.879 -0.4667 -0.3599  0.3546
26044SOL    HW290111   3.730   5.949   9.852 -0.6712 -0.4184  0.7477
26045SOL     OW90112   3.008   5.332   9.714  0.2139 -0.1166  0.1242
26045SOL    HW190113   2.927   5.374   9.686 -1.1916 -1.2783  2.1805
26045SOL    HW290114   3.076   5.395   9.692 -1.0507  0.4104 -2.7155
26046SOL     OW90115   3.649   7.850   8.989 -0.0218 -0.2783 -0.3152
26046SOL    HW190116   3.616   7.796   8.918  0.3363  0.2902 -0.9312
26046SOL    HW290117   3.670   7.934   8.947 -1.9700  0.8713  0.8833
26047SOL     OW90118   0.945   8.235   8.302  0.2204 -0.2139  0.0661
26047SOL    HW190119   0.985   8.204   8.384 -0.5735 -0.6215  0.3053
26047SOL    HW290120   0.943   8.330   8.311  1.8560 -0.1059 -0.2891
26048SOL     OW90121   5.633   0.180   6.303 -0.3538 -0.1266 -0.4155
26048SOL    HW190122   5.558   0.224   6.344 -1.4482 -1.8720 -0.4351
26048SOL    HW290123   5.616   0.187   6.209  0.0286  0.3146 -0.4560
26049SOL     OW90124   1.813   3.577   3.608 -0.5532  0.3483 -0.2953
26049SOL    HW190125   1.801   3.555   3.515  2.0759  1.0255 -0.8761
26049SOL    HW290126   1.828   3.672   3.608 -0.2855  0.3102  0.7834
26050SOL     OW90127   0.776   6.308   2.293 -0.2355  0.6539 -0.3459
26050SOL    HW190128   0.717   6.368   2.249  0.0512  1.8874  0.8622
26050SOL    HW290129   0.720   6.260   2.354 -0.4603 -0.3271 -1.2933
26051SOL     OW90130   8.935   2.739   0.107  0.0148  0.6178  0.2009
26051SOL    HW190131   8.974   2.782   0.031  0.4573 -1.8390 -1.0571
26051SOL    HW290132   8.843   2.727   0.083 -0.2753  1.4224  0.8455
26052SOL     OW90133   9.683   0.996   9.404  0.1583  0.7693 -0.9210
26052SOL    HW190134   9.750   0.931   9.422 -1.1706 -0.6263 -0.8434
26052SOL    HW290135   9.639   1.009   9.487 -0.4420  0.7708 -1.2343
26053SOL     OW90136   6.445   9.963   8.109 -0.0230  0.5522  0.3781
26053SOL    HW190137   6.509  10.034   8.110  0.4376  0.1377  1.1369
26053SOL    HW290138   6.467   9.912   8.031 -0.8515  1.6603 -0.6188
26054SOL     OW90139   9.988   7.728   0.451 -0.2339 -0.4806  0.3706
26054SOL    HW190140  10.074   7.758   0.423 -0.0961 -1.4000 -0.2388
26054SOL    HW290141   9.948   7.693   0.371 -1.3764  0.3814  0.5412
26055SOL     OW90142   4.325   9.615   1.193  0.6174 -0.3640  0.0588
26055SOL    HW190143   4.314   9.521   1.179  1.0337 -0.5411  0.8671
26055SOL    HW290144   4.263   9.635   1.264 -0.4789  0.2494 -1.0299
26056SOL     OW90145   6.323  10.146  10.297 -0.1008  0.0147  0.0727
26056SOL    HW190146   6.262  10.081  10.332  2.2122 -0.7665  3.0641
26056SOL    HW290147   6.274  10.191  10.229 -3.0424 -2.3751  0.4239
26057SOL     OW90148   8.799   3.248   9.859 -0.1845 -0.3264 -0.0039
26057SOL    HW190149   8.748   3.214   9.786 -0.9086  0.5646  0.0586
26057SOL    HW290150   8.797   3.343   9.847 -0.5738 -0.1426  1.3230
26058SOL     OW90151   4.195   0.212   6.286 -0.1238 -0.7022  0.0690
26058SOL    HW190152   4.184   0.191   6.193  0.1390 -1.2758  0.1638
26058SOL    HW290153   4.268   0.158   6.315  0.1398 -0.1348  0.4913
26059SOL     OW90154   7.234   3.939  10.151  0.0791 -0.1452 -0.6825
26059SOL    HW190155   7.291   3.931  10.228 -2.1158 -1.5265  0.8974
26059SOL    HW290156   7.224   4.033  10.139 -0.6661  0.1415  1.6672
26060SOL     OW90157   8.435   1.599   0.905  0.1471  0.1207 -0.0913
26060SOL    HW190158   8.349   1.631   0.932  1.9174  4.0789  1.6764
26060SOL    HW290159   8.457   1.648   0.826  1.3408  0.2747  0.3080
26061SOL     OW90160   1.655   7.914   4.083 -0.0559  0.0346  0.6328
26061SOL    HW190161   1.748   7.936   4.090  0.0881 -0.7630  1.5565
26061SOL    HW290162   1.637   7.913   3.990  1.1304 -0.8086  0.3820
26062SOL     OW90163   8.517   1.459   9.519 -0.3944 -0.2908  0.2017
26062SOL    HW190164   8.582   1.415   9.464  1.1229  0.5205  1.2701
26062SOL    HW290165   8.524   1.416   9.604  1.1264  1.8826  1.2755
26063SOL     OW90166   7.816   7.248   2.695 -0.4598 -0.2592  0.1593
26063SOL    HW190167   7.873   7.319   2.665 -1.3309  0.4397  0.0868
26063SOL    HW290168   7.794   7.273   2.785 -2.7563  0.9211 -0.6502
26064SOL     OW90169   3.987  10.022   9.215  0.2842  0.0069  0.4214
26064SOL    HW190170   4.013  10.114   9.205  1.4376 -0.3616 -0.1801
26064SOL    HW290171   4.040   9.989   9.287  0.3532 -0.3516  0.2102
26065SOL     OW90172   8.319   1.254   1.419  0.2025  0.0795  0.0265
26065SOL    HW190173   8.353   1.343   1.419  2.2362 -0.6546 -0.7948
26065SOL    HW290174   8.314   1.230   1.511 -0.3272  1.0038  0.2527
26066SOL     OW90175   8.409   9.421   1.144  0.0288 -0.1797 -0.1477
26066SOL    HW190176   8.459   9.362   1.201 -0.0529  0.5129  0.6658
26066SOL    HW290177   8.421   9.385   1.056  2.1770  0.0921 -0.0273
26067SOL     OW90178   6.951   9.981   8.910 -0.1295 -0.1158  0.0241
26067SOL    HW190179   6.990   9.979   8.997  1.5740  0.5061 -0.6788
26067SOL    HW290180   6.897  10.060   8.909  1.0700  0.7238  0.0427
26068SOL     OW90181  10.269   7.457   9.209 -0.5290  0.9210 -0.5119
26068SOL    HW190182  10.212   7.407   9.150 -0.0598 -0.4343  0.1347
26068SOL    HW290183  10.238   7.434   9.297  1.0868  0.0311 -0.1428
26069SOL     OW90184   0.954   8.806   4.097 -0.4166 -0.2212  0.1397
26069SOL    HW190185   0.953   8.818   4.192  0.7302  2.4619 -0.0872
26069SOL    HW290186   1.044   8.826   4.071 -0.0885 -3.1392 -1.3492
26070SOL     OW90187  10.282   2.908   6.396  0.4430 -0.3476  0.5197
26070SOL    HW190188  10.335   2.925   6.474  1.0586 -0.1658  0.0664
26070SOL    HW290189  10.336   2.938   6.323 -0.1052 -0.5706  0.0141
26071SOL     OW90190   6.828  10.196   1.111 -0.0560  0.4912 -0.1276
26071SOL    HW190191   6.918  10.228   1.117  0.8763 -1.8572 -0.6030
26071SOL    HW290192   6.810  10.158   1.197  0.1815 -0.8469 -0.6424
26072SOL     OW90193  10.319  10.389   4.498  0.0171 -0.3391 -0.4529
26072SOL    HW190194  10.237  10.356   4.534 -0.7393  1.2991 -0.5955
26072SOL    HW290195  10.293  10.445   4.425  1.0496  2.1547  0.9712
26073SOL     OW90196   7.087   0.276   2.616 -0.1354 -0.9752 -0.4487
26073SOL    HW190197   7.087   0.200   2.557  2.7818 -0.9714 -0.5517
26073SOL    HW290198   7.130   0.345   2.567 -1.5644  0.3948  0.1468
26074SOL     OW90199   1.526   5.273   4.606  0.0186  0.1713 -0.1735
26074SOL    HW190200   1.608   5.315   4.633  0.5242  0.6079 -2.2437
26074SOL    HW290201   1.539   5.181   4.628 -0.5000  0.7225  2.9991
26075SOL     OW90202   5.738   9.721   7.553 -0.3491  0.5944 -0.1816
26075SOL    HW190203   5.725   9.784   7.624 -0.0787  0.4482  0.0012
26075SOL    HW290204   5.827   9.737   7.523 -1.0848  1.9817 -1.8099
26076SOL     OW90205   0.732   3.721   2.100 -0.0064 -0.8228  1.0336
26076SOL    HW190206   0.719   3.627   2.116  1.1983 -0.8283  2.1448
26076SOL    HW290207   0.778   3.752   2.178 -0.2319  0.6667  0.5947
26077SOL     OW90208   7.938   7.768   7.205 -0.0139 -0.0230 -0.3457
26077SOL    HW190209   8.012   7.824   7.229  0.9958 -0.4602 -2.2123
26077SOL    HW290210   7.891   7.818   7.138 -1.4954  0.2897  0.8889
26078SOL     OW90211   1.517   8.826   1.433  0.2133  0.4988 -0.0545
26078SOL    HW190212   1.545   8.846   1.344  0.4020 -0.5494 -0.2412
26078SOL    HW290213   1.505   8.912   1.474  1.9788  1.0120 -0.5094
26079SOL     OW90214   6.426  10.305   4.077 -0.2604  0.2928 -0.7536
26079SOL    HW190215   6.332  10.297   4.093 -0.1708  0.2640 -0.2298
26079SOL    HW290216   6.450  10.390   4.112  0.0081  0.0672 -0.3737
26080SOL     OW90217   7.391   2.498   0.989 -0.1081 -0.0584  0.1644
26080SOL    HW190218   7.387   2.540   1.076 -0.8792 -1.5121  0.8748
26080SOL    HW290219   7.307   2.519   0.949  0.2078  0.5273 -0.2001
26081SOL     OW90220   4.245   7.429   6.556  0.4337  0.3992 -0.3190
26081SOL    HW190221   4.338   7.413   6.575  0.5555  1.3926 -0.0228
26081SOL    HW290222   4.244   7.508   6.503 -0.1574 -0.4800 -1.6877
26082SOL     OW90223   8.920   8.998   9.670  0.1241  0.0824  0.0397
26082SOL    HW190224   8.863   9.028   9.599  0.5244 -0.9211 -0.7185
26082SOL    HW290225   8.861   8.987   9.745 -1.0851 -2.6610 -1.1823
26083SOL     OW90226   8.275   0.791   8.709 -0.5772 -0.3439  0.7640
26083SOL    HW190227   8.276   0.734   8.786 -0.2603 -1.8443 -0.2956
26083SOL    HW290228   8.365   0.790   8.677 -0.6931  0.3065  0.3888
26084SOL     OW90229   0.497   6.378  10.010  0.9115 -0.0645  0.0142
26084SOL    HW190230   0.487   6.305  10.071  1.2024  0.8405  1.1841
26084SOL    HW290231   0.583   6.365   9.971  0.4618 -1.0004 -0.7096
26085SOL     OW90232   5.484   9.101   4.064  0.3014  0.4543  0.0916
26085SOL    HW190233   5.493   9.187   4.023  1.0782 -0.1449 -1.0269
26085SOL    HW290234   5.393   9.099   4.096  0.4997  1.9680  0.8153
26086SOL     OW90235   2.201   3.747   2.097 -0.3924 -0.7123  0.0217
26086SOL    HW190236   2.277   3.690   2.106  0.0040 -0.2413 -0.3318
26086SOL    HW290237   2.212   3.789   2.012 -0.7992 -0.2788  0.1801
26087SOL     OW90238   9.741   6.969   0.526  0.0606 -0.4356 -0.6019
26087SOL    HW190239   9.657   6.939   0.560 -0.4971  2.8762  1.4228
26087SOL    HW290240   9.806   6.915   0.572 -0.8961 -0.8274  0.3326
26088SOL     OW90241   1.198   4.107   6.710 -0.6045 -0.3723  0.2947
26088SOL    HW190242   1.289   4.120   6.681 -0.8762 -1.2348 -1.0491
26088SOL    HW290243   1.157   4.192   6.699 -0.3803 -0.3864 -0.7388
26089SOL     OW90244   3.849   3.510   5.658 -0.1287  0.0708 -0.1742
26089SOL    HW190245   3.796   3.572   5.707  1.2890  2.0225 -0.9586
26089SOL    HW290246   3.827   3.424   5.694 -3.2007  0.8491  0.0085
26090SOL     OW90247   0.325   5.749   3.807 -0.1133 -0.2160  0.5624
26090SOL    HW190248   0.329   5.840   3.838  3.2085 -0.6770  1.9283
26090SOL    HW290249   0.362   5.697   3.879 -0.9060 -2.5420 -0.6114
26091SOL     OW90250   6.228   7.458  10.264 -0.1369 -0.1264 -0.2978
26091SOL    HW190251   6.265   7.483  10.348 -1.3743 -0.3561  0.3380
26091SOL    HW290252   6.279   7.506  10.200 -0.8128  2.1020  0.7286
26092SOL     OW90253   7.971   0.515   7.720  0.6297  0.3679  0.4209
26092SOL    HW190254   7.933   0.434   7.753  0.8318 -0.0083 -0.2540
26092SOL    HW290255   7.908   0.548   7.657  0.7841  0.4614  0.3131
26093SOL     OW90256   8.230   9.853   0.178  0.4861  0.1588 -0.8122
26093SOL    HW190257   8.201   9.778   0.230 -0.7124  0.4093 -1.0969
26093SOL    HW290258   8.152   9.883   0.132  1.7192 -0.7417 -3.6914
26094SOL     OW90259   1.256   9.977   5.291 -0.0657  0.1035  0.0516
26094SOL    HW190260   1.302   9.905   5.334 -0.1103  0.3413  0.4998
26094SOL    HW290261   1.190  10.005   5.355 -0.0028  0.5883 -0.0950
26095SOL     OW90262   0.728   2.814   1.662 -0.3724 -0.1920  0.6543
26095SOL    HW190263   0.813   2.827   1.704 -0.1784  1.5246 -0.2009
26095SOL    HW290264   0.739   2.847   1.573 -1.5053 -1.4201  0.0154
26096SOL     OW90265   2.900   6.373   7.743  0.3625 -0.0218  0.1373
26096SOL    HW190266   2.895   6.460   7.703 -0.7499  0.1488  0.6025
26096SOL    HW290267   2.810   6.354   7.771  0.5605 -1.3720 -0.0542
26097SOL     OW90268   6.906   4.832   9.409 -0.0905  0.5646 -0.5977
26097SOL    HW190269   6.815   4.830   9.438 -0.6949 -0.0462 -2.4213
26097SOL    HW290270   6.906   4.891   9.333  1.0987  0.7746 -0.4657
26098SOL     OW90271   4.181   8.879   8.391 -0.2814  0.0599 -0.0647
26098SOL    HW190272   4.175   8.822   8.314 -0.0639 -0.4825  0.3208
26098SOL    HW290273   4.274   8.892   8.405 -0.3234  1.6195 -0.9523
26099SOL     OW90274   0.104  10.197   6.302 -0.1636  0.1929 -0.4136
26099SOL    HW190275   0.014  10.230   6.302 -0.8390 -1.5242  0.3795
26099SOL    HW290276   0.158  10.275   6.298 -1.6410  1.5313  2.3455
26100SOL     OW90277   0.214   0.678   3.108  0.0576 -0.2261 -0.0065
26100SOL    HW190278   0.305   0.698   3.087 -0.2503  0.3453 -0.8618
26100SOL    HW290279   0.181   0.630   3.032 -0.4588 -0.0885  0.1241
26101SOL     OW90280   0.839   5.183   1.011  0.6580 -0.1504  0.3376
26101SOL    HW190281   0.786   5.251   1.053 -0.1851  0.2664 -1.2914
26101SOL    HW290282   0.805   5.179   0.921  0.9487 -2.4517  0.2600
26102SOL     OW90283   5.033   9.744   8.727 -0.0237  0.2174 -0.5757
26102SOL    HW190284   5.024   9.657   8.765  0.2401  0.2505 -0.4324
26102SOL    HW290285   5.090   9.731   8.652 -1.7670 -0.1115 -1.8969
26103SOL     OW90286   6.891  10.055   5.250  0.7916  0.6021 -0.2917
26103SOL    HW190287   6.850  10.104   5.179  0.6054  0.8877  0.0132
26103SOL    HW290288   6.983  10.049   5.224  0.6463  0.3401 -0.7612
26104SOL     OW90289   1.161   4.069   0.227 -0.2562 -0.6832  0.3120
26104SOL    HW190290   1.227   4.030   0.169 -0.4949  0.6296 -0.8907
26104SOL    HW290291   1.204   4.146   0.264  0.8071 -2.8081  3.9954
26105SOL     OW90292   3.349   9.015   6.598  0.0453 -0.6713 -0.0802
26105SOL    HW190293   3.298   9.027   6.677  1.8715  0.7164  0.9598
26105SOL    HW290294   3.387   9.101   6.580  0.7405 -1.2695 -1.7030
26106SOL     OW90295   2.678   6.565   2.768 -0.0663 -0.3237  0.3238
26106SOL    HW190296   2.680   6.660   2.785  0.5209 -0.6337  2.1464
26106SOL    HW290297   2.598   6.535   2.812 -0.8635 -0.5432 -1.2042
26107SOL     OW90298   3.073   9.183   3.182  0.7040  0.1758 -0.3201
26107SOL    HW190299   3.077   9.157   3.274 -0.7473 -0.0310 -0.2894
26107SOL    HW290300   3.140   9.251   3.173  2.3916 -1.3178  0.3544
26108SOL     OW90301   8.161   4.868   5.054  0.0468 -0.0825 -0.4624
26108SOL    HW190302   8.244   4.834   5.020 -0.8962 -1.9022 -1.1072
26108SOL    HW290303   8.171   4.963   5.052  1.2634 -0.1801 -2.7614
26109SOL     OW90304   8.852   2.316   4.734 -0.6190  0.1583  0.0010
26109SOL    HW190305   8.793   2.382   4.772 -2.1769 -0.5228 -1.1036
26109SOL    HW290306   8.866   2.253   4.805 -2.2161 -0.2853 -0.0380
26110SOL     OW90307   8.280   8.637   1.458 -0.5125 -0.1560 -0.2737
26110SOL    HW190308   8.201   8.681   1.488  1.9079  3.5503  1.4998
26110SOL    HW290309   8.320   8.603   1.539  1.3247  1.1806 -0.5621
26111SOL     OW90310   4.788   6.280   9.385 -0.2598  0.2817 -0.1091
26111SOL    HW190311   4.860   6.276   9.322 -0.5486  0.3533 -0.4471
26111SOL    HW290312   4.720   6.225   9.347 -0.2758 -0.0158  0.3513
26112SOL     OW90313   7.525   1.481   3.778  0.4894  0.1235 -0.0870
26112SOL    HW190314   7.467   1.558   3.775 -0.4704 -0.6040 -1.6057
26112SOL    HW290315   7.493   1.430   3.852  0.8084  0.9311  0.6191
26113SOL     OW90316   5.889   3.528   0.233 -0.4525  0.7717  0.3800
26113SOL    HW190317   5.983   3.527   0.218 -0.6344  0.2035 -0.8232
26113SOL    HW290318   5.869   3.619   0.256  0.4421  0.7922  1.1497
26114SOL     OW90319   1.965  10.166   9.347  0.1828 -0.5734 -0.0756
26114SOL    HW190320   1.945  10.073   9.347 -0.6850 -0.3981 -0.3660
26114SOL    HW290321   1.923  10.201   9.425 -0.6810 -0.2011 -0.6861
26115SOL     OW90322   4.966   2.356   0.226 -0.4128 -0.3529  0.1912
26115SOL    HW190323   5.053   2.319   0.242 -0.2624 -0.8504 -1.6414
26115SOL    HW290324   4.906   2.283   0.242 -0.4023 -0.3598  0.1991
26116SOL     OW90325   3.639   0.321   8.303 -0.2478  0.1783 -0.8864
26116SOL    HW190326   3.556   0.301   8.345  0.2507 -2.0224 -0.8317
26116SOL    HW290327   3.705   0.303   8.370  0.4419 -1.4409 -1.9304
26117SOL     OW90328   0.972   7.420   0.257 -0.0282 -0.0143 -0.1237
26117SOL    HW190329   0.925   7.376   0.328  1.3185 -0.9668  0.2137
26117SOL    HW290330   1.030   7.482   0.301 -0.4366  0.6648 -0.5079
26118SOL     OW90331   3.536   0.439   0.448 -0.1608  0.0917 -0.5484
26118SOL    HW190332   3.525   0.378   0.521 -0.6687  1.3976  0.5000
26118SOL    HW290333   3.627   0.426   0.419  0.2861  0.0783  0.8077
26119SOL     OW90334   1.151   7.679   1.329  0.4485 -0.8637 -0.3975
26119SOL    HW190335   1.082   7.723   1.380 -0.4480 -1.4388 -1.0745
26119SOL    HW290336   1.202   7.750   1.292  0.2375 -0.4198  0.1423
26120SOL     OW90337   2.200   9.543   4.533 -0.5350  0.4046  0.1737
26120SOL    HW190338   2.177   9.478   4.600  1.7467  0.4700  1.1312
26120SOL    HW290339   2.293   9.561   4.548 -0.8672  3.3243 -0.5615
26121SOL     OW90340   6.227   8.805   3.054 -0.0160  0.6327 -0.5848
26121SOL    HW190341   6.223   8.719   3.013  0.4512  0.4425 -0.2332
26121SOL    HW290342   6.135   8.830   3.066 -0.2275 -0.9228  1.6353
26122SOL     OW90343   6.074   0.749  10.365 -0.3902  0.0395  0.3235
26122SOL    HW190344   6.081   0.737  10.460 -0.8669  1.3835  0.5541
26122SOL    HW290345   5.982   0.729  10.346 -0.4528  0.3978  0.2501
26123SOL     OW90346   2.811  10.095   7.233  0.5781 -0.0261  0.2692
26123SOL    HW190347   2.826  10.002   7.250  0.1564  0.3443  3.2065
26123SOL    HW290348   2.731  10.115   7.282  0.2206  1.7263 -0.9667
26124SOL     OW90349   0.052   6.811   2.625  0.1055  0.0171  0.3287
26124SOL    HW190350   0.030   6.751   2.696 -1.0031  0.3763  0.3148
26124SOL    HW290351  -0.026   6.865   2.615 -0.3028 -0.8996 -2.0682
26125SOL     OW90352   5.315   5.087   2.948 -0.4257  0.4927  0.1639
26125SOL    HW190353   5.366   5.161   2.917 -0.3008  0.2753 -0.1487
26125SOL    HW290354   5.227   5.102   2.915 -0.4479  0.6093  0.2774
26126SOL     OW90355   6.907   5.354   4.534 -0.2699 -0.2273 -0.4569
26126SOL    HW190356   6.924   5.262   4.513 -0.2139 -0.2600 -0.2676
26126SOL    HW290357   6.816   5.369   4.507  0.3457  0.2278 -2.4686
26127SOL     OW90358   2.022   5.813   5.267 -0.2609  0.6519  0.1457
26127SOL    HW190359   2.107   5.850   5.289 -0.0313 -0.0065  0.3740
26127SOL    HW290360   2.001   5.755   5.340 -0.7412  0.5278 -0.0836
26128SOL     OW90361   0.452   2.531   1.441  0.0563  0.7682 -0.0086
26128SOL    HW190362   0.363   2.556   1.416 -1.4950 -2.6170  1.5657
26128SOL    HW290363   0.499   2.526   1.358 -1.5692  1.3406 -1.0129
26129SOL     OW90364   5.202   3.387   5.875 -0.3287  0.4502 -0.2464
26129SOL    HW190365   5.226   3.300   5.845 -0.9002  1.1205 -2.9184
26129SOL    HW290366   5.115   3.377   5.914 -0.2225 -0.2300 -0.1866
26130SOL     OW90367   6.057   9.618   5.521  0.7409 -0.1696  0.5451
26130SOL    HW190368   6.023   9.529   5.519  1.2592 -0.4000  1.4475
26130SOL    HW290369   5.980   9.673   5.529  0.2934 -0.4197 -1.4188
26131SOL     OW90370   6.123   1.136   0.356  0.0913  0.1922  0.1432
26131SOL    HW190371   6.207   1.116   0.314 -0.5291 -0.3881 -0.8666
26131SOL    HW290372   6.058   1.109   0.292 -0.8670  0.9936  0.7604
26132SOL     OW90373   7.258   5.018   2.038 -0.2516 -0.4224  0.6233
26132SOL    HW190374   7.260   5.051   1.948 -0.9866  0.2218  0.8312
26132SOL    HW290375   7.209   4.936   2.032 -2.6474  0.9178  0.7988
26133SOL     OW90376  10.258  10.154   7.874  0.3456  0.0768  0.0499
26133SOL    HW190377  10.247  10.059   7.865  0.3310  0.2438 -2.5890
26133SOL    HW290378  10.329  10.176   7.813 -0.4805  1.8910 -0.3228
26134SOL     OW90379   9.976   6.935   5.409  0.0347 -0.4786 -0.0188
26134SOL    HW190380  10.014   6.911   5.325  1.3327 -1.6103  0.8410
26134SOL    HW290381  10.037   6.999   5.446 -1.5836  1.6347 -0.7561
26135SOL     OW90382   0.556   6.124   2.809  0.1818 -0.2169  0.3329
26135SOL    HW190383   0.587   6.036   2.787 -1.2863 -0.0225 -3.1817
26135SOL    HW290384   0.460   6.116   2.812  0.0164  1.2527 -0.1051
26136SOL     OW90385   6.607   2.247   7.711 -0.2502  0.0990  0.3121
26136SOL    HW190386   6.570   2.297   7.784  0.5475  0.2476  0.6227
26136SOL    HW290387   6.550   2.171   7.702 -0.2003 -0.0519  1.2632
26137SOL     OW90388  10.324   8.386   6.224  0.1046 -0.0767  0.0421
26137SOL    HW190389  10.395   8.376   6.288  1.4082  0.4352 -1.2861
26137SOL    HW290390  10.355   8.453   6.163 -2.1784  1.2999  0.2786
26138SOL     OW90391   4.950   6.555   7.016 -0.0312  0.0853 -0.4536
26138SOL    HW190392   4.952   6.490   7.086 -0.7610 -1.0696 -1.4620
26138SOL    HW290393   4.857   6.571   7.001  0.0040 -1.2294 -2.4962
26139SOL     OW90394  10.372   9.857  10.113  0.3923 -0.5994 -0.2605
26139SOL    HW190395  10.317   9.784  10.085  3.3852 -2.0109 -3.1592
26139SOL    HW290396  10.339   9.932  10.062 -2.1103  0.0384  2.0627
26140SOL     OW90397   7.945   0.663   6.655 -0.1543 -0.1173  0.7804
26140SOL    HW190398   7.937   0.752   6.689 -1.3507 -0.8910  2.6910
26140SOL    HW290399   8.036   0.640   6.672  0.3688  0.9487 -0.3869
26141SOL     OW90400   4.511   5.930   6.565 -0.2576  0.0928 -0.5644
26141SOL    HW190401   4.595   5.959   6.600  0.3574 -0.8261 -1.2404
26141SOL    HW290402   4.529   5.911   6.473 -1.8548  2.6135 -1.5088
26142SOL     OW90403   6.189   2.674   9.676  0.2623 -0.2626 -0.1470
26142SOL    HW190404   6.150   2.597   9.718  0.8599  0.9531  2.8955
26142SOL    HW290405   6.121   2.740   9.677  0.6464  0.1383 -0.0655
26143SOL     OW90406   1.473   2.494   6.070  0.8539  0.0550 -0.3072
26143SOL    HW190407   1.536   2.422   6.072  0.3442 -0.4161 -0.7128
26143SOL    HW290408   1.495   2.548   6.146  0.8840 -0.8377  0.3278
26144SOL     OW90409   1.871   0.838   4.418  0.1230 -0.1278 -0.0450
26144SOL    HW190410   1.839   0.764   4.469 -0.2134  0.6321  0.8504
26144SOL    HW290411   1.855   0.915   4.472  0.1212  0.6591 -1.1217
26145SOL     OW90412   1.765   9.487   1.298 -0.6855  0.3125 -0.3617
26145SOL    HW190413   1.704   9.468   1.370 -1.5402 -0.0315 -1.1659
26145SOL    HW290414   1.791   9.401   1.266 -1.2140  0.4588 -1.2105
26146SOL     OW90415   5.739  10.143   4.758 -0.1972  1.0010  0.1367
26146SOL    HW190416   5.661  10.174   4.711 -0.1110  0.0778 -0.6547
26146SOL    HW290417   5.705  10.109   4.841 -0.4818  1.7290  0.3243
26147SOL     OW90418   6.345   3.554   4.848  0.4392 -0.0400 -0.1375
26147SOL    HW190419   6.296   3.582   4.925  1.8659  0.2093  0.7148
26147SOL    HW290420   6.282   3.505   4.795 -0.4194 -0.7112  1.4531
26148SOL     OW90421   8.308   1.077   0.556  0.3934 -0.1959 -0.2090
26148SOL    HW190422   8.238   1.035   0.605 -1.5728  0.0814 -2.5725
26148SOL    HW290423   8.342   1.009   0.498  1.8941 -0.2369  0.6765
26149SOL     OW90424   8.670   3.209   2.245  0.1168 -0.1249 -0.0612
26149SOL    HW190425   8.664   3.297   2.208 -0.4659  0.4206  1.2812
26149SOL    HW290426   8.618   3.213   2.325 -1.3814 -2.1492 -0.8249
26150SOL     OW90427   7.546  10.219   7.938 -0.0258  0.0659 -0.0612
26150SOL    HW190428   7.563  10.227   7.844  0.4108  0.1163  0.0191
26150SOL    HW290429   7.494  10.139   7.946 -0.1135  0.0922 -0.3517
26151SOL     OW90430   0.401   4.822   5.474  0.6651  0.2004 -0.4427
26151SOL    HW190431   0.452   4.755   5.430  1.4815  0.0671  0.6609
26151SOL    HW290432   0.310   4.796   5.461  0.8666  0.1515 -1.9804
26152SOL     OW90433   1.258   5.519  10.291  0.1999 -0.0085  0.5686
26152SOL    HW190434   1.310   5.504  10.212 -1.1705 -0.3659 -0.2991
26152SOL    HW290435   1.172   5.482  10.271  0.2344 -1.4574  2.7768
26153SOL     OW90436   5.905   3.663   4.521 -0.3954 -0.3947  0.3278
26153SOL    HW190437   5.894   3.647   4.427  0.9857  2.5321 -0.4414
26153SOL    HW290438   5.829   3.716   4.546  1.0426  2.0248 -0.1145
26154SOL     OW90439   5.001   8.152   1.543  0.1233  0.4049 -0.1127
26154SOL    HW190440   5.000   8.248   1.537 -2.8897  0.5716  0.9570
26154SOL    HW290441   5.002   8.122   1.452 -0.3531  1.5116 -0.5007
26155SOL     OW90442   6.706   6.796   1.291  0.5173  0.0550  0.2915
26155SOL    HW190443   6.720   6.840   1.207 -0.4055  0.1926  0.2048
26155SOL    HW290444   6.649   6.855   1.340 -1.7563 -1.5555 -0.2914
26156SOL     OW90445   4.167   3.351   9.823  0.0956  0.3426  0.6862
26156SOL    HW190446   4.256   3.379   9.844  1.1121 -2.2129  0.2295
26156SOL    HW290447   4.175   3.313   9.735 -1.6959  0.9939  0.2052
26157SOL     OW90448   0.525   9.699   6.993  0.1372 -0.8882  0.2908
26157SOL    HW190449   0.463   9.654   6.935 -1.5723  0.2488  1.1474
26157SOL    HW290450   0.493   9.682   7.081  1.3042 -0.6017  0.7953
26158SOL     OW90451   8.651   8.430   5.932  0.5741  0.2549 -0.0930
26158SOL    HW190452   8.667   8.429   6.027 -1.4136 -0.2587  0.2743
26158SOL    HW290453   8.651   8.338   5.907  0.5752  0.3661 -0.5041
26159SOL     OW90454   5.014   5.782   1.747  0.6877  0.1324  0.0844
26159SOL    HW190455   4.926   5.769   1.783 -0.1766 -0.3258 -2.0574
26159SOL    HW290456   5.003   5.850   1.680  1.9863  0.0927 -0.2079
26160SOL     OW90457   5.057  10.350   5.600 -0.4986 -0.0827 -0.2169
26160SOL    HW190458   5.131  10.379   5.655 -0.9095 -1.6918  1.2622
26160SOL    HW290459   5.006  10.430   5.586 -0.1275  0.4800  1.3660
26161SOL     OW90460   7.072   7.510   9.066 -0.0137  0.1767  0.4374
26161SOL    HW190461   7.133   7.437   9.065 -0.5574 -0.3001 -0.8840
26161SOL    HW290462   7.116   7.579   9.116  1.7305 -0.0295 -0.7393
26162SOL     OW90463   8.926   6.822   0.108 -0.0274  0.5215 -0.4516
26162SOL    HW190464   8.869   6.756   0.067  0.1010  0.2451 -0.1902
26162SOL    HW290465   9.007   6.817   0.057  0.3937 -0.3363  0.2801
26163SOL     OW90466   4.016  10.001   2.753 -0.1984 -0.1765  0.3004
26163SOL    HW190467   4.089   9.982   2.695 -0.1689 -2.1314  0.8825
26163SOL    HW290468   4.051  10.061   2.818  0.3018  0.4897 -0.5595
26164SOL     OW90469   8.957   0.917   0.747  0.0848 -0.4030 -0.2829
26164SOL    HW190470   9.033   0.974   0.756  0.0299 -0.4756  0.8346
26164SOL    HW290471   8.933   0.894   0.837 -0.1845 -1.8000 -0.6762
26165SOL     OW90472   6.085   5.126   1.029 -0.0704 -0.1285 -0.1276
26165SOL    HW190473   6.088   5.222   1.029  1.1900 -0.1119  1.9098
26165SOL    HW290474   5.992   5.104   1.035 -0.4643  0.9076 -1.8410
26166SOL     OW90475   1.037   1.052   6.222  0.5910  0.7173  0.1649
26166SOL    HW190476   1.014   1.145   6.229  0.1779  0.6665 -0.4704
26166SOL    HW290477   1.065   1.028   6.311 -0.1436  1.2217  0.5443
26167SOL     OW90478   4.516   0.368   0.537 -0.3388  0.3584  0.5826
26167SOL    HW190479   4.474   0.393   0.619 -0.7872  2.9766 -0.3383
26167SOL    HW290480   4.445   0.335   0.482  0.0298 -1.8160  1.3196
26168SOL     OW90481   8.067   6.598   7.370 -0.3918  0.1143  0.0797
26168SOL    HW190482   8.060   6.593   7.275 -1.6958 -0.3837  0.1797
26168SOL    HW290483   8.153   6.638   7.386 -0.4425  0.8370 -1.3044
26169SOL     OW90484   8.865   9.612   1.083  0.2078 -0.6540  0.1370
26169SOL    HW190485   8.786   9.649   1.042 -1.0298 -3.0503  0.1438
26169SOL    HW290486   8.889   9.540   1.025  1.8698 -0.5490  0.6587
26170SOL     OW90487   9.441   5.297   6.525  0.2985  0.4332  0.6337
26170SOL    HW190488   9.382   5.327   6.456 -0.4302 -0.2839  0.9140
26170SOL    HW290489   9.442   5.201   6.515 -0.4768  0.2381  2.0955
26171SOL     OW90490   1.373   0.125   6.507  0.6435  0.4700 -0.5228
26171SOL    HW190491   1.337   0.048   6.549 -0.7139  1.5719  0.4201
26171SOL    HW290492   1.304   0.156   6.448  0.7440  1.5396 -0.1113
26172SOL     OW90493   1.583   9.844   4.322  0.1412 -0.0702 -0.0012
26172SOL    HW190494   1.504   9.796   4.300  0.6773 -1.4088  0.8978
26172SOL    HW290495   1.556   9.905   4.391 -0.0742 -0.6782  0.4624
26173SOL     OW90496   5.076   6.902   8.117 -0.2200  0.2939  0.1978
26173SOL    HW190497   5.117   6.822   8.086  0.7877  0.4062  1.1649
26173SOL    HW290498   5.025   6.934   8.043 -1.4396 -1.7450  0.0954
26174SOL     OW90499   2.377   5.133   4.767 -0.1081  0.0629 -0.0421
26174SOL    HW190500   2.350   5.075   4.838  1.1969  0.6587  0.9917
26174SOL    HW290501   2.312   5.120   4.699  0.1556 -2.6471  0.1198
26175SOL     OW90502   2.401   0.056   9.234 -0.3196  0.2811 -0.2647
26175SOL    HW190503   2.438   0.132   9.279 -3.2308  2.3283 -1.0472
26175SOL    HW290504   2.353   0.009   9.302  1.5027 -0.9826  0.2244
26176SOL     OW90505   5.510   5.279   1.949 -0.3273 -0.4417 -0.3465
26176SOL    HW190506   5.545   5.226   1.877  0.5841 -0.8609  0.3788
26176SOL    HW290507   5.549   5.365   1.935 -0.1185 -0.5335 -0.3416
26177SOL     OW90508   3.439   8.128   8.916  0.3688 -0.1440  0.6425
26177SOL    HW190509   3.470   8.138   9.006 -0.8891 -0.2727  1.1220
26177SOL    HW290510   3.518   8.126   8.863  1.1294  0.1786  1.7211
26178SOL     OW90511   7.552   1.188  10.291  0.2906 -0.0452 -0.8720
26178SOL    HW190512   7.474   1.147  10.255 -0.4943 -0.8843  1.5923
26178SOL    HW290513   7.624   1.153  10.239 -0.7016 -1.7791 -1.1518
26179SOL     OW90514   2.378   5.406   6.361  0.0102  0.6240 -0.3264
26179SOL    HW190515   2.460   5.447   6.389  0.6133 -0.6777 -0.1004
26179SOL    HW290516   2.396   5.375   6.272 -0.1533  0.1328 -0.1927
26180SOL     OW90517   6.789   4.627   7.217  0.2370 -0.5315  0.7121
26180SOL    HW190518   6.853   4.605   7.150 -1.1949  0.8304 -1.2578
26180SOL    HW290519   6.749   4.544   7.241  0.5240 -1.0223 -0.4428
26181SOL     OW90520   6.577   2.321   5.172 -0.1489 -0.4034  0.1272
26181SOL    HW190521   6.517   2.246   5.168 -0.0243 -0.4673 -2.4863
26181SOL    HW290522   6.659   2.285   5.204 -0.5909 -0.9953  0.6205
26182SOL     OW90523   9.584   1.458   8.806 -0.1198 -0.1259 -0.1494
26182SOL    HW190524   9.521   1.404   8.853 -1.6393  0.9618 -0.8523
26182SOL    HW290525   9.597   1.412   8.722  0.8358 -0.8647  0.3730
26183SOL     OW90526   3.088   4.229   1.447 -0.1566  0.1919 -0.3424
26183SOL    HW190527   3.051   4.216   1.360  1.5023  1.6057 -1.3026
26183SOL    HW290528   3.140   4.149   1.463 -0.0370  0.1586 -0.8770
26184SOL     OW90529   5.170   1.159   5.857 -0.4656  0.9255 -0.5214
26184SOL    HW190530   5.086   1.178   5.900 -0.4680 -1.4737  0.7158
26184SOL    HW290531   5.235   1.168   5.927  0.0738  0.8470 -1.0023
26185SOL     OW90532   3.862   7.994   2.155  0.0018 -0.1888 -0.8892
26185SOL    HW190533   3.886   7.902   2.144  0.4072 -0.3104  0.6936
26185SOL    HW290534   3.794   8.010   2.090  0.2969 -1.4547 -1.5349
26186SOL     OW90535   0.157   7.779   0.179  0.0930 -0.8209  0.2131
26186SOL    HW190536   0.158   7.697   0.130 -1.1727  0.0259 -1.3284
26186SOL    HW290537   0.138   7.846   0.113 -1.2409  0.4401  1.7856
26187SOL     OW90538   0.567   6.042   0.010 -0.4593  0.2349 -0.4572
26187SOL    HW190539   0.482   6.060   0.050 -0.3163 -2.0851  1.0928
26187SOL    HW290540   0.563   5.949  -0.012  1.5360  0.1755 -0.7064
26188SOL     OW90541   6.065   9.484   0.974  0.2743 -0.2341 -0.0871
26188SOL    HW190542   6.072   9.565   0.923 -0.0016  0.3687  0.8079
26188SOL    HW290543   5.981   9.492   1.020  1.9223  0.7777  2.9921
26189SOL     OW90544   5.948   0.288   4.032  0.0302  0.0766  0.2195
26189SOL    HW190545   5.978   0.243   4.111  1.7155  1.0638  0.1863
26189SOL    HW290546   6.026   0.297   3.978 -0.8424  0.5477 -1.0076
26190SOL     OW90547   2.896   9.146   3.938 -0.1241 -0.3735  0.3294
26190SOL    HW190548   2.953   9.195   3.879 -1.2785 -0.4705 -0.9153
26190SOL    HW290549   2.931   9.163   4.026  1.0066  0.6144 -0.2916
26191SOL     OW90550   3.587   3.232   7.405  0.2668 -0.5055  0.0195
26191SOL    HW190551   3.521   3.229   7.336 -0.3214 -1.0843  0.5911
26191SOL    HW290552   3.596   3.140   7.433  2.4867 -0.7191 -1.1298
26192SOL     OW90553   2.210   6.812   1.783 -0.1576 -0.1363  0.0208
26192SOL    HW190554   2.226   6.833   1.691  0.1483  0.4037  0.1910
26192SOL    HW290555   2.142   6.874   1.810  0.3870  0.3143  0.3912
26193SOL     OW90556   0.368  10.157   0.369 -0.0989 -0.2408 -0.6677
26193SOL    HW190557   0.276  10.182   0.356 -0.6448 -1.5929  0.3139
26193SOL    HW290558   0.377  10.075   0.321  0.3123 -0.6147  0.0316
26194SOL     OW90559   0.168   5.422   2.062 -0.3403 -0.0845 -0.1928
26194SOL    HW190560   0.144   5.343   2.015  0.2189 -1.9199  2.3749
26194SOL    HW290561   0.107   5.426   2.135  0.5636  1.0186  0.5411
26195SOL     OW90562   2.544   2.339   7.496 -0.3409  0.0422  0.2992
26195SOL    HW190563   2.620   2.369   7.446 -1.5418 -1.1153 -2.4146
26195SOL    HW290564   2.581   2.283   7.564  1.2890  0.0004 -0.5637
26196SOL     OW90565   9.661   2.651   4.755  0.1333  0.0030  0.5947
26196SOL    HW190566   9.647   2.599   4.676 -0.2788 -0.1532  0.7700
26196SOL    HW290567   9.593   2.718   4.752  0.8452  0.7358  0.2128
26197SOL     OW90568   0.867   8.503   3.794 -0.1646  0.0522  0.2045
26197SOL    HW190569   0.878   8.475   3.885  1.0789  1.6176  0.5989
26197SOL    HW290570   0.923   8.444   3.744 -0.5011 -0.5305  0.5025
26198SOL     OW90571   0.436   8.728   5.338 -0.0514  0.1818  0.1612
26198SOL    HW190572   0.343   8.746   5.340 -0.2397 -0.3435 -1.6706
26198SOL    HW290573   0.442   8.632   5.337  0.5885  0.1743  1.7492
26199SOL     OW90574   0.538   1.953   3.137  0.1944 -0.5757 -0.4932
26199SOL    HW190575   0.592   1.877   3.114 -0.1526 -1.1049  0.3729
26199SOL    HW290576   0.544   1.958   3.233 -0.0097  0.3283 -0.5180
26200SOL     OW90577   5.105   9.681   3.355 -0.4148  0.6082 -0.1881
26200SOL    HW190578   5.066   9.596   3.376  1.2083  0.0020  0.5390
26200SOL    HW290579   5.105   9.728   3.438  0.4846  0.5443 -0.1421
26201SOL     OW90580   3.050   5.572   6.608 -0.7206 -0.2826  0.1243
26201SOL    HW190581   2.963   5.536   6.625 -1.3887  1.6485  1.1147
26201SOL    HW290582   3.035   5.665   6.591  1.2419  0.4276  1.7729
26202SOL     OW90583   0.266   7.820   1.311  0.0919  0.1602  0.0623
26202SOL    HW190584   0.193   7.870   1.349  0.2845  0.6173 -0.1594
26202SOL    HW290585   0.263   7.736   1.355 -0.5474  0.1899  0.0915
26203SOL     OW90586   7.469   3.134   3.303 -0.3720  0.5818 -0.4159
26203SOL    HW190587   7.407   3.178   3.244  0.3846  0.6184 -1.2051
26203SOL    HW290588   7.416   3.071   3.351 -1.3196  1.7452  0.1043
26204SOL     OW90589   1.021   0.749   7.044  0.2458  0.3615  0.0566
26204SOL    HW190590   1.106   0.730   7.085  1.5006 -2.4489 -3.3441
26204SOL    HW290591   0.964   0.678   7.074 -0.3217  1.0873  0.7231
26205SOL     OW90592   2.720   6.481   8.125  0.3462  0.0941  0.3800
26205SOL    HW190593   2.747   6.565   8.164  0.4263 -0.7522  2.2557
26205SOL    HW290594   2.660   6.506   8.055  1.0108  1.7524  0.3390
26206SOL     OW90595   6.887   5.049   5.837 -0.6528 -0.7780  0.0643
26206SOL    HW190596   6.972   5.037   5.878 -0.2915 -0.0788 -0.4624
26206SOL    HW290597   6.826   4.999   5.892 -0.4928  1.5434  2.5867
26207SOL     OW90598  10.146   2.529   9.920 -1.2035 -0.6519  0.0218
26207SOL    HW190599  10.226   2.487   9.951 -1.0216  0.2380  0.7950
26207SOL    HW290600  10.125   2.484   9.838  0.7057 -0.1680 -0.7749
26208SOL     OW90601   3.584   1.981   0.890 -0.3157  0.2789  0.2183
26208SOL    HW190602   3.580   1.926   0.968 -2.0383 -0.5030 -0.3605
26208SOL    HW290603   3.538   1.930   0.823 -1.2554  2.0639 -0.5711
26209SOL     OW90604   6.530   1.710   5.387  0.6127  0.3059  0.2333
26209SOL    HW190605   6.551   1.686   5.297  0.4297 -1.2332  0.5769
26209SOL    HW290606   6.436   1.691   5.396  0.3338  1.6576  0.3979
26210SOL     OW90607   7.961   8.193   0.950  0.5399 -0.3715  0.0249
26210SOL    HW190608   8.039   8.144   0.976  2.4628  1.8573 -1.2399
26210SOL    HW290609   7.968   8.203   0.855 -0.8211  0.6406 -0.0097
26211SOL     OW90610   1.920   8.800   2.117  0.0099  0.2608 -0.3427
26211SOL    HW190611   2.014   8.819   2.117  0.1657 -0.4741 -0.9697
26211SOL    HW290612   1.879   8.880   2.151  0.6758  1.4632 -2.2110
26212SOL     OW90613   6.488   9.558   8.938  0.5788  0.3041 -0.2245
26212SOL    HW190614   6.414   9.576   8.995  1.6877 -1.2530  1.8291
26212SOL    HW290615   6.507   9.465   8.952  2.1932  0.3740 -1.6005
26213SOL     OW90616   5.532   2.157   8.879 -0.4027  0.0338  0.3592
26213SOL    HW190617   5.564   2.077   8.920 -0.1047 -1.4811 -2.5705
26213SOL    HW290618   5.570   2.228   8.931  1.1906 -1.6929  1.6785
26214SOL     OW90619   6.810   3.012   9.115  0.4884 -0.2989  0.2831
26214SOL    HW190620   6.790   2.940   9.175  0.4115 -0.5569 -0.0506
26214SOL    HW290621   6.747   3.002   9.044  0.4372  0.1373  0.2639
26215SOL     OW90622   3.036   0.281   7.430  0.0359  0.3224 -0.2434
26215SOL    HW190623   3.115   0.330   7.405 -0.8701  0.7629 -2.5446
26215SOL    HW290624   3.061   0.189   7.420  0.3187  0.4573 -0.8755
26216SOL     OW90625   9.612   3.008   6.359  0.0737  0.1842  0.4702
26216SOL    HW190626   9.686   3.066   6.378  0.0316  0.5706 -0.4983
26216SOL    HW290627   9.652   2.932   6.316 -0.1961  0.9875 -1.2957
26217SOL     OW90628   8.453   9.488   4.625 -0.4641  0.5368 -0.3856
26217SOL    HW190629   8.480   9.579   4.617 -0.4355  0.4482 -1.5091
26217SOL    HW290630   8.526   9.438   4.590 -0.7553  0.1157 -0.4040
26218SOL     OW90631   1.957   1.699   1.911 -0.0747  0.3185  0.3450
26218SOL    HW190632   1.929   1.613   1.879  0.2711  1.0681 -2.2030
26218SOL    HW290633   1.886   1.727   1.969 -0.4929 -1.4139  0.7198
26219SOL     OW90634   3.594   0.700   9.811  0.1031  0.2952 -0.7144
26219SOL    HW190635   3.617   0.611   9.838 -1.5939  0.2105  0.6136
26219SOL    HW290636   3.615   0.754   9.887  0.9542  1.0310 -1.4473
26220SOL     OW90637   6.890   8.178   2.870  0.4616  0.5526 -0.6542
26220SOL    HW190638   6.960   8.220   2.920  0.8648  0.1504 -0.8744
26220SOL    HW290639   6.880   8.091   2.909 -1.0065  1.1516  0.4009
26221SOL     OW90640   1.046   8.528   9.636  0.0764  0.0020  0.2151
26221SOL    HW190641   1.082   8.540   9.548  1.0554 -2.0179  0.2790
26221SOL    HW290642   0.986   8.602   9.647  1.2846  1.3365 -1.4231
26222SOL     OW90643   8.037   9.563   0.548 -0.2168  0.2169 -0.6356
26222SOL    HW190644   8.130   9.586   0.556  0.1361 -1.5651  0.9972
26222SOL    HW290645   7.991   9.644   0.570  0.9760  0.4021  1.5475
26223SOL     OW90646   2.395   1.316   0.739  0.5889 -0.0215  0.6209
26223SOL    HW190647   2.389   1.390   0.678  0.2007  0.7467  1.5620
26223SOL    HW290648   2.483   1.281   0.726  0.2445 -0.3785 -0.9360
26224SOL     OW90649   5.797   4.175   1.317 -0.2577  0.5019 -0.6135
26224SOL    HW190650   5.853   4.176   1.239  1.7384  2.8634  0.6833
26224SOL    HW290651   5.773   4.267   1.330 -1.0517  0.0796  1.1846
26225SOL     OW90652   1.171   9.835   2.382  0.5015 -0.1017  0.5532
26225SOL    HW190653   1.167   9.740   2.383  0.1100 -0.1032 -0.2772
26225SOL    HW290654   1.262   9.856   2.358  0.3350 -0.2796 -0.2521
26226SOL     OW90655   2.991   7.613   8.343 -0.6460  0.4159 -0.7322
26226SOL    HW190656   3.064   7.552   8.332  0.5403  1.6270  0.1097
26226SOL    HW290657   2.928   7.566   8.397  0.8096  0.3473  0.9715
26227SOL     OW90658   1.429   4.029   7.064  0.2251 -0.1094 -0.0764
26227SOL    HW190659   1.348   4.001   7.107  0.0746  0.9123  0.3250
26227SOL    HW290660   1.474   3.948   7.043 -0.0436 -0.6492  1.3439
26228SOL     OW90661   9.821   1.431   6.864  0.0257 -0.1071 -0.4060
26228SOL    HW190662   9.759   1.503   6.852 -0.8222 -0.7050  0.2123
26228SOL    HW290663   9.901   1.460   6.820  0.0095  1.5748  0.5917
26229SOL     OW90664   5.913   9.819   6.912  0.2214  0.0379 -0.1174
26229SOL    HW190665   6.007   9.812   6.892  0.9704 -1.9030  3.2807
26229SOL    HW290666   5.906   9.902   6.959  0.4744 -0.2961  0.5266
26230SOL     OW90667   2.279   0.324   8.430  0.3282 -0.3177 -0.5150
26230SOL    HW190668   2.372   0.327   8.454  0.4613  0.4959 -1.0848
26230SOL    HW290669   2.254   0.416   8.420 -0.7700 -0.4784  0.4811
26231SOL     OW90670   7.919   7.149   8.481 -0.5589 -0.4322 -0.7050
26231SOL    HW190671   7.945   7.062   8.512 -2.8116 -1.0749 -0.4313
26231SOL    HW290672   7.864   7.132   8.404 -2.4961  0.5909  0.3762
26232SOL     OW90673   5.837   4.300   7.889 -0.2659  0.5481 -0.2450
26232SOL    HW190674   5.776   4.374   7.895  0.9010  1.7508 -2.0095
26232SOL    HW290675   5.918   4.332   7.930 -1.0614 -1.5197  3.3933
26233SOL     OW90676   1.014   5.995   0.293 -0.2929 -0.1675  0.0009
26233SOL    HW190677   0.981   5.905   0.296  1.5254 -0.8465  1.7385
26233SOL    HW290678   1.039   6.014   0.383 -0.8593  2.2070 -0.2791
26234SOL     OW90679   5.246   7.718   8.083  0.2962  0.4768  0.5253
26234SOL    HW190680   5.260   7.668   8.002 -0.3620 -0.7225  1.1245
26234SOL    HW290681   5.157   7.752   8.074 -1.0254 -2.2398  2.0001
26235SOL     OW90682   2.714   8.044   9.139  0.0605  0.3991  0.3212
26235SOL    HW190683   2.792   8.063   9.191  0.6367  0.1750 -0.4401
26235SOL    HW290684   2.702   7.949   9.147 -0.4907  0.5126  0.9173
26236SOL     OW90685   4.819   5.837   0.186  0.6579 -0.1760 -0.2718
26236SOL    HW190686   4.731   5.799   0.176  0.5756 -0.0547 -0.0031
26236SOL    HW290687   4.872   5.765   0.222  0.9097 -0.5567 -1.3513
26237SOL     OW90688   3.402   3.718   9.050 -0.5791  0.0766 -0.4516
26237SOL    HW190689   3.486   3.759   9.073 -0.0586 -1.0329 -0.2741
26237SOL    HW290690   3.404   3.711   8.955  0.0761 -0.9932 -0.3831
26238SOL     OW90691   9.847   1.736   6.629  0.2127  0.1919  0.0876
26238SOL    HW190692   9.904   1.659   6.629 -0.2538 -0.1556  0.2048
26238SOL    HW290693   9.793   1.727   6.550 -2.1651 -1.3560  1.7477
26239SOL     OW90694   2.497   8.215   7.935 -0.2379 -0.3982  0.4106
26239SOL    HW190695   2.592   8.221   7.945 -0.1414 -0.5358 -0.3386
26239SOL    HW290696   2.467   8.168   8.013  0.2758 -0.1512  0.7645
26240SOL     OW90697   4.640   9.003   1.272  0.0407  0.4005  0.2688
26240SOL    HW190698   4.568   8.946   1.300  1.3147 -1.0831  0.6516
26240SOL    HW290699   4.715   8.975   1.324  1.4963  0.2538 -1.7738
26241SOL     OW90700   4.875   6.732   9.445 -0.6371 -0.0264 -0.4530
26241SOL    HW190701   4.812   6.673   9.405  0.0544 -1.3826  0.3788
26241SOL    HW290702   4.828   6.814   9.456 -2.0565 -0.8180 -0.4140
26242SOL     OW90703   0.882   4.636   0.970  0.3820 -0.5125 -0.2267
26242SOL    HW190704   0.798   4.682   0.968  0.5027 -0.3131 -1.4180
26242SOL    HW290705   0.861   4.548   1.001 -0.4002 -0.6866 -1.2036
26243SOL     OW90706   1.499   8.907   4.862 -0.5728  0.1107  0.0123
26243SOL    HW190707   1.418   8.953   4.839  0.4855  1.8285 -0.4178
26243SOL    HW290708   1.568   8.957   4.819  0.7105 -1.4772  0.1595
26244SOL     OW90709   6.239   8.865   2.717 -0.3386 -0.1138  0.0661
26244SOL    HW190710   6.238   8.884   2.623  0.6436 -0.3698  0.0005
26244SOL    HW290711   6.173   8.796   2.727 -0.4696 -0.0708 -0.4246
26245SOL     OW90712   7.724   4.560   6.267  0.4367 -0.4463 -0.0570
26245SOL    HW190713   7.648   4.577   6.213 -0.7522 -0.5192  1.5207
26245SOL    HW290714   7.727   4.464   6.275  0.1120 -0.4094  0.6344
26246SOL     OW90715  10.280   1.890   7.713  0.2807  0.0674  0.3208
26246SOL    HW190716  10.249   1.957   7.652 -0.5559 -1.5260 -1.0931
26246SOL    HW290717  10.202   1.839   7.735  1.1597 -1.5008 -0.0363
26247SOL     OW90718   8.214   4.560   7.950  0.2073  0.1091 -0.3338
26247SOL    HW190719   8.257   4.476   7.933 -0.5649  0.1075 -2.5634
26247SOL    HW290720   8.156   4.542   8.025 -1.0711 -1.7949 -1.6860
26248SOL     OW90721   2.786   6.591   9.158 -0.0070 -0.2002  0.2321
26248SOL    HW190722   2.800   6.547   9.075 -0.6505  1.7812 -0.9945
26248SOL    HW290723   2.692   6.582   9.176 -0.2757  1.1358 -0.3636
26249SOL     OW90724   2.394   3.120   2.410  0.1861 -0.4559 -0.6428
26249SOL    HW190725   2.404   3.129   2.505  0.0649  1.6127 -0.7685
26249SOL    HW290726   2.348   3.200   2.384  1.5321 -0.2579 -2.6196
26250SOL     OW90727   1.842   7.660   2.049 -0.8310 -0.0233 -0.2496
26250SOL    HW190728   1.887   7.690   2.128  2.1939 -2.2966 -0.9087
26250SOL    HW290729   1.793   7.737   2.019 -0.3465  1.5533  2.5957
26251SOL     OW90730   4.423   3.603   8.700  0.5823 -0.7823 -0.0883
26251SOL    HW190731   4.441   3.691   8.668  0.0077 -1.0409 -1.1681
26251SOL    HW290732   4.340   3.611   8.747  0.1855 -0.8573 -0.7552
26252SOL     OW90733   7.811   3.963   0.008 -0.0835  0.1796 -0.6807
26252SOL    HW190734   7.807   4.051  -0.029 -0.1546  0.7915  0.6961
26252SOL    HW290735   7.770   3.971   0.094  0.0340 -1.1715 -0.4677
26253SOL     OW90736   3.387   6.034   0.860  0.0497 -0.1689 -0.3000
26253SOL    HW190737   3.346   5.991   0.935 -0.8186  0.1541 -0.5792
26253SOL    HW290738   3.443   6.101   0.899  2.7323 -2.5087  0.2492
26254SOL     OW90739   2.038   4.481   8.582  0.1641  0.2690 -0.5801
26254SOL    HW190740   1.956   4.434   8.568  0.6150 -0.3514 -1.1290
26254SOL    HW290741   2.021   4.535   8.660 -0.5707 -0.2876 -0.3468
26255SOL     OW90742   4.508   5.893   3.998  0.2157  0.4578  0.8455
26255SOL    HW190743   4.500   5.868   4.090  0.8115  0.1203  0.8101
26255SOL    HW290744   4.472   5.819   3.950 -0.6101  0.8632  0.8087
26256SOL     OW90745   0.129   6.623   2.438 -0.5939 -0.5254  0.0743
26256SOL    HW190746   0.107   6.698   2.493 -0.6869 -0.0315 -0.6291
26256SOL    HW290747   0.060   6.559   2.457  0.3616 -1.0922  1.8771
26257SOL     OW90748   6.129   5.797   1.343  0.1054  0.8712 -0.3548
26257SOL    HW190749   6.116   5.768   1.253 -0.7695  0.3567 -0.0751
26257SOL    HW290750   6.186   5.729   1.382  0.8568  1.3281 -0.6301
26258SOL     OW90751   8.722   6.575   9.519  0.3142 -0.6852  0.7931
26258SOL    HW190752   8.677   6.647   9.563  0.1563 -1.3961  1.8374
26258SOL    HW290753   8.694   6.580   9.428  1.1512  1.2280  0.6072
26259SOL     OW90754   9.034   7.439   3.759  0.8469 -0.3256  0.3623
26259SOL    HW190755   9.032   7.532   3.737 -0.8200 -0.6130 -0.8827
26259SOL    HW290756   9.016   7.436   3.853 -1.6783  0.5435 -0.0126
26260SOL     OW90757   0.815   2.037   0.798  0.1432  0.3220 -0.7333
26260SOL    HW190758   0.775   2.026   0.712  0.0400 -0.9177 -0.5491
26260SOL    HW290759   0.842   1.949   0.823  1.0752  0.8216  0.0779
26261SOL     OW90760   8.404   2.904   5.474 -0.1669 -0.3869 -0.2453
26261SOL    HW190761   8.321   2.952   5.470 -0.1728 -0.2595  0.9337
26261SOL    HW290762   8.452   2.946   5.545  0.6517 -0.8675 -0.5045
26262SOL     OW90763   2.710   1.001   5.608  0.1784  0.1020  0.0922
26262SOL    HW190764   2.615   0.995   5.617 -0.0916  2.3288 -0.6076
26262SOL    HW290765   2.732   1.089   5.636  1.9276 -0.0550 -0.6138
26263SOL     OW90766   4.207   7.869   5.939  0.0486  0.1222 -0.1682
26263SOL    HW190767   4.169   7.802   5.882 -0.6693  0.5328 -0.1819
26263SOL    HW290768   4.147   7.943   5.934  0.6676  0.6624  0.0901
26264SOL     OW90769   6.844   6.033   0.246  0.0755 -0.1566 -0.1628
26264SOL    HW190770   6.801   6.084   0.178  0.6721  1.2225  0.4437
26264SOL    HW290771   6.775   5.979   0.284 -1.0198  1.5789  0.4072
26265SOL     OW90772   5.618   1.893   6.840  0.5545  0.1731 -0.8278
26265SOL    HW190773   5.689   1.956   6.852  0.6752  0.2757 -1.9533
26265SOL    HW290774   5.545   1.946   6.808 -0.2464  0.1633  0.8498
26266SOL     OW90775   4.403   5.960   1.695  0.1417 -0.4540 -0.4436
26266SOL    HW190776   4.481   5.955   1.749  0.1609 -1.1037 -0.5283
26266SOL    HW290777   4.340   6.010   1.747  0.0686 -1.2897  0.2895
26267SOL     OW90778   5.067  10.131   1.977 -0.4776 -0.3658 -0.3291
26267SOL    HW190779   4.999  10.197   1.964 -0.6928 -0.5203  0.0135
26267SOL    HW290780   5.031  10.051   1.940 -0.4133 -0.4095 -0.2982
26268SOL     OW90781   3.940   5.899   9.705  0.0635  0.3356  0.1012
26268SOL    HW190782   3.897   5.947   9.776  0.6305  0.2726  0.4974
26268SOL    HW290783   3.906   5.939   9.625  3.6848  4.4910  0.3033
26269SOL     OW90784   5.415   8.998   8.304  0.2043 -0.4672 -0.1479
26269SOL    HW190785   5.396   8.909   8.333  0.8053 -0.1331  1.3680
26269SOL    HW290786   5.509   9.009   8.321 -0.1797  0.9766  1.2241
26270SOL     OW90787   4.321   4.749   0.938 -0.7241  0.3637  0.2926
26270SOL    HW190788   4.401   4.800   0.922 -0.9429  0.7122  0.3074
26270SOL    HW290789   4.346   4.687   1.007 -0.7294  1.1048  0.9807
26271SOL     OW90790   4.581   8.517   4.107 -0.3925 -0.8942  0.5029
26271SOL    HW190791   4.508   8.541   4.049 -0.3201 -0.3025  0.6504
26271SOL    HW290792   4.570   8.573   4.184  0.9738  0.1800 -0.0425
26272SOL     OW90793   0.985   2.883   3.652 -0.1519  0.5627 -0.4058
26272SOL    HW190794   0.942   2.893   3.737  0.2155 -0.2518 -0.1125
26272SOL    HW290795   1.019   2.793   3.652  0.1119  0.6460 -1.2942
26273SOL     OW90796  10.020   3.151   5.430 -0.2465  0.0301  0.3145
26273SOL    HW190797  10.076   3.084   5.389  1.3171  1.2188  0.4219
26273SOL    HW290798  10.079   3.224   5.447 -1.9487  1.5280  0.0390
26274SOL     OW90799   0.593   1.518   9.318 -0.2713  0.4115 -0.0663
26274SOL    HW190800   0.683   1.547   9.327 -0.1393  1.1308 -2.7412
26274SOL    HW290801   0.540   1.590   9.352  0.1372  0.4977  0.3923
26275SOL     OW90802   2.976  10.157   0.686 -0.1011  0.1139  0.0870
26275SOL    HW190803   2.941  10.122   0.767  0.2509 -2.0954 -0.6501
26275SOL    HW290804   3.045  10.218   0.714 -0.1919 -0.3739  1.4439
26276SOL     OW90805   0.840   2.124   5.692 -0.1680 -0.1448  0.4820
26276SOL    HW190806   0.791   2.111   5.773 -1.2416 -0.1665 -0.1545
26276SOL    HW290807   0.795   2.197   5.649  0.1678 -0.3705 -0.2578
26277SOL     OW90808   1.063   9.121   5.719 -0.2652 -0.1721  0.4392
26277SOL    HW190809   1.010   9.177   5.775 -1.4087 -0.0391 -0.7067
26277SOL    HW290810   1.017   9.037   5.719  0.4961 -0.5925  0.8069
26278SOL     OW90811   1.284   0.075   0.455 -0.8565  0.3812  0.6839
26278SOL    HW190812   1.212   0.133   0.476 -0.7591  0.4478  0.8363
26278SOL    HW290813   1.253   0.024   0.380 -1.3870 -0.1918  1.2751
26279SOL     OW90814   9.190   1.473   9.808 -0.1842 -0.0943 -0.7269
26279SOL    HW190815   9.201   1.446   9.717 -0.3871 -0.5456 -0.6227
26279SOL    HW290816   9.245   1.412   9.857 -0.9174 -0.5501 -0.4546
26280SOL     OW90817   4.868   8.842   1.952 -0.4396 -0.6096 -0.4261
26280SOL    HW190818   4.915   8.924   1.936  1.7746 -1.9872 -1.6129
26280SOL    HW290819   4.781   8.857   1.916 -0.1229  1.2303 -0.5421
26281SOL     OW90820   9.010   7.442   9.865  0.7275  0.3290  0.3959
26281SOL    HW190821   8.939   7.378   9.873  0.9070  0.3202  2.8730
26281SOL    HW290822   8.973   7.514   9.815  0.1611 -1.1844 -1.4618
26282SOL     OW90823   6.739   9.571   7.647 -0.3925  0.1029  0.2024
26282SOL    HW190824   6.812   9.630   7.633 -0.6546  0.8727  1.8251
26282SOL    HW290825   6.761   9.525   7.728 -0.3121 -1.8799 -0.8836
26283SOL     OW90826   8.835   9.330   1.234 -0.2303  0.3633  0.2497
26283SOL    HW190827   8.803   9.419   1.249  0.4972  0.5001  1.0838
26283SOL    HW290828   8.757   9.276   1.234 -0.7422  1.0562 -0.8206
26284SOL     OW90829   5.155   7.610   6.438  0.0945  0.0101  0.2426
26284SOL    HW190830   5.108   7.535   6.472  0.2413  0.2291  0.9315
26284SOL    HW290831   5.216   7.572   6.374 -0.2935 -0.3786  0.0958
26285SOL     OW90832   1.638   7.679   9.477  0.3432  0.1086  0.2673
26285SOL    HW190833   1.630   7.591   9.439  0.3168  0.8131 -1.4545
26285SOL    HW290834   1.582   7.677   9.554 -2.8325 -0.2564 -1.8631
26286SOL     OW90835   6.419  10.007   8.448 -0.1794  0.2528  0.8433
26286SOL    HW190836   6.492   9.948   8.466 -0.2155 -0.2724 -0.5860
26286SOL    HW290837   6.453  10.094   8.466  0.7287 -0.0072  0.4341
26287SOL     OW90838   9.206   8.307   0.877 -0.2415  0.4832  0.0065
26287SOL    HW190839   9.227   8.356   0.957  1.1186  3.3055 -1.9152
26287SOL    HW290840   9.282   8.321   0.820 -1.7803 -0.1700 -2.3308
26288SOL     OW90841   1.885   0.395   8.393  0.4713 -0.3452 -0.1664
26288SOL    HW190842   1.796   0.414   8.424  0.0821  1.3336 -2.0488
26288SOL    HW290843   1.935   0.474   8.415  0.5876  0.1854 -2.1176
26289SOL     OW90844   4.422   6.681   4.140 -0.2437 -0.2019  0.5605
26289SOL    HW190845   4.356   6.611   4.137 -1.8306  1.1182  2.0712
26289SOL    HW290846   4.425   6.714   4.050 -1.9720 -0.0722  0.4990
26290SOL     OW90847   8.590   1.283   3.178  0.1585 -0.1725  0.2815
26290SOL    HW190848   8.561   1.344   3.110 -0.0689  1.3616  1.6912
26290SOL    HW290849   8.682   1.306   3.194  0.1161 -0.3029  0.7275
26291SOL     OW90850   7.373   9.131   7.190  0.2406 -0.0474  0.2094
26291SOL    HW190851   7.430   9.208   7.191  0.5463 -0.2766  0.7138
26291SOL    HW290852   7.420   9.065   7.241 -0.6692 -0.1002  1.0239
26292SOL     OW90853   6.430   9.559   0.501 -0.7211 -0.3204  0.5027
26292SOL    HW190854   6.371   9.489   0.471 -1.4057 -0.4189  1.9995
26292SOL    HW290855   6.416   9.563   0.596  1.9104 -0.5392  0.9768
26293SOL     OW90856   7.763   1.210  10.123  0.4659  0.3451 -0.6361
26293SOL    HW190857   7.845   1.161  10.115  0.7050  0.8453 -1.3421
26293SOL    HW290858   7.709   1.177  10.051 -0.4675 -0.9144  0.5904
26294SOL     OW90859   1.896   7.168   9.589  0.4327 -0.4220 -0.0527
26294SOL    HW190860   1.838   7.122   9.650  2.4638 -1.4347  1.2072
26294SOL    HW290861   1.906   7.109   9.515  0.1855 -0.4272 -0.0828
26295SOL     OW90862   0.929   0.389   8.353  0.7324 -0.0807 -0.2881
26295SOL    HW190863   0.928   0.457   8.285  1.4148 -0.1613 -0.3861
26295SOL    HW290864   0.840   0.389   8.387  1.1185  2.1513  0.9598
26296SOL     OW90865   0.224   9.427   5.032  0.5624 -0.6876 -0.3870
26296SOL    HW190866   0.316   9.451   5.022  0.2388  0.7228 -0.1534
26296SOL    HW290867   0.210   9.425   5.127  0.0887  0.2506 -0.4238
26297SOL     OW90868   0.986   2.685   0.502  0.4565  0.0848 -0.3978
26297SOL    HW190869   0.926   2.616   0.528 -0.8344  1.5309  0.5903
26297SOL    HW290870   0.930   2.757   0.473  1.7206  1.1163 -0.3844
26298SOL     OW90871   2.218   0.259   0.674 -0.3514 -0.2691  0.0757
26298SOL    HW190872   2.124   0.244   0.687  0.0981 -2.8991  0.9334
26298SOL    HW290873   2.250   0.289   0.759 -0.3021 -0.1897  0.0285
26299SOL     OW90874   9.888   5.108   4.665 -0.1004  0.1529 -0.5575
26299SOL    HW190875   9.887   5.014   4.686 -3.0711  0.5618  1.7420
26299SOL    HW290876   9.954   5.145   4.723  1.3059 -0.4525 -1.6862
26300SOL     OW90877   8.722   9.257   3.549  0.5326  0.4831 -0.0003
26300SOL    HW190878   8.666   9.187   3.514  1.1188 -0.1941  0.3913
26300SOL    HW290879   8.698   9.262   3.641  1.5358 -0.2304  0.3098
26301SOL     OW90880   5.499   8.513   2.681  0.6200 -0.0653  0.9645
26301SOL    HW190881   5.553   8.589   2.661 -0.0343  0.0161 -0.6261
26301SOL    HW290882   5.409   8.547   2.682  0.3426 -0.7602  0.4819
26302SOL     OW90883   0.661   7.868   5.602 -0.0485  0.1922 -0.1292
26302SOL    HW190884   0.648   7.801   5.535  0.9194 -0.5448  0.3934
26302SOL    HW290885   0.687   7.946   5.554 -0.7750  0.0791 -0.7152
26303SOL     OW90886   5.520   1.666   1.291 -0.2345  0.5101  0.4178
26303SOL    HW190887   5.512   1.625   1.377  2.2319 -0.2107  0.3562
26303SOL    HW290888   5.432   1.699   1.273 -1.3085 -1.0780  2.3138
26304SOL     OW90889   6.199   7.949   4.869 -0.1107  0.1336 -0.8849
26304SOL    HW190890   6.178   8.043   4.871  2.1100  0.6728  0.8453
26304SOL    HW290891   6.147   7.911   4.939 -0.1898  0.2751 -0.8660
26305SOL     OW90892   0.644   9.261   8.761  0.2262  0.2392  0.1390
26305SOL    HW190893   0.718   9.232   8.813  0.3492  1.8735  0.9367
26305SOL    HW290894   0.615   9.183   8.715  1.5881 -0.7263  0.8566
26306SOL     OW90895   1.534   7.817   3.482  0.3651  0.3004  0.6435
26306SOL    HW190896   1.589   7.781   3.552  1.1216 -0.1544 -0.1682
26306SOL    HW290897   1.454   7.845   3.527  1.6304  1.9123  2.0424
26307SOL     OW90898   1.686   0.400   6.903 -0.2973 -0.7669 -0.6509
26307SOL    HW190899   1.715   0.312   6.930  2.3845  0.5942  1.3501
26307SOL    HW290900   1.759   0.435   6.852 -0.6737  0.8492 -0.1228
26308SOL     OW90901   6.778   7.833   0.974  0.5463  0.1842 -0.6347
26308SOL    HW190902   6.812   7.795   0.893  2.6040 -0.3414  0.4137
26308SOL    HW290903   6.836   7.906   0.992 -0.8868  1.3321 -0.4346
26309SOL     OW90904   7.620   9.461   8.542 -0.1073  0.2055 -0.2004
26309SOL    HW190905   7.616   9.373   8.504 -0.1292  0.1576 -0.0869
26309SOL    HW290906   7.566   9.456   8.621 -1.4968  0.7653 -1.0836
26310SOL     OW90907   6.321   1.843   0.821 -0.4981  0.5955  0.1319
26310SOL    HW190908   6.411   1.870   0.805 -0.4338  0.6771  0.6254
26310SOL    HW290909   6.278   1.920   0.859 -0.9695  0.7892 -0.7696
26311SOL     OW90910   1.541   7.356   5.653 -0.6444  0.0800 -0.7221
26311SOL    HW190911   1.608   7.296   5.687 -1.0168 -0.3137 -0.6624
26311SOL    HW290912   1.469   7.349   5.716 -1.2359 -0.4546 -1.4266
26312SOL     OW90913   1.165   3.151   0.403  0.4953 -0.1406 -0.5043
26312SOL    HW190914   1.207   3.231   0.433  0.1084  0.5341 -1.7231
26312SOL    HW290915   1.093   3.138   0.464  0.0591  0.9032 -0.7737
26313SOL     OW90916   0.137   7.869   2.521 -0.2608  0.1410  0.2065
26313SOL    HW190917   0.127   7.815   2.443 -0.4090 -0.2861  0.5111
26313SOL    HW290918   0.232   7.871   2.537 -0.2750 -0.3448  0.3984
26314SOL     OW90919   7.273   9.567   6.528  0.5991 -0.2749  0.1725
26314SOL    HW190920   7.342   9.633   6.529 -0.0080  0.3671  0.3820
26314SOL    HW290921   7.211   9.597   6.462  1.0585 -1.4313 -0.8186
26315SOL     OW90922   5.005   4.037   1.072 -0.4434 -0.4409 -0.2139
26315SOL    HW190923   5.034   4.088   1.148 -1.0680 -0.4974  0.0712
26315SOL    HW290924   5.078   4.043   1.010 -0.0665 -0.1043  0.2489
26316SOL     OW90925   1.968   9.314   3.477 -0.5057  0.0121  0.5509
26316SOL    HW190926   1.953   9.264   3.397 -1.7216  0.3084  0.5754
26316SOL    HW290927   1.885   9.310   3.524  0.0373  0.2724  1.5637
26317SOL     OW90928   3.522   0.320   6.169 -0.0308 -0.2976 -0.0257
26317SOL    HW190929   3.609   0.312   6.207 -0.1087  0.3280  0.2916
26317SOL    HW290930   3.537   0.352   6.080  0.1222 -1.3295 -0.3966
26318SOL     OW90931   8.893   5.458   7.338 -0.1740 -0.0129 -0.3903
26318SOL    HW190932   8.922   5.417   7.257 -1.1403 -0.0605 -0.7272
26318SOL    HW290933   8.801   5.480   7.323 -0.8443 -1.4420  1.2342
26319SOL     OW90934   0.537   9.803   9.120 -0.1721  0.3612  0.2016
26319SOL    HW190935   0.447   9.787   9.150  0.1211  1.7728  1.9715
26319SOL    HW290936   0.538   9.769   9.030 -1.5709 -2.6026  1.1493
26320SOL     OW90937   4.255   8.684   2.478  0.2283  0.5165 -0.5962
26320SOL    HW190938   4.288   8.767   2.510 -0.2296  1.0585 -1.4869
26320SOL    HW290939   4.296   8.674   2.392  1.2734 -0.8055  0.0107
26321SOL     OW90940   3.591   0.227   7.734  0.3675 -0.0219  0.3956
26321SOL    HW190941   3.585   0.277   7.652  0.7115  0.0171  0.3935
26321SOL    HW290942   3.663   0.167   7.719  1.3562  0.9353  1.1793
26322SOL     OW90943   5.040   0.772   5.109 -0.1977 -0.1768 -0.0483
26322SOL    HW190944   5.045   0.677   5.097 -1.9350 -0.2428 -0.5262
26322SOL    HW290945   4.980   0.784   5.182 -0.0589  0.5525 -0.0501
26323SOL     OW90946   5.325   7.970   0.850 -0.8617 -0.0745  0.0203
26323SOL    HW190947   5.378   7.936   0.922  0.5453 -0.2257 -1.0217
26323SOL    HW290948   5.351   8.062   0.843  0.1412 -0.4192 -1.1969
26324SOL     OW90949   1.799   7.501   3.543  0.7252  0.3790 -0.0142
26324SOL    HW190950   1.864   7.436   3.513  1.7066  1.7796 -1.0396
26324SOL    HW290951   1.785   7.480   3.635  0.6007 -1.6171 -0.4355
26325SOL     OW90952   3.177   7.750   1.842  0.3995  0.5105  0.1594
26325SOL    HW190953   3.249   7.763   1.903 -0.8384 -0.4260  1.8939
26325SOL    HW290954   3.110   7.812   1.869 -0.1179  0.1836 -0.3363
26326SOL     OW90955   9.516   8.237   0.450 -0.1718 -0.1849  0.1773
26326SOL    HW190956   9.602   8.233   0.490 -0.4045  0.5611  0.7708
26326SOL    HW290957   9.527   8.298   0.377  0.0028 -0.7549 -0.2816
26327SOL     OW90958   7.968   2.357   9.477 -0.1760 -0.1068 -0.7522
26327SOL    HW190959   8.042   2.300   9.459  0.3071  0.2697  0.0023
26327SOL    HW290960   7.896   2.297   9.496 -0.1515 -0.4756 -1.7829
26328SOL     OW90961   9.691   9.697   1.516  0.4795  0.1551 -0.1939
26328SOL    HW190962   9.617   9.701   1.456 -0.3616 -0.8503  0.7387
26328SOL    HW290963   9.738   9.779   1.501  0.0380  0.1418 -1.8715
26329SOL     OW90964   8.343   8.910   2.761 -0.1558  0.0882 -0.3391
26329SOL    HW190965   8.392   8.842   2.715 -0.1052  0.2455 -0.5228
26329SOL    HW290966   8.370   8.902   2.852  3.1086  2.5095 -0.9067
26330SOL     OW90967   6.974   5.091   6.177 -0.5465  0.0417  0.1484
26330SOL    HW190968   7.018   5.081   6.094 -0.5918 -0.5395  0.1903
26330SOL    HW290969   6.897   5.034   6.171 -0.8164  0.3722  0.3990
26331SOL     OW90970   2.262   3.088   1.362  0.3639 -0.5710 -0.1867
26331SOL    HW190971   2.249   3.134   1.279  1.3095  0.5056  0.2258
26331SOL    HW290972   2.173   3.064   1.390 -0.0353 -0.2229 -1.1085
26332SOL     OW90973  10.329   9.475   9.775 -0.4520  0.1514  0.6303
26332SOL    HW190974  10.375   9.487   9.858 -0.8531  0.6377  0.7887
26332SOL    HW290975  10.286   9.559   9.760  1.7876  1.0462 -1.4130
26333SOL     OW90976   8.603   3.463   2.596 -0.7787 -0.4297 -0.9921
26333SOL    HW190977   8.574   3.390   2.542 -2.4202 -0.4232 -0.1697
26333SOL    HW290978   8.549   3.537   2.568  0.0017  0.1657 -0.9574
26334SOL     OW90979   8.671   1.258   7.574  0.2029 -0.1936 -0.3698
26334SOL    HW190980   8.760   1.224   7.581 -0.2842 -1.1730  1.7714
26334SOL    HW290981   8.668   1.331   7.636 -0.2977  0.3140 -0.9683
26335SOL     OW90982   5.326   5.126   3.834 -0.4913  0.5202  0.1995
26335SOL    HW190983   5.422   5.135   3.829 -0.4576  0.0287 -0.1292
26335SOL    HW290984   5.307   5.128   3.928 -0.0415 -0.3931  0.3252
26336SOL     OW90985   4.446   4.174   2.182 -0.3533 -0.2755 -0.0319
26336SOL    HW190986   4.499   4.248   2.212  1.1577 -0.9948 -0.8148
26336SOL    HW290987   4.483   4.150   2.097 -1.1366 -1.6006 -0.0371
26337SOL     OW90988   5.121   5.527   4.894 -0.2475 -0.5707  0.1241
26337SOL    HW190989   5.062   5.524   4.819  0.0530 -0.6299 -0.1122
26337SOL    HW290990   5.183   5.456   4.879  0.2123 -0.1704  0.0958
26338SOL     OW90991   6.657   3.554   0.307 -0.5604 -0.5841 -0.0301
26338SOL    HW190992   6.600   3.499   0.361 -0.2052 -3.0927 -1.9913
26338SOL    HW290993   6.598   3.616   0.264 -1.0123  0.4979  2.0316
26339SOL     OW90994   8.498   8.804   8.240 -0.5413  0.4803 -0.3941
26339SOL    HW190995   8.459   8.877   8.288 -0.9125 -1.4938  2.5693
26339SOL    HW290996   8.588   8.800   8.273  0.0137  0.6024 -1.8321
26340SOL     OW90997   3.782  10.007   7.102 -1.0746  0.2403 -0.2024
26340SOL    HW190998   3.725  10.029   7.029 -0.3489 -0.7843 -1.1143
26340SOL    HW290999   3.832   9.932   7.071 -0.6325 -0.1131  1.2976
26341SOL     OW91000   0.585   7.142   7.033 -0.0882  0.4588  0.3101
26341SOL    HW191001   0.565   7.164   7.124  0.0502  0.3360  0.3704
26341SOL    HW291002   0.548   7.214   6.982 -1.8461 -0.3763  0.3254
26342SOL     OW91003   8.621   3.043   9.324  0.2948 -0.5668  0.7514
26342SOL    HW191004   8.636   2.952   9.350 -0.0781 -0.6504  0.6885
26342SOL    HW291005   8.603   3.038   9.230 -1.4589 -0.6475  1.0545
26343SOL     OW91006   2.864   5.035   4.288  0.2113 -0.5461 -0.2130
26343SOL    HW191007   2.858   4.940   4.290  0.4051 -0.5491  2.2702
26343SOL    HW291008   2.900   5.060   4.373 -0.6650  1.8093 -0.4417
26344SOL     OW91009   1.498   8.322  10.305 -0.3400  0.2988 -0.0827
26344SOL    HW191010   1.428   8.349  10.364 -0.6173  2.7636 -1.4273
26344SOL    HW291011   1.454   8.274  10.235 -0.5912  1.0263 -0.4344
26345SOL     OW91012   0.703   6.970   8.144  0.0407  0.3807 -0.5121
26345SOL    HW191013   0.751   6.969   8.061 -0.1239  2.0928 -0.6650
26345SOL    HW291014   0.611   6.971   8.118 -0.0282  0.1266 -0.2827
26346SOL     OW91015   2.311  10.323   0.577 -0.4901 -0.3600 -0.2158
26346SOL    HW191016   2.381  10.290   0.521 -0.4583  0.6282 -0.7807
26346SOL    HW291017   2.266  10.389   0.524 -0.9315  0.0622  0.6527
26347SOL     OW91018   9.971   6.105   1.208  0.0430  0.0656  0.2098
26347SOL    HW191019  10.019   6.029   1.177 -1.3797  0.0501 -2.1839
26347SOL    HW291020   9.940   6.080   1.295 -0.8337 -2.3496 -0.7138
26348SOL     OW91021   3.739   4.278   3.375  0.5641 -0.1806  0.2273
26348SOL    HW191022   3.712   4.199   3.422  0.3267 -0.9418 -1.1328
26348SOL    HW291023   3.807   4.317   3.431  1.0391 -1.6128  0.6900
26349SOL     OW91024   3.226   3.157   2.955  0.3522  0.3631  0.1883
26349SOL    HW191025   3.171   3.184   2.881  0.4363 -2.8195 -1.1712
26349SOL    HW291026   3.255   3.069   2.933  1.0609 -0.4304  3.6829
26350SOL     OW91027   8.520   0.374   4.292 -0.8209 -0.3411 -0.4069
26350SOL    HW191028   8.512   0.429   4.370 -1.5473 -0.7308 -0.1931
26350SOL    HW291029   8.429   0.356   4.266 -0.7110 -3.0385  0.6974
26351SOL     OW91030   1.947   7.105   9.958 -0.5411  0.2285 -0.3361
26351SOL    HW191031   1.920   7.101  10.050  0.7739 -1.8607  0.0262
26351SOL    HW291032   2.027   7.158   9.960 -0.2988 -0.1403 -0.2141
26352SOL     OW91033   5.442   0.777   7.663  0.1956 -0.1222 -0.3573
26352SOL    HW191034   5.392   0.757   7.584 -1.5318  0.1121  0.6134
26352SOL    HW291035   5.434   0.698   7.717 -0.3685  0.4303  0.3985
26353SOL     OW91036   2.288   0.396   3.310 -0.2931  0.8137 -0.3857
26353SOL    HW191037   2.289   0.489   3.333 -0.5893  1.0492 -1.2782
26353SOL    HW291038   2.316   0.351   3.390  1.7934  1.7758 -0.5098
26354SOL     OW91039  10.339   1.232   6.126 -0.4721  0.4678 -0.3471
26354SOL    HW191040  10.306   1.249   6.214  2.1812 -0.8182  1.0322
26354SOL    HW291041  10.315   1.141   6.109  0.3162  0.2270 -0.2524
26355SOL     OW91042   6.454   8.744   4.032  0.2728  0.1119 -0.1482
26355SOL    HW191043   6.532   8.709   4.075 -0.0864 -0.4984  0.0348
26355SOL    HW291044   6.381   8.705   4.081 -0.1436 -0.0880 -0.9084
26356SOL     OW91045   2.381   9.047   9.642 -0.1666 -0.2780 -0.1550
26356SOL    HW191046   2.339   9.126   9.607  1.7806  0.5825 -0.6489
26356SOL    HW291047   2.432   9.079   9.716 -0.8145 -1.4034  0.8004
26357SOL     OW91048   1.829   2.609   9.908  0.3370  0.2184 -0.2876
26357SOL    HW191049   1.814   2.528   9.956  0.2115  0.8599  0.7873
26357SOL    HW291050   1.826   2.583   9.816  0.3219 -0.9947  0.0353
26358SOL     OW91051   2.270   2.297   4.666 -0.1480  0.0595  0.7251
26358SOL    HW191052   2.336   2.365   4.669  0.5147 -0.4445 -1.0382
26358SOL    HW291053   2.312   2.220   4.703 -0.4717  0.2747  1.5520
26359SOL     OW91054   1.855   3.857   3.286  0.2209 -0.2616  0.4220
26359SOL    HW191055   1.902   3.833   3.365 -0.3162 -0.3157  0.7320
26359SOL    HW291056   1.789   3.788   3.275  0.8762 -0.7602 -0.5842
26360SOL     OW91057   5.641   8.254   7.636  0.2129 -0.2817  0.0918
26360SOL    HW191058   5.566   8.223   7.585  0.3153 -0.7608  0.2376
26360SOL    HW291059   5.691   8.176   7.656  1.0606  0.0971 -0.4937
26361SOL     OW91060   8.308   7.346   7.532 -0.0918 -0.1691 -0.5474
26361SOL    HW191061   8.223   7.370   7.570 -1.0643 -1.1019 -2.0346
26361SOL    HW291062   8.364   7.330   7.608 -0.7306  2.0267  0.4962
26362SOL     OW91063   8.589   0.771   7.715  0.1720 -0.0952 -0.1418
26362SOL    HW191064   8.623   0.792   7.628  0.8137  0.4257  0.2278
26362SOL    HW291065   8.515   0.713   7.698  0.8404 -0.7301 -0.9961
26363SOL     OW91066   1.780   2.667   3.233  0.3503  0.4624  0.0848
26363SOL    HW191067   1.700   2.719   3.234  0.7062  1.0838 -1.5693
26363SOL    HW291068   1.756   2.586   3.188  0.3118  0.0345  0.8552
26364SOL     OW91069   1.379   3.973   0.005  0.2062  0.1368 -0.2658
26364SOL    HW191070   1.333   3.905  -0.043 -0.5155  1.6212 -1.7635
26364SOL    HW291071   1.465   3.979  -0.037  0.2319  0.2278 -0.2026
26365SOL     OW91072   4.624   0.827   0.335  0.1482 -0.5782  0.2008
26365SOL    HW191073   4.710   0.857   0.366  2.2594  1.5126 -6.1003
26365SOL    HW291074   4.641   0.741   0.298  0.0740  0.3319 -2.1557
26366SOL     OW91075   8.946   8.722   4.133 -0.7426 -0.2960  0.1584
26366SOL    HW191076   8.990   8.762   4.208 -0.5549 -1.4641  0.6939
26366SOL    HW291077   8.968   8.779   4.059  0.8113 -0.2627  0.6016
26367SOL     OW91078   2.200   9.212   2.796 -0.2537  0.4235  0.4134
26367SOL    HW191079   2.131   9.247   2.739  0.2005  0.1692 -0.3178
26367SOL    HW291080   2.202   9.118   2.774  0.3904  0.4493  0.3527
26368SOL     OW91081   9.180   2.760   8.438 -0.5072 -0.3768 -0.2572
26368SOL    HW191082   9.180   2.839   8.492  0.4171  0.1171 -0.9455
26368SOL    HW291083   9.213   2.691   8.495 -1.7431 -0.3785  0.4819
26369SOL     OW91084   6.634   8.451   9.956  0.0488  0.1956 -0.3297
26369SOL    HW191085   6.694   8.383   9.985 -0.6469 -0.4920 -0.4776
26369SOL    HW291086   6.591   8.415   9.879  0.4528  1.2343 -1.0645
26370SOL     OW91087   1.045   3.295   3.725 -0.1989  0.5936 -0.6822
26370SOL    HW191088   1.117   3.325   3.670 -0.3762  2.2781 -0.0704
26370SOL    HW291089   1.086   3.271   3.808 -0.0218 -1.2591 -1.2575
26371SOL     OW91090   9.782   5.773  10.077 -0.2475 -0.0269  0.3225
26371SOL    HW191091   9.754   5.730  10.157 -0.8035  1.5349  1.0127
26371SOL    HW291092   9.701   5.806  10.037  0.1088 -0.0170 -0.4231
26372SOL     OW91093   4.457   6.124   9.051 -0.5751 -0.1741  0.4784
26372SOL    HW191094   4.453   6.219   9.050  0.9069 -0.0808  0.0370
26372SOL    HW291095   4.401   6.096   8.979  0.1886  0.4594 -0.3934
26373SOL     OW91096   5.338  10.319   5.051  0.4404  0.1116  0.1094
26373SOL    HW191097   5.322  10.332   5.144  1.0581 -1.3046  0.4391
26373SOL    HW291098   5.378  10.232   5.045 -0.4227 -0.2187 -1.5616
26374SOL     OW91099   4.751   7.246   4.236  0.2801  0.3266 -0.2090
26374SOL    HW191100   4.671   7.199   4.216 -1.0058  1.7279  1.3461
26374SOL    HW291101   4.816   7.177   4.252 -0.1571 -0.8158 -2.9061
26375SOL     OW91102   2.290   3.724  10.067 -0.5315 -0.1325 -0.1867
26375SOL    HW191103   2.346   3.781  10.119  0.8127 -2.0757  0.6051
26375SOL    HW291104   2.247   3.668  10.132 -1.7187 -0.1281 -0.9471
26376SOL     OW91105   8.308   8.075   8.894  0.1724 -0.4485  0.0161
26376SOL    HW191106   8.349   7.989   8.896  2.2120  0.4408 -0.4680
26376SOL    HW291107   8.219   8.059   8.864 -0.0717 -2.5511  1.5970
26377SOL     OW91108   7.296   7.218   0.741 -0.1747  0.0871 -0.3135
26377SOL    HW191109   7.368   7.206   0.802  0.1137  0.4725 -0.5704
26377SOL    HW291110   7.217   7.203   0.793  0.0872 -0.2818 -0.0195
26378SOL     OW91111   0.912   2.773   8.485  0.8701 -0.1280  0.4177
26378SOL    HW191112   1.004   2.796   8.475  0.9602 -1.0002 -1.1252
26378SOL    HW291113   0.864   2.852   8.458  1.1767 -0.3951 -0.9656
26379SOL     OW91114   5.923   9.749   0.006  0.0817  0.2217 -0.5080
26379SOL    HW191115   5.972   9.806   0.065  1.2561 -0.3912 -0.8528
26379SOL    HW291116   5.990   9.710  -0.050 -1.0041  0.9617 -2.4099
26380SOL     OW91117   6.110   5.734   5.705  0.0234 -0.3665  0.4914
26380SOL    HW191118   6.103   5.804   5.640 -0.7058 -1.0006 -0.1441
26380SOL    HW291119   6.029   5.739   5.755  0.5417  0.0584  1.3070
26381SOL     OW91120   3.097   2.580   6.140  0.2510 -0.1741 -0.0562
26381SOL    HW191121   3.065   2.511   6.082  0.9766  0.4061 -1.1653
26381SOL    HW291122   3.026   2.592   6.203 -1.3606  0.4281 -1.8923
26382SOL     OW91123   5.332   6.761   1.361 -0.3139  0.4448 -0.5309
26382SOL    HW191124   5.365   6.752   1.450 -0.5278 -0.5393 -0.5459
26382SOL    HW291125   5.248   6.806   1.371  0.5038  2.0124 -0.4058
26383SOL     OW91126   0.449  10.166   0.630  0.0191 -0.4536  0.5665
26383SOL    HW191127   0.431  10.072   0.641  0.3881 -0.5667  0.2357
26383SOL    HW291128   0.419  10.186   0.542 -0.5358 -0.1419  0.8262
26384SOL     OW91129   9.509   7.801   5.285 -0.3943 -0.2389 -0.5175
26384SOL    HW191130   9.528   7.888   5.252 -3.1645 -0.0365 -1.8087
26384SOL    HW291131   9.493   7.813   5.379 -0.0529  0.4798 -0.5496
26385SOL     OW91132   6.392   6.845   1.199 -0.1588  0.0265  0.0045
26385SOL    HW191133   6.419   6.753   1.202 -1.6155 -0.4045  3.0990
26385SOL    HW291134   6.340   6.852   1.120  0.5281 -1.6236 -0.6429
26386SOL     OW91135   0.489   8.277   4.825 -0.2372 -0.3928 -0.4311
26386SOL    HW191136   0.522   8.197   4.783  0.9763 -0.1074 -0.0606
26386SOL    HW291137   0.495   8.344   4.757 -0.3611 -0.4033 -0.4534
26387SOL     OW91138   6.339   0.348   2.066  0.0004 -0.4061  0.0939
26387SOL    HW191139   6.391   0.393   1.999  0.7421  2.4797  2.3413
26387SOL    HW291140   6.386   0.366   2.148 -2.5687 -0.8614  1.7930
26388SOL     OW91141   7.474   9.492   0.269  0.9658 -0.2704  0.4230
26388SOL    HW191142   7.380   9.510   0.274  0.7089 -0.6064 -2.1116
26388SOL    HW291143   7.482   9.401   0.299  0.1313 -0.9750 -1.3338
26389SOL     OW91144   9.998   8.909   1.454 -0.0852  0.6548  0.6214
26389SOL    HW191145   9.933   8.854   1.497  0.3988  0.6886  1.4353
26389SOL    HW291146   9.948   8.983   1.420 -0.7752 -0.3788 -0.6891
26390SOL     OW91147   3.749   0.817   6.851 -0.8947  0.4779 -0.0254
26390SOL    HW191148   3.820   0.755   6.835 -1.4784  0.2096 -1.8435
26390SOL    HW291149   3.780   0.899   6.812 -1.2374  0.5724 -0.1013
26391SOL     OW91150   9.846   8.274  10.181  0.2186 -1.0902 -0.1837
26391SOL    HW191151   9.869   8.182  10.196  0.8175 -0.6280  2.1236
26391SOL    HW291152   9.915   8.324  10.225 -1.2989  0.4394  0.5820
26392SOL     OW91153   5.451   2.115   8.619 -0.0209 -0.5492 -0.2879
26392SOL    HW191154   5.501   2.107   8.699  1.8311 -3.2675 -1.5710
26392SOL    HW291155   5.513   2.151   8.555 -1.1315  0.5099 -0.8187
26393SOL     OW91156  10.127   3.716   1.966 -0.0541  0.0954 -0.1138
26393SOL    HW191157  10.210   3.740   1.925 -0.2112  0.9589  0.0473
26393SOL    HW291158  10.098   3.797   2.010 -0.6884 -0.3573  0.3183
26394SOL     OW91159   0.264   6.259   7.114  0.5795  0.2880 -0.8666
26394SOL    HW191160   0.248   6.328   7.049 -1.9357  0.4940 -0.1144
26394SOL    HW291161   0.269   6.305   7.197 -0.0393 -0.3289 -0.4835
26395SOL     OW91162   0.228   4.718   7.356 -0.3353  0.1548  0.0320
26395SOL    HW191163   0.139   4.696   7.383  0.2359  0.7505  2.6197
26395SOL    HW291164   0.222   4.809   7.327 -0.6362  0.0454 -0.2657
26396SOL     OW91165   2.789   5.289   5.421 -0.0575 -0.2604 -0.4342
26396SOL    HW191166   2.837   5.252   5.495 -0.9159 -0.2078  0.1584
26396SOL    HW291167   2.710   5.235   5.413  0.1350 -0.4177 -1.4633
26397SOL     OW91168   2.911   1.280   9.296 -0.1793  0.0677 -0.1335
26397SOL    HW191169   2.922   1.376   9.297  2.6596 -0.0998 -2.2570
26397SOL    HW291170   2.936   1.253   9.385 -0.6493  1.2387  0.3818
26398SOL     OW91171   3.475   7.729   6.931  0.4230  0.3795 -0.0498
26398SOL    HW191172   3.457   7.712   7.023 -0.9936  0.1763 -0.3442
26398SOL    HW291173   3.521   7.813   6.930  0.0400  0.6025  0.8025
26399SOL     OW91174   9.410   0.013   6.906  0.5888  0.4581  0.0746
26399SOL    HW191175   9.426   0.104   6.930 -1.9550  0.6717  1.3728
26399SOL    HW291176   9.323   0.014   6.865  0.9322 -1.2493 -0.7987
26400SOL     OW91177   1.353   8.206  10.093  0.4687  0.3275  0.0017
26400SOL    HW191178   1.302   8.264  10.037 -0.5735  1.5184  2.0320
26400SOL    HW291179   1.393   8.143  10.034  0.4150  2.2012 -2.1636
26401SOL     OW91180   0.265   4.963   2.975 -0.4510 -0.3842  0.1328
26401SOL    HW191181   0.352   4.998   2.994 -0.3480 -1.0743  1.0118
26401SOL    HW291182   0.211   4.993   3.048 -1.0153  0.2152 -0.5135
26402SOL     OW91183   4.177   8.774   1.698 -0.0724  0.2930  0.4196
26402SOL    HW191184   4.103   8.713   1.696 -1.2331  1.6631 -0.0103
26402SOL    HW291185   4.181   8.811   1.610  2.3552 -1.0983 -0.1550
26403SOL     OW91186   9.891   0.456   9.769 -0.2064 -0.1649  0.5405
26403SOL    HW191187   9.961   0.430   9.709 -0.2239 -1.0377  0.8852
26403SOL    HW291188   9.899   0.397   9.844 -2.2824 -1.3937 -0.1081
26404SOL     OW91189   0.219   1.575   7.015  0.0713 -0.3787  0.1864
26404SOL    HW191190   0.249   1.664   7.033  1.6410 -1.0029  0.7691
26404SOL    HW291191   0.161   1.555   7.088  1.3589 -0.5702  1.1808
26405SOL     OW91192   3.907   6.325   7.714 -0.3615  0.4677 -0.2580
26405SOL    HW191193   3.992   6.318   7.670 -0.1802  0.2947  0.1171
26405SOL    HW291194   3.906   6.415   7.748 -0.3366  0.4750 -0.2761
26406SOL     OW91195   6.578   3.201   5.401  0.4043  0.1733 -0.2578
26406SOL    HW191196   6.662   3.164   5.430  0.8420  1.5013  0.2570
26406SOL    HW291197   6.518   3.184   5.474  0.3497 -0.3669 -0.4282
26407SOL     OW91198   6.396   9.640   2.839 -0.1804 -0.7719 -0.2714
26407SOL    HW191199   6.382   9.629   2.745 -1.3667 -5.2011  0.1511
26407SOL    HW291200   6.473   9.586   2.858  0.9513  1.2370  1.1897
26408SOL     OW91201   0.203   8.378   1.470  0.2191  0.7027  0.2412
26408SOL    HW191202   0.182   8.442   1.538 -0.3295  0.7326  0.0475
26408SOL    HW291203   0.145   8.304   1.489 -0.3295  0.9267 -0.5078
26409SOL     OW91204   3.075   7.978   2.020 -0.0111 -0.7923  0.1749
26409SOL    HW191205   3.035   8.027   1.949 -0.0381 -1.4318 -0.2621
26409SOL    HW291206   3.154   8.028   2.043 -0.8288  0.2631  0.7826
26410SOL     OW91207   5.851   5.198   6.417 -0.0269  0.6465  0.0437
26410SOL    HW191208   5.849   5.221   6.324 -1.3406  2.7714  0.5318
26410SOL    HW291209   5.929   5.240   6.452 -0.4060  1.2335  0.1998
26411SOL     OW91210  10.202   6.957   4.486  0.1346 -0.4865 -0.1538
26411SOL    HW191211  10.138   7.028   4.482  0.0296 -0.4181  1.6886
26411SOL    HW291212  10.275   6.994   4.536  1.5328 -0.6526 -1.9979
26412SOL     OW91213   0.320   0.559   7.775 -0.1494  0.1221  0.1504
26412SOL    HW191214   0.254   0.532   7.712 -0.7638  1.6670  0.0925
26412SOL    HW291215   0.402   0.562   7.725 -0.4726  0.4929 -0.3542
26413SOL     OW91216   4.696   9.189   0.485 -0.2003 -0.0256  0.1435
26413SOL    HW191217   4.656   9.206   0.400 -2.4508 -1.2203  0.8982
26413SOL    HW291218   4.683   9.270   0.535 -1.0961 -0.1523  0.1347
26414SOL     OW91219   0.468   9.914   6.837 -0.0290  0.4910 -0.1981
26414SOL    HW191220   0.496   9.848   6.901  3.1846  2.8678  1.0981
26414SOL    HW291221   0.518   9.893   6.758  0.4018  0.9151 -0.0387
26415SOL     OW91222   5.239  10.347   7.011  0.1074  0.2618  0.5642
26415SOL    HW191223   5.253  10.314   6.922  1.3797 -0.9602  1.1715
26415SOL    HW291224   5.293  10.426   7.016 -0.7553  0.9129 -0.0332
26416SOL     OW91225   4.447  10.210   7.684  0.3140 -0.0626  0.8265
26416SOL    HW191226   4.420  10.250   7.602 -0.3296 -0.6795  0.7297
26416SOL    HW291227   4.376  10.232   7.746 -0.0197 -0.9890  0.7855
26417SOL     OW91228   3.018   0.141   1.058  0.4129  0.5228 -0.1293
26417SOL    HW191229   2.925   0.161   1.065 -0.0706 -1.6115  0.3395
26417SOL    HW291230   3.039   0.153   0.965 -0.5690  0.1234 -0.4106
26418SOL     OW91231   5.159  10.002   6.804  0.2759  0.3541 -0.2570
26418SOL    HW191232   5.142   9.926   6.859  0.5254 -0.8400 -1.7508
26418SOL    HW291233   5.138   9.972   6.715  0.1843  2.1012 -0.8509
26419SOL     OW91234   6.965   9.768   5.177  0.1958  0.1115 -0.2631
26419SOL    HW191235   6.942   9.857   5.150 -1.6684 -0.4847 -0.8657
26419SOL    HW291236   6.915   9.754   5.257  1.0222 -0.1687  0.2112
26420SOL     OW91237   0.560   6.830   1.132 -0.4411  0.1540  0.8359
26420SOL    HW191238   0.647   6.856   1.162  0.0767 -0.4180 -0.1155
26420SOL    HW291239   0.508   6.910   1.135  0.3860  0.7163  0.5130
26421SOL     OW91240   9.422   7.063   0.553 -0.5236 -0.1614  0.6432
26421SOL    HW191241   9.421   6.969   0.571 -0.0052 -0.1651  0.6787
26421SOL    HW291242   9.458   7.102   0.633 -0.6001  0.0523  0.5731
26422SOL     OW91243   7.126   7.085   9.016 -0.3018  0.3731 -0.1561
26422SOL    HW191244   7.179   7.047   8.947  1.7620  1.5132  0.7207
26422SOL    HW291245   7.113   7.014   9.078 -0.6755 -0.1761 -0.8487
26423SOL     OW91246   9.433   0.248   0.171 -0.1912 -0.0669  0.1564
26423SOL    HW191247   9.487   0.169   0.176  1.2010  0.8840  0.5771
26423SOL    HW291248   9.343   0.215   0.164  0.4430 -1.6972 -0.9698
26424SOL     OW91249   4.454   0.538   2.945 -0.1229 -0.0880  0.2784
26424SOL    HW191250   4.455   0.447   2.975  0.0920 -0.4748 -0.8758
26424SOL    HW291251   4.512   0.540   2.870  0.1745  1.0981  0.5179
26425SOL     OW91252   1.760   1.270   4.127 -0.0592  0.1903 -0.0653
26425SOL    HW191253   1.678   1.316   4.145 -0.8070  0.0027 -2.6536
26425SOL    HW291254   1.825   1.340   4.118 -0.4282  0.5075 -0.3158
26426SOL     OW91255   2.242   6.235   3.996  0.2422  0.5125  0.1590
26426SOL    HW191256   2.225   6.156   3.945  0.6226  0.2012  0.5121
26426SOL    HW291257   2.338   6.239   4.005  0.2163  0.8944  0.3261
26427SOL     OW91258   2.192   1.317   0.068 -0.1259  0.1870  0.2530
26427SOL    HW191259   2.245   1.380   0.020  0.6172 -1.3799 -1.0859
26427SOL    HW291260   2.103   1.328   0.034 -0.0541  0.6613  0.2160
26428SOL     OW91261   6.747   6.229   6.307  0.9467  0.3882  0.3975
26428SOL    HW191262   6.713   6.173   6.376  1.5802 -0.1351  0.2958
26428SOL    HW291263   6.772   6.310   6.351 -1.0822  1.0806  0.3634
26429SOL     OW91264   3.609   4.789   1.826  0.3146  0.3202 -0.2301
26429SOL    HW191265   3.560   4.843   1.888  0.5276 -0.5322  0.7023
26429SOL    HW291266   3.636   4.850   1.757 -0.4789  1.1560  0.1758
26430SOL     OW91267   8.322   5.374   5.302 -0.7317 -0.5263 -0.3946
26430SOL    HW191268   8.356   5.448   5.251 -0.2734 -0.9348 -0.6942
26430SOL    HW291269   8.271   5.415   5.372  1.1118  0.1898  0.6204
26431SOL     OW91270   3.334  10.193   8.849  0.5153  0.8329  0.5156
26431SOL    HW191271   3.279  10.209   8.773 -0.3540  2.4007  1.4296
26431SOL    HW291272   3.311  10.263   8.910  1.8990  0.1848  1.8262
26432SOL     OW91273   6.533   4.965   9.021 -0.4517  0.2404  0.2047
26432SOL    HW191274   6.512   4.872   9.027  0.6287  0.0518  1.3271
26432SOL    HW291275   6.453   5.010   9.049 -0.5417 -0.3788  0.9504
26433SOL     OW91276   2.592   8.487   5.089  0.0283 -0.1965 -0.2180
26433SOL    HW191277   2.663   8.425   5.075  0.2341  0.4304 -2.4127
26433SOL    HW291278   2.584   8.495   5.184  3.6527  0.5530  0.1544
26434SOL     OW91279  10.164   7.343   6.405  0.1436  0.1158 -0.4499
26434SOL    HW191280  10.169   7.248   6.422 -2.2947  0.0244  0.0831
26434SOL    HW291281  10.148   7.349   6.311  0.5511  0.0261 -0.5289
26435SOL     OW91282   1.396   3.866   3.385  0.4579  0.0147 -0.2585
26435SOL    HW191283   1.408   3.886   3.292 -0.0278 -2.3874 -0.9008
26435SOL    HW291284   1.310   3.826   3.390  1.5916 -2.5524  0.6811
26436SOL     OW91285   9.913  10.335   3.938  0.1271 -0.3345  0.1290
26436SOL    HW191286  10.004  10.334   3.966  0.6587 -0.5926 -1.5478
26436SOL    HW291287   9.893  10.244   3.915 -0.4025 -0.1929 -0.0005
26437SOL     OW91288   4.665   8.585   0.915  0.3522 -0.5698 -0.1525
26437SOL    HW191289   4.575   8.597   0.945  0.5827  1.8861 -0.2194
26437SOL    HW291290   4.718   8.630   0.981  1.4926 -1.3880 -0.4759
26438SOL     OW91291   8.064   8.896   8.421 -0.3340 -0.0083 -0.4776
26438SOL    HW191292   7.993   8.934   8.472  0.3858  1.1312 -0.2804
26438SOL    HW291293   8.042   8.803   8.414 -2.1511  0.4103 -0.9448
26439SOL     OW91294   6.035   0.205   5.262 -0.1277  0.5082 -0.1777
26439SOL    HW191295   6.041   0.110   5.264 -0.3819  0.4881 -0.3157
26439SOL    HW291296   6.019   0.230   5.353 -1.1076  0.3418 -0.2880
26440SOL     OW91297   3.724   9.605   1.039 -0.1243  0.2600  0.1729
26440SOL    HW191298   3.718   9.690   1.082  0.3179 -0.1239  1.0069
26440SOL    HW291299   3.660   9.610   0.968 -0.5382  1.0631  0.5851
26441SOL     OW91300   5.554   7.856   1.042 -0.4476  0.2664 -0.3667
26441SOL    HW191301   5.558   7.950   1.058 -0.1574  0.2997 -0.6296
26441SOL    HW291302   5.645   7.826   1.049 -0.7428 -0.3411  1.7392
26442SOL     OW91303   0.459   1.616   1.366 -0.0322 -0.1007 -0.0164
26442SOL    HW191304   0.437   1.692   1.312  1.2202  0.1899 -0.1413
26442SOL    HW291305   0.548   1.592   1.338  0.9624  0.5180  2.3852
26443SOL     OW91306   3.887   3.489   2.345  0.7871  0.2337  0.0815
26443SOL    HW191307   3.818   3.457   2.403  1.1879 -1.0886 -0.1442
26443SOL    HW291308   3.853   3.472   2.257  1.0684  0.2996 -0.0393
26444SOL     OW91309   6.586   6.033   2.935  0.4884  0.3720  0.3069
26444SOL    HW191310   6.669   6.070   2.965  0.9941  0.6027 -1.2631
26444SOL    HW291311   6.561   5.971   3.004  1.1077  1.4972  1.5832
26445SOL     OW91312   9.249   2.454   3.946 -0.3708 -0.0689 -0.9577
26445SOL    HW191313   9.207   2.374   3.978  0.1468 -0.0305 -0.1715
26445SOL    HW291314   9.270   2.434   3.854  1.1234 -1.4377 -0.3814
26446SOL     OW91315   5.354   8.433   6.859 -0.5080  0.0377  0.1237
26446SOL    HW191316   5.392   8.373   6.922  1.0235 -2.0669 -2.5669
26446SOL    HW291317   5.424   8.496   6.840 -0.1863 -0.6148 -0.9410
26447SOL     OW91318   2.216   1.689   0.400  0.1105  0.0897  0.3862
26447SOL    HW191319   2.191   1.757   0.338 -1.7306  0.3048  1.2640
26447SOL    HW291320   2.138   1.634   0.408  0.1307  0.2811  2.7183
26448SOL     OW91321   0.754   7.175   6.652 -0.5077  0.3715  0.3831
26448SOL    HW191322   0.811   7.250   6.669  1.1524 -0.7313 -0.1194
26448SOL    HW291323   0.766   7.118   6.727 -0.3248 -0.2389 -0.1028
26449SOL     OW91324   8.685   3.798   5.274  0.7167 -0.0040  0.0967
26449SOL    HW191325   8.615   3.766   5.330 -0.6042  3.4269  0.6621
26449SOL    HW291326   8.748   3.837   5.335  0.0334  2.3668 -0.6203
26450SOL     OW91327  10.041   5.748   0.832 -0.2506 -0.0517 -0.4708
26450SOL    HW191328  10.097   5.728   0.757  1.6450  0.3791  0.7492
26450SOL    HW291329  10.021   5.663   0.871 -0.4016 -0.2058 -0.8844
26451SOL     OW91330   5.458   4.371   5.886 -0.0390 -0.4251 -0.6333
26451SOL    HW191331   5.513   4.387   5.963 -0.1966  0.0501 -0.6127
26451SOL    HW291332   5.371   4.402   5.912  0.3149  1.6071 -1.6435
26452SOL     OW91333   5.558   9.260   8.877  0.0882 -0.2784  0.2170
26452SOL    HW191334   5.499   9.314   8.930 -0.1570 -1.1523  0.8777
26452SOL    HW291335   5.549   9.172   8.915  0.6445 -0.7338 -0.6745
26453SOL     OW91336   1.433   7.240   1.896 -0.2131  0.1221 -0.2971
26453SOL    HW191337   1.467   7.164   1.850  1.1670  1.3203 -1.3746
26453SOL    HW291338   1.477   7.239   1.981 -1.8143 -1.4038  0.5663
26454SOL     OW91339   5.674   8.949   2.924 -0.6717 -0.1928  0.4491
26454SOL    HW191340   5.624   9.023   2.888 -1.6494 -0.3139  1.4985
26454SOL    HW291341   5.726   8.987   2.994  0.4464 -0.1407 -0.3912
26455SOL     OW91342   8.263   1.464   7.379  0.1342  0.2693  0.3709
26455SOL    HW191343   8.346   1.429   7.346  0.0903 -1.2732  1.7270
26455SOL    HW291344   8.276   1.558   7.382  1.8730  0.0558  0.6312
26456SOL     OW91345   2.828   8.721   7.171 -0.3547  0.1808 -0.2215
26456SOL    HW191346   2.802   8.662   7.101 -0.7518 -0.0448  0.1130
26456SOL    HW291347   2.872   8.665   7.235 -0.2097  0.3437 -0.1763
26457SOL     OW91348   5.314   9.415   6.440  0.4186  0.1897 -0.7437
26457SOL    HW191349   5.272   9.457   6.515  0.4530  0.1290 -0.6898
26457SOL    HW291350   5.407   9.420   6.459  0.4205  0.0175 -0.6955
26458SOL     OW91351   5.297   7.265   1.205  0.1249 -0.7675  0.3142
26458SOL    HW191352   5.376   7.256   1.153  0.1452 -3.4505  0.6648
26458SOL    HW291353   5.226   7.242   1.146 -0.2910  0.3732  0.3478
26459SOL     OW91354   7.318   3.822   2.007 -0.1211  0.3486 -0.0886
26459SOL    HW191355   7.376   3.885   2.051 -1.6162  2.6169 -1.1603
26459SOL    HW291356   7.366   3.797   1.928  0.4364  0.2394  0.2760
26460SOL     OW91357   9.807   4.438  10.202  0.3860 -0.8261  0.3946
26460SOL    HW191358   9.794   4.528  10.172 -1.3542 -0.9293  0.7612
26460SOL    HW291359   9.865   4.399  10.137  1.6718  0.7063  0.5474
26461SOL     OW91360   3.248   7.488   7.060  0.2445 -0.1019 -0.0179
26461SOL    HW191361   3.210   7.543   7.128  0.2601  0.0795 -0.1521
26461SOL    HW291362   3.215   7.400   7.077  2.8411 -0.7799  2.2572
26462SOL     OW91363   7.022   4.720   3.214 -1.5298 -0.2210  0.3079
26462SOL    HW191364   7.096   4.674   3.174 -0.3284  1.4950  0.4480
26462SOL    HW291365   6.947   4.663   3.198 -0.9548 -0.1403 -3.4159
26463SOL     OW91366   6.872   8.669  10.027 -0.7537  0.5521  0.1177
26463SOL    HW191367   6.959   8.646  10.059 -0.4280 -0.3430 -1.3453
26463SOL    HW291368   6.825   8.586  10.023 -2.0143  1.1266  1.7283
26464SOL     OW91369   3.349   9.151   2.759  0.0695 -0.7730 -0.8886
26464SOL    HW191370   3.403   9.110   2.691  0.7300  0.4041 -1.0879
26464SOL    HW291371   3.325   9.236   2.722 -1.6980 -1.1428 -0.6836
26465SOL     OW91372   1.616   9.235   1.432  0.2744  0.0177  0.3397
26465SOL    HW191373   1.691   9.234   1.372  1.7093  0.8871  2.0137
26465SOL    HW291374   1.596   9.328   1.445 -0.5009 -0.1819  0.6291
26466SOL     OW91375   9.506   7.997   9.343  0.6836  0.2257 -0.4950
26466SOL    HW191376   9.502   7.947   9.425  0.8659  2.2682  0.8391
26466SOL    HW291377   9.473   7.937   9.276  0.2746 -1.4263  1.1244
26467SOL     OW91378   5.855   0.449   1.338  1.0167  0.0859 -0.3618
26467SOL    HW191379   5.923   0.396   1.296  1.0851  1.2788 -1.8319
26467SOL    HW291380   5.775   0.397   1.331  1.7138 -1.2860  1.2842
26468SOL     OW91381   0.188   0.494   9.175  0.8133  0.4299  0.5591
26468SOL    HW191382   0.141   0.414   9.149 -0.6236  1.7480 -1.1089
26468SOL    HW291383   0.141   0.525   9.252  0.4336  0.4595  0.3187
26469SOL     OW91384   1.307   1.897   6.660 -0.0500  0.1783 -0.2984
26469SOL    HW191385   1.338   1.835   6.725  0.0713  0.1453 -0.3877
26469SOL    HW291386   1.385   1.945   6.632 -0.1891  0.5822 -0.0043
26470SOL     OW91387   1.889   1.568   6.162  0.0555  0.1696 -0.3638
26470SOL    HW191388   1.985   1.564   6.159  0.2105  0.6364  2.0252
26470SOL    HW291389   1.862   1.478   6.184 -0.1134 -0.0909 -1.5845
26471SOL     OW91390   4.827   7.022   9.636  0.1786 -0.1229 -0.4862
26471SOL    HW191391   4.783   6.973   9.706  1.5696 -0.2273  0.3654
26471SOL    HW291392   4.771   7.011   9.560 -1.6288  0.3520  0.7048
26472SOL     OW91393   4.645   9.086   7.326 -0.4640 -0.4482 -0.3935
26472SOL    HW191394   4.573   9.036   7.287  0.4681 -1.5590 -0.7549
26472SOL    HW291395   4.702   9.020   7.365  1.4555  0.1761 -1.9552
26473SOL     OW91396   9.723   8.757   1.339  0.3393  0.4369 -0.3360
26473SOL    HW191397   9.697   8.815   1.267  2.7792  3.2745  0.8732
26473SOL    HW291398   9.662   8.778   1.410 -0.7264 -0.8470 -0.8107
26474SOL     OW91399   3.988   0.269   2.900  0.3632  0.2730  0.4848
26474SOL    HW191400   3.930   0.197   2.925 -0.4305  0.6578 -0.1920
26474SOL    HW291401   4.065   0.225   2.863 -0.6158 -0.2721 -1.0416
26475SOL     OW91402   3.635   9.868   7.713  0.5990  0.3791 -0.7108
26475SOL    HW191403   3.541   9.885   7.710 -0.0240 -2.4805 -0.8582
26475SOL    HW291404   3.672   9.939   7.766 -1.9263  0.5339  0.9756
26476SOL     OW91405   8.628   0.992   8.006 -0.1850 -0.1033 -0.1006
26476SOL    HW191406   8.597   1.066   8.058 -0.5192  0.8373 -1.6040
26476SOL    HW291407   8.559   0.926   8.014 -0.6713  0.3993 -0.1176
26477SOL     OW91408   7.225   8.914   0.297 -0.2906  0.4344 -0.4233
26477SOL    HW191409   7.262   9.002   0.297  3.0528 -0.8286 -0.2773
26477SOL    HW291410   7.232   8.885   0.206 -0.8650  0.1266 -0.3746
26478SOL     OW91411   0.317   6.813   6.243  0.2463  0.4317  0.0187
26478SOL    HW191412   0.381   6.758   6.198  0.9698  0.6725  0.7301
26478SOL    HW291413   0.369   6.872   6.298 -0.5147  1.6750 -0.5412
26479SOL     OW91414   3.626   0.819   0.769  0.3636 -0.0864 -0.5211
26479SOL    HW191415   3.641   0.902   0.813 -1.6238 -0.1759  0.4615
26479SOL    HW291416   3.699   0.764   0.796 -0.2674  0.1663  1.9852
26480SOL     OW91417   1.805   1.596   7.245  0.0183  1.2171  0.1463
26480SOL    HW191418   1.738   1.624   7.183 -0.1298 -0.0969 -0.3248
26480SOL    HW291419   1.803   1.662   7.315 -1.6110  1.3292  0.0331
26481SOL     OW91420   0.736   7.836   7.746  0.1212  0.0253  0.2007
26481SOL    HW191421   0.702   7.858   7.659  0.3115 -0.6695 -0.0526
26481SOL    HW291422   0.776   7.918   7.777 -0.1419  0.3395 -0.2688
26482SOL     OW91423   7.436   5.974   2.251 -0.2684  0.0172 -0.3405
26482SOL    HW191424   7.405   5.887   2.228  0.4098 -0.4038  0.2753
26482SOL    HW291425   7.473   6.009   2.170 -0.9061 -0.1030 -0.6873
26483SOL     OW91426   8.218   2.014   5.165  0.5400 -0.3660 -0.1164
26483SOL    HW191427   8.298   1.993   5.214  0.5213 -0.6835 -0.2190
26483SOL    HW291428   8.148   1.978   5.219  0.5652 -1.2808 -0.6884
26484SOL     OW91429   8.054   4.721   4.054 -0.3013  0.1912 -0.1131
26484SOL    HW191430   8.084   4.810   4.032  1.7828 -0.1320  1.1458
26484SOL    HW291431   8.090   4.666   3.984 -0.8864  0.2234 -0.4436
26485SOL     OW91432   9.495   6.080   5.356  0.3834 -0.8405  0.5550
26485SOL    HW191433   9.416   6.133   5.362  0.9512  0.4895 -2.0731
26485SOL    HW291434   9.464   5.990   5.347 -0.7325 -0.5500  1.3209
26486SOL     OW91435   3.536   0.960   9.554  0.0397  0.3610 -0.1558
26486SOL    HW191436   3.611   1.011   9.523  0.3898  0.3652  0.6699
26486SOL    HW291437   3.524   0.988   9.645 -1.6809  1.1968 -0.5979
26487SOL     OW91438   1.645   7.613   4.981  0.5200 -0.2161  0.2739
26487SOL    HW191439   1.613   7.581   4.896 -1.7079  2.1037  0.0968
26487SOL    HW291440   1.594   7.564   5.046 -1.9998  1.8798  0.0344
26488SOL     OW91441   5.084   9.220   2.865 -0.2433  0.5931  0.0346
26488SOL    HW191442   4.995   9.186   2.872 -0.1130  0.0261 -0.8114
26488SOL    HW291443   5.135   9.166   2.925 -0.3875  0.6435  0.2062
26489SOL     OW91444   8.819   1.539   3.514 -0.3004  0.5618  0.0308
26489SOL    HW191445   8.877   1.463   3.509  0.9250  1.4599  0.2610
26489SOL    HW291446   8.737   1.504   3.549 -0.2623 -0.9130 -1.2058
26490SOL     OW91447   1.115   0.135   4.534  0.3885 -0.3049 -0.2906
26490SOL    HW191448   1.048   0.166   4.473  0.5102  1.4411  0.4218
26490SOL    HW291449   1.101   0.040   4.536 -1.6995 -0.0738 -0.5936
26491SOL     OW91450   6.134   9.893   5.399 -0.1511  0.4145 -0.4309
26491SOL    HW191451   6.205   9.934   5.349 -2.0410  1.5146 -2.3641
26491SOL    HW291452   6.122   9.808   5.358  1.5566 -0.8436  1.4626
26492SOL     OW91453   2.552   7.582   3.878  0.1663 -0.4870 -0.3718
26492SOL    HW191454   2.487   7.516   3.902 -0.1464  0.1384  0.5673
26492SOL    HW291455   2.585   7.614   3.962  0.3409  0.5176 -0.8118
26493SOL     OW91456   5.497   9.635   3.434  0.6925  0.0800 -0.6163
26493SOL    HW191457   5.453   9.614   3.352 -0.4720  1.6730 -0.4528
26493SOL    HW291458   5.471   9.566   3.494  0.8580 -0.6255 -1.3332
26494SOL     OW91459   8.708   4.540   2.503 -0.2692 -0.4467  0.6328
26494SOL    HW191460   8.736   4.632   2.504  0.2919 -0.6058  0.1054
26494SOL    HW291461   8.632   4.538   2.561 -0.1935  0.3220  0.7745
26495SOL     OW91462   2.100   7.137   1.337 -0.0438 -0.2430  0.1165
26495SOL    HW191463   2.162   7.095   1.277 -1.9469  0.3844 -2.4567
26495SOL    HW291464   2.119   7.231   1.329 -2.4905  0.1768 -2.3584
26496SOL     OW91465   2.568   4.387   9.616  0.4628  0.2047  0.0345
26496SOL    HW191466   2.559   4.455   9.682 -1.2308 -0.5859  0.6773
26496SOL    HW291467   2.650   4.343   9.637 -0.0528 -0.0327  1.6352
26497SOL     OW91468   6.963   9.078   5.465 -0.8390 -0.3755  0.6117
26497SOL    HW191469   6.875   9.081   5.428 -0.6751 -0.2064  0.2345
26497SOL    HW291470   7.020   9.110   5.395 -0.7428  1.9547  1.6878
26498SOL     OW91471   4.495   8.847   4.901 -0.1145  0.2950 -0.2823
26498SOL    HW191472   4.548   8.865   4.824 -0.9058  0.3049 -0.8313
26498SOL    HW291473   4.474   8.934   4.936  0.2385  0.2909 -0.0555
26499SOL     OW91474   2.596   8.681   0.750 -0.2531 -0.2675 -0.4954
26499SOL    HW191475   2.572   8.773   0.763  0.6998 -0.0897  0.1083
26499SOL    HW291476   2.688   8.677   0.776  0.7213 -0.7110 -3.6724
26500SOL     OW91477   6.141   5.603  10.371 -0.2163  0.0428  0.0388
26500SOL    HW191478   6.134   5.636  10.281  0.6053 -1.2773 -0.5502
26500SOL    HW291479   6.179   5.676  10.420 -2.3940  1.4352 -0.2445
26501SOL     OW91480   1.921   7.881   3.743 -0.6233 -0.8441  0.1370
26501SOL    HW191481   1.935   7.806   3.802 -0.3126 -1.7226 -1.0105
26501SOL    HW291482   1.827   7.896   3.745 -0.8534 -2.0434 -0.5023
26502SOL     OW91483   5.890   5.534   0.058 -0.6708 -0.6853 -0.0112
26502SOL    HW191484   5.970   5.572   0.023 -1.7015  0.9858 -0.7063
26502SOL    HW291485   5.895   5.549   0.153 -0.3797 -0.1752 -0.1069
26503SOL     OW91486   0.236   0.574   0.484  0.4205 -0.0140  0.3427
26503SOL    HW191487   0.218   0.599   0.393  0.2943  2.5348  1.0106
26503SOL    HW291488   0.326   0.541   0.482  0.5762  0.4313 -0.6452
26504SOL     OW91489   7.225   1.159   1.805  0.0242 -0.1902 -0.6161
26504SOL    HW191490   7.243   1.252   1.797  0.6324 -0.3638 -1.4264
26504SOL    HW291491   7.259   1.135   1.892  0.9256  0.1147 -0.8760
26505SOL     OW91492   6.419   5.675   8.143  0.2581 -0.0842 -0.3244
26505SOL    HW191493   6.450   5.721   8.222  0.3476 -0.1777 -0.3059
26505SOL    HW291494   6.498   5.649   8.098  0.2104  0.3072 -0.6432
26506SOL     OW91495   9.372  10.143   2.804  0.1005 -0.0014 -0.1799
26506SOL    HW191496   9.444  10.154   2.743  0.4035 -0.3282  0.1102
26506SOL    HW291497   9.316  10.219   2.791  1.1565  0.9186  0.4928
26507SOL     OW91498   9.456   1.057   3.606 -0.1235 -0.3795 -0.1736
26507SOL    HW191499   9.494   1.138   3.641 -0.6570  0.2670 -1.0311
26507SOL    HW291500   9.470   0.992   3.675 -0.8600  0.7576  1.0982
26508SOL     OW91501   1.224   0.719   1.383  0.0085  0.5493 -0.1999
26508SOL    HW191502   1.288   0.791   1.382 -0.0432  0.7240  2.0467
26508SOL    HW291503   1.158   0.744   1.319  1.2225  1.3032 -1.2037
26509SOL     OW91504   7.383   0.486   8.832 -0.1142  0.2222 -0.2086
26509SOL    HW191505   7.403   0.513   8.743  0.0141  0.0944 -0.2192
26509SOL    HW291506   7.404   0.392   8.834  2.1012  0.6654  0.5834
26510SOL     OW91507   0.589   8.966   9.231 -0.2631  0.2088  0.4742
26510SOL    HW191508   0.656   9.033   9.247 -0.4335  0.7195 -0.8218
26510SOL    HW291509   0.638   8.885   9.218 -0.0003  0.2631  1.0732
26511SOL     OW91510   5.849   3.374  10.359  0.3841 -0.2762 -0.4452
26511SOL    HW191511   5.828   3.283  10.379 -1.3409  0.4205  1.3341
26511SOL    HW291512   5.879   3.410  10.443  0.0646  1.0258 -0.8647
26512SOL     OW91513   9.886   1.218   9.490  0.2818 -0.3564 -0.5832
26512SOL    HW191514   9.859   1.309   9.501  0.9145  0.0318 -1.9632
26512SOL    HW291515   9.832   1.169   9.551 -2.1907  0.5946 -1.8961
26513SOL     OW91516   4.130   4.222   6.004  0.0735 -0.3905 -0.2484
26513SOL    HW191517   4.199   4.289   6.003  1.2864 -1.5589  0.8027
26513SOL    HW291518   4.063   4.258   6.063  0.4046  0.1844 -0.2100
26514SOL     OW91519   9.999   9.535   7.035  0.4131 -0.4195 -0.1781
26514SOL    HW191520   9.916   9.497   7.006  0.6911 -0.3595 -1.1203
26514SOL    HW291521  10.027   9.481   7.109 -0.6926 -0.1365  0.4574
26515SOL     OW91522   1.046   8.092   1.627  0.0081  0.3546  0.1752
26515SOL    HW191523   1.100   8.050   1.694  0.9147  0.3852 -0.5197
26515SOL    HW291524   1.069   8.185   1.632  0.4352  0.2931 -0.4851
26516SOL     OW91525   6.830   4.861   8.406 -0.4935 -0.0111 -0.0214
26516SOL    HW191526   6.870   4.833   8.323 -2.6649  0.9072 -1.4974
26516SOL    HW291527   6.880   4.939   8.431  0.5515 -0.6225 -0.1159
26517SOL     OW91528   9.488   3.198   8.008 -0.1687  1.0129  0.3805
26517SOL    HW191529   9.496   3.211   8.102  0.4386 -1.3057  0.7067
26517SOL    HW291530   9.564   3.145   7.984 -0.5514  1.1843 -1.3460
26518SOL     OW91531   5.819   8.040   1.995 -0.5007  0.0847 -0.3597
26518SOL    HW191532   5.814   7.979   2.068  2.6482 -0.3491 -0.3976
26518SOL    HW291533   5.854   7.989   1.922 -1.6433  1.0090 -1.6400
26519SOL     OW91534   4.356   0.743   7.881  0.8067  0.0925  0.4212
26519SOL    HW191535   4.286   0.804   7.858  0.9305  0.2681  0.5101
26519SOL    HW291536   4.346   0.729   7.975 -1.4814 -2.8235 -0.0853
26520SOL     OW91537   0.752   7.690   3.717 -0.0181 -0.0299 -0.3524
26520SOL    HW191538   0.661   7.717   3.700  0.3386  0.5136 -1.5751
26520SOL    HW291539   0.794   7.698   3.631  0.9740 -1.1410  0.0191
26521SOL     OW91540   3.973   4.346   9.491 -0.3012  0.0227 -0.1438
26521SOL    HW191541   4.009   4.329   9.404 -0.4126 -0.5059 -0.0948
26521SOL    HW291542   3.880   4.322   9.484 -0.4486  0.5600 -0.0425
26522SOL     OW91543   1.122   2.735   4.561 -0.1286  0.1825 -0.6262
26522SOL    HW191544   1.080   2.807   4.515  0.9715  1.2473 -0.0335
26522SOL    HW291545   1.083   2.738   4.649  0.1055  0.2293 -0.5239
26523SOL     OW91546   1.159   5.486   6.611 -0.0795 -0.2281  0.7134
26523SOL    HW191547   1.137   5.407   6.659 -1.8941  0.1328  0.5251
26523SOL    HW291548   1.178   5.551   6.679 -1.2196 -0.1136  0.9402
26524SOL     OW91549   5.472   8.595   5.762 -0.2289 -0.2565  0.3318
26524SOL    HW191550   5.398   8.646   5.730 -0.9812 -1.2961  0.3461
26524SOL    HW291551   5.445   8.504   5.749  0.4676 -0.6766  1.6579
26525SOL     OW91552   3.286   6.619   6.258  0.5970 -0.2675  0.0381
26525SOL    HW191553   3.261   6.526   6.261 -1.6564  0.2599 -0.5000
26525SOL    HW291554   3.322   6.637   6.345  2.0447 -1.8560 -0.1768
26526SOL     OW91555   5.230   6.333   6.044  0.4018 -0.0634  0.1605
26526SOL    HW191556   5.141   6.322   6.012  0.1196  0.0636  0.8875
26526SOL    HW291557   5.285   6.308   5.970 -0.2228  1.1433 -0.7374
26527SOL     OW91558   6.657   0.893   2.050  0.2517  0.2747  0.0922
26527SOL    HW191559   6.733   0.839   2.072  1.0551  1.7088  0.9592
26527SOL    HW291560   6.624   0.924   2.134 -0.5319  0.6745 -0.3546
26528SOL     OW91561   8.933   2.120   7.969 -0.2185  0.6410 -0.1248
26528SOL    HW191562   9.006   2.093   8.024 -3.7577 -2.9947  3.6018
26528SOL    HW291563   8.916   2.211   7.994  0.5021  0.1985  2.2905
26529SOL     OW91564   9.318   2.467   2.417 -0.1498  0.1831 -0.4377
26529SOL    HW191565   9.353   2.543   2.370  0.2775  0.1837 -0.1269
26529SOL    HW291566   9.396   2.415   2.439 -0.3718  0.0292 -0.0015
26530SOL     OW91567   7.157   6.442   7.865 -0.1374 -0.6449 -0.0972
26530SOL    HW191568   7.143   6.453   7.771  0.5269  1.3773 -0.0073
26530SOL    HW291569   7.186   6.528   7.895 -1.0052 -1.0643  2.0942
26531SOL     OW91570   9.764   0.316   8.947  0.0857  0.2481  0.0116
26531SOL    HW191571   9.768   0.400   8.994 -1.4592  0.9705 -1.0688
26531SOL    HW291572   9.818   0.257   8.999 -0.1682  1.4626  1.7422
26532SOL     OW91573   2.423   7.674   7.770 -0.2111 -0.1265 -0.4652
26532SOL    HW191574   2.493   7.629   7.723  0.5700  0.8581 -0.2795
26532SOL    HW291575   2.365   7.604   7.800  0.3056 -0.9034 -1.2471
26533SOL     OW91576   7.170   6.915   6.044 -0.0342  0.0052 -0.2416
26533SOL    HW191577   7.178   6.986   5.981  0.8292 -0.7705 -1.0499
26533SOL    HW291578   7.134   6.842   5.993  0.6037 -0.6119  0.1669
26534SOL     OW91579   4.762   1.946   0.071  0.0333  0.1558 -0.6267
26534SOL    HW191580   4.748   2.002  -0.005  0.2802 -1.1286 -1.6522
26534SOL    HW291581   4.676   1.911   0.092  0.0852 -0.0455 -0.7532
26535SOL     OW91582   8.637   6.377   4.225 -0.6115 -0.4666 -0.0302
26535SOL    HW191583   8.608   6.339   4.142  1.2383  0.3139 -1.0876
26535SOL    HW291584   8.728   6.400   4.210  0.2661 -1.7915  2.7705
26536SOL     OW91585   4.636   0.499   2.736 -0.2156 -0.4024 -0.4499
26536SOL    HW191586   4.681   0.426   2.778  0.1005  0.8113  1.4514
26536SOL    HW291587   4.693   0.524   2.664  1.3630  0.0012  0.8653
26537SOL     OW91588   2.682   9.914   5.755  0.4480 -0.2007 -0.7725
26537SOL    HW191589   2.614   9.967   5.797  1.7795  0.5947  0.4568
26537SOL    HW291590   2.704   9.962   5.675 -0.0568 -0.1993 -0.9177
26538SOL     OW91591   1.080   0.124  10.052  0.4486 -0.3276  0.0929
26538SOL    HW191592   1.116   0.204  10.089 -1.8284 -1.0967  4.7567
26538SOL    HW291593   0.986   0.140  10.045 -0.1601 -2.6261  1.6696
26539SOL     OW91594   4.689   8.919   9.472 -0.3589  0.2462 -0.1788
26539SOL    HW191595   4.607   8.962   9.494 -0.2657  0.1722  0.3172
26539SOL    HW291596   4.690   8.918   9.376 -1.2712 -0.3931 -0.1967
26540SOL     OW91597   3.633   3.376   1.525 -0.2724 -0.1320  0.1224
26540SOL    HW191598   3.625   3.457   1.473 -1.2714 -0.1764  0.1879
26540SOL    HW291599   3.571   3.388   1.597 -0.8066 -1.1601 -0.1499
26541SOL     OW91600   1.091   7.429   1.652  0.4400  0.2930 -0.2247
26541SOL    HW191601   1.140   7.511   1.656  2.7638 -1.0040 -0.3809
26541SOL    HW291602   1.121   7.387   1.571 -2.3062  0.1934 -1.2875
26542SOL     OW91603   2.342   8.541   8.542 -0.8008  0.1159 -0.6354
26542SOL    HW191604   2.345   8.575   8.453 -0.4957 -0.9099 -1.0338
26542SOL    HW291605   2.379   8.453   8.535 -0.8507 -0.0068  0.4907
26543SOL     OW91606   2.927   4.115   4.890 -0.3004  0.0014 -0.0713
26543SOL    HW191607   2.832   4.112   4.885 -0.3264 -0.4602  0.6289
26543SOL    HW291608   2.950   4.055   4.961  0.5910 -0.9006 -1.0796
26544SOL     OW91609   5.620   4.477   7.878 -0.2241 -0.1205  0.7472
26544SOL    HW191610   5.568   4.501   7.954 -0.6194 -3.0967  1.5545
26544SOL    HW291611   5.576   4.400   7.842  1.1682 -0.0732 -1.2251
26545SOL     OW91612   6.220   2.691   6.415  0.0166  0.3161 -0.1856
26545SOL    HW191613   6.288   2.731   6.468  1.6886  0.2053 -2.1052
26545SOL    HW291614   6.170   2.764   6.380 -0.3674  0.4328  0.5793
26546SOL     OW91615   9.830   0.170   4.351  0.4327 -0.1261 -0.2630
26546SOL    HW191616   9.866   0.200   4.268 -0.8388 -0.4207 -0.9499
26546SOL    HW291617   9.830   0.075   4.345 -0.3593 -0.1361 -0.2480
26547SOL     OW91618   0.129   3.637   6.622 -0.0110 -0.5974 -0.1624
26547SOL    HW191619   0.121   3.544   6.601 -1.1427 -0.2928 -1.1862
26547SOL    HW291620   0.125   3.682   6.538  0.3393  0.3970  0.3300
26548SOL     OW91621   0.926   4.607   3.850 -0.3401 -0.0676 -0.1914
26548SOL    HW191622   0.899   4.558   3.772 -1.6073 -0.2237  0.3201
26548SOL    HW291623   0.952   4.539   3.912 -1.6504 -0.1003  0.3534
26549SOL     OW91624  10.083   7.383   9.618 -0.7253  0.2830 -0.4786
26549SOL    HW191625  10.054   7.331   9.544 -0.8003  0.9189 -0.9089
26549SOL    HW291626  10.144   7.447   9.580  0.1528 -0.1349  0.1925
26550SOL     OW91627   1.749   9.182   9.915 -0.1450  0.1091  0.0400
26550SOL    HW191628   1.666   9.170   9.962  0.0306 -1.1623  0.0591
26550SOL    HW291629   1.747   9.115   9.846  0.2268  1.0333 -0.8952
26551SOL     OW91630   6.960   7.869   0.343  0.1079 -0.4815 -0.2147
26551SOL    HW191631   6.866   7.863   0.359  0.0379 -1.5767 -0.9678
26551SOL    HW291632   6.968   7.920   0.263  0.1181 -0.9230 -0.4980
26552SOL     OW91633   6.047   2.471   7.600  0.0636  0.2132  0.2573
26552SOL    HW191634   6.057   2.548   7.545 -0.4085  0.7491  0.8959
26552SOL    HW291635   6.130   2.424   7.592 -0.1015  0.1235 -1.1221
26553SOL     OW91636   9.418   1.243   7.504 -0.1996 -0.2803  0.2444
26553SOL    HW191637   9.372   1.159   7.514 -0.7964  0.0304  0.1685
26553SOL    HW291638   9.426   1.276   7.593 -1.0864  0.1620  0.1720
26554SOL     OW91639   0.767   9.324   4.008 -0.2181 -0.5659  0.5571
26554SOL    HW191640   0.746   9.301   3.917 -0.6918 -1.7342  0.9437
26554SOL    HW291641   0.783   9.418   4.006 -3.0820 -0.0094 -0.2263
26555SOL     OW91642  10.208   0.879   3.008  0.5624 -0.2284  0.1195
26555SOL    HW191643  10.238   0.915   2.925 -0.8837  0.7404 -0.0088
26555SOL    HW291644  10.128   0.927   3.028  0.2254 -1.2904  1.4760
26556SOL     OW91645   3.148   2.000   8.485 -0.1546 -0.3369  0.5872
26556SOL    HW191646   3.149   1.934   8.554  0.1861 -1.1942 -0.2098
26556SOL    HW291647   3.085   1.967   8.420 -0.3822  0.3920  0.4178
26557SOL     OW91648   9.368   1.232   7.232 -0.0382 -0.6663 -0.4714
26557SOL    HW191649   9.385   1.256   7.323 -0.9733  0.0325 -0.4707
26557SOL    HW291650   9.408   1.146   7.222  3.2116  0.6536 -0.3800
26558SOL     OW91651   8.657   1.490   2.792 -0.3356  0.0311  0.0945
26558SOL    HW191652   8.595   1.503   2.864 -0.6407  0.6950 -0.2796
26558SOL    HW291653   8.606   1.510   2.713 -0.7514 -3.0692 -0.5508
26559SOL     OW91654   0.100   1.100   6.623  0.0268 -0.2956  0.4299
26559SOL    HW191655   0.049   1.129   6.547  1.1107  0.3047 -0.0956
26559SOL    HW291656   0.035   1.068   6.685 -0.8924 -0.8327 -0.7658
26560SOL     OW91657   9.277   4.128   2.020 -0.4360 -0.3071  0.6344
26560SOL    HW191658   9.197   4.108   2.068 -0.1340  0.3626  1.4274
26560SOL    HW291659   9.306   4.043   1.986 -1.1137 -0.6569  0.9099
26561SOL     OW91660   0.801   6.479   8.333 -0.0706  0.1242  0.1833
26561SOL    HW191661   0.815   6.384   8.332 -0.0055  0.0508 -2.9451
26561SOL    HW291662   0.869   6.513   8.392  1.3105 -1.6416 -0.3177
26562SOL     OW91663   0.073   2.841   6.599 -0.7687 -0.0025  0.1611
26562SOL    HW191664   0.126   2.808   6.527 -1.4153  0.6972 -0.6625
26562SOL    HW291665   0.137   2.866   6.666 -0.1824 -1.0446  0.0063
26563SOL     OW91666   1.395   9.673   7.847  0.2819  0.5495  0.4211
26563SOL    HW191667   1.304   9.656   7.824  0.5678  0.0282 -0.3588
26563SOL    HW291668   1.407   9.629   7.931 -0.1933  0.6647  0.5540
26564SOL     OW91669   5.671   4.252   4.445 -0.2550  0.0105  0.3048
26564SOL    HW191670   5.718   4.209   4.517  1.4129  1.1079 -0.0690
26564SOL    HW291671   5.580   4.224   4.456  0.2592 -1.2652  1.7729
26565SOL     OW91672   9.280   0.733   2.902  0.4397  0.1656 -0.1547
26565SOL    HW191673   9.277   0.667   2.832 -0.0457 -1.0305  0.9518
26565SOL    HW291674   9.361   0.713   2.949  0.2094  0.2575  0.2855
26566SOL     OW91675   0.768   7.302   5.332 -0.2516  0.1531  0.4329
26566SOL    HW191676   0.802   7.377   5.284 -2.5804  0.1921 -1.3071
26566SOL    HW291677   0.730   7.339   5.412  0.0713  0.6219  0.3664
26567SOL     OW91678   0.655   0.531   2.087  0.3905 -0.4293 -0.2695
26567SOL    HW191679   0.564   0.532   2.057  0.6998 -0.6402 -1.2572
26567SOL    HW291680   0.689   0.447   2.056  1.1663  0.0294 -0.6988
26568SOL     OW91681   6.214   7.484   6.028 -0.0068  0.6233 -0.7656
26568SOL    HW191682   6.189   7.532   6.107  0.8611 -1.6039  0.9899
26568SOL    HW291683   6.281   7.539   5.987 -0.7259  2.0047 -0.1539
26569SOL     OW91684   0.705   2.348   2.100 -0.3512  0.2897  0.0816
26569SOL    HW191685   0.663   2.289   2.163  0.4652  1.6372  2.0017
26569SOL    HW291686   0.715   2.295   2.021 -2.7673 -1.0333  0.5529
26570SOL     OW91687   7.619   7.841   3.666 -0.1068 -0.4542 -0.1574
26570SOL    HW191688   7.641   7.839   3.759 -0.4118 -0.5858 -0.0877
26570SOL    HW291689   7.694   7.886   3.625  0.2641 -0.8422  0.0835
26571SOL     OW91690   0.439   4.642   1.984  0.5013 -0.1959 -0.5690
26571SOL    HW191691   0.524   4.673   1.953 -0.4587  0.4743 -2.7280
26571SOL    HW291692   0.433   4.552   1.951  0.6423 -0.4905  0.1878
26572SOL     OW91693   8.864   0.944   8.837 -0.0203 -0.0358 -0.4006
26572SOL    HW191694   8.930   1.012   8.849 -0.2715  0.7823 -2.9228
26572SOL    HW291695   8.794   0.967   8.897  1.2751  0.0048  1.1544
26573SOL     OW91696   9.180   5.632   5.832 -0.6743 -0.5476  0.0802
26573SOL    HW191697   9.243   5.684   5.783 -0.8063  1.1027  1.5424
26573SOL    HW291698   9.199   5.541   5.808  1.7543 -0.0587 -0.1185
26574SOL     OW91699  10.205   2.072   6.879  0.6775 -0.3218 -0.1217
26574SOL    HW191700  10.249   2.126   6.813  1.0819  0.4008  0.7217
26574SOL    HW291701  10.114   2.102   6.877  0.8350  0.1799  0.1281
26575SOL     OW91702   9.305   6.849   5.988  0.6399 -0.4116  0.1687
26575SOL    HW191703   9.355   6.803   6.056 -1.3220 -0.7964  1.4386
26575SOL    HW291704   9.288   6.782   5.922  1.4317 -0.3798 -0.0747
26576SOL     OW91705   2.107   8.791   4.877  0.5747  0.0247 -0.2189
26576SOL    HW191706   2.097   8.697   4.888  0.2427 -0.0922 -1.4774
26576SOL    HW291707   2.202   8.804   4.867  0.6986 -0.0719  0.7011
26577SOL     OW91708   0.325   9.211   4.680  0.2231 -0.4318  0.5403
26577SOL    HW191709   0.398   9.264   4.711  0.8759 -1.7864  1.4224
26577SOL    HW291710   0.336   9.208   4.585  0.6493  0.3133  0.5610
26578SOL     OW91711   4.547   9.003   0.784 -0.6329  0.3254 -0.4929
26578SOL    HW191712   4.619   8.980   0.725 -0.8819  0.0534 -0.6965
26578SOL    HW291713   4.474   8.949   0.754 -0.5275 -0.4718  0.6306
26579SOL     OW91714   1.727   8.729   0.935 -0.0303 -0.2824 -0.4341
26579SOL    HW191715   1.712   8.772   0.851  1.4495  1.7931  0.2989
26579SOL    HW291716   1.822   8.723   0.942 -0.1550 -1.2029  0.7279
26580SOL     OW91717   4.323   1.332   9.945  0.2018 -0.4541  0.2095
26580SOL    HW191718   4.260   1.344  10.016  0.3467 -1.1681  0.4748
26580SOL    HW291719   4.406   1.365   9.982  0.1352 -0.1921  0.1254
26581SOL     OW91720   3.037   6.158   2.855  0.2903 -0.0549 -0.1753
26581SOL    HW191721   3.104   6.091   2.871 -0.1941 -0.1084  1.9747
26581SOL    HW291722   3.067   6.234   2.905 -0.7479  0.2405  0.0231
26582SOL     OW91723   7.874   7.280   2.332 -0.1251  0.1640 -0.3946
26582SOL    HW191724   7.833   7.363   2.354  0.5115  0.6265 -0.9236
26582SOL    HW291725   7.967   7.292   2.352  0.0484 -0.2653 -0.9016
26583SOL     OW91726   6.614   6.841   4.431  0.2501 -0.2099  0.1847
26583SOL    HW191727   6.590   6.798   4.513  0.2623 -0.1996  0.1936
26583SOL    HW291728   6.625   6.933   4.454  0.3631 -0.2265  0.1920
26584SOL     OW91729   0.497   9.955   3.537  0.0373  0.0222 -0.5071
26584SOL    HW191730   0.581   9.930   3.576 -0.4995 -0.9444  0.0493
26584SOL    HW291731   0.470  10.032   3.585 -1.1715 -1.7879  1.9073
26585SOL     OW91732   0.663   7.880   9.212  0.0337 -0.1242  0.2403
26585SOL    HW191733   0.727   7.898   9.280  0.2991 -1.3057  0.3288
26585SOL    HW291734   0.666   7.956   9.154  1.4345 -0.1085  0.3055
26586SOL     OW91735   0.577   3.253   0.839  0.0501  0.1643  0.0001
26586SOL    HW191736   0.530   3.169   0.837 -0.1551  0.2437  1.0485
26586SOL    HW291737   0.665   3.230   0.870  0.5329  0.1070 -1.3502
26587SOL     OW91738   2.120  10.183   3.546 -0.3566 -0.1423  0.1683
26587SOL    HW191739   2.123  10.089   3.530 -0.4837 -0.4613  1.8267
26587SOL    HW291740   2.198  10.218   3.502  0.2384 -1.1552  0.3988
26588SOL     OW91741   1.685   1.117   0.270 -0.2489 -0.0053 -0.4933
26588SOL    HW191742   1.734   1.186   0.224 -2.6743  1.1698 -1.5037
26588SOL    HW291743   1.631   1.163   0.333 -1.1485 -1.0995 -0.4315
26589SOL     OW91744   3.382   3.612   3.269  0.1708  0.1641  0.0651
26589SOL    HW191745   3.439   3.637   3.342  1.0633  0.8929 -0.8509
26589SOL    HW291746   3.362   3.519   3.285 -0.2099  0.4798  1.5816
26590SOL     OW91747   9.636   1.532   3.855  0.2524  0.0487 -0.2863
26590SOL    HW191748   9.601   1.527   3.944  0.5132  1.3156 -0.1001
26590SOL    HW291749   9.731   1.532   3.867  0.2863  0.3459 -0.5556
26591SOL     OW91750   2.931   5.484   8.094 -0.2120  0.4441 -0.6088
26591SOL    HW191751   2.942   5.500   8.188 -1.2622 -2.5923  0.1460
26591SOL    HW291752   2.898   5.567   8.059 -0.1900  1.5292  1.7822
26592SOL     OW91753  10.113   0.034   5.237 -0.3372 -0.0334  0.4048
26592SOL    HW191754  10.106   0.022   5.142 -1.2870 -0.1697  0.4784
26592SOL    HW291755  10.200  -0.001   5.259 -0.4982 -0.9303 -0.2855
26593SOL     OW91756   2.335   1.535   8.715  0.5429  1.0725 -0.7200
26593SOL    HW191757   2.413   1.482   8.728 -1.0588 -1.6855 -1.4830
26593SOL    HW291758   2.271   1.475   8.677 -2.1087  3.0775  0.2375
26594SOL     OW91759   5.593   9.455   0.492 -0.0093 -0.4966 -0.2826
26594SOL    HW191760   5.587   9.489   0.402  0.2422 -0.6439 -0.3535
26594SOL    HW291761   5.542   9.517   0.544  0.2894 -0.1118 -0.4430
26595SOL     OW91762   0.078   5.702   0.343 -0.6225 -0.0904 -0.0166
26595SOL    HW191763   0.060   5.682   0.251 -1.7984 -1.0557  0.4063
26595SOL    HW291764   0.016   5.649   0.393  1.5762 -1.4394  1.4535
26596SOL     OW91765   2.461   1.350   7.678 -0.0006 -0.3766  0.0669
26596SOL    HW191766   2.368   1.331   7.684  0.1159 -0.4474  2.0801
26596SOL    HW291767   2.466   1.424   7.617 -1.2758 -0.8553 -0.6612
26597SOL     OW91768   0.983   4.789   3.626  0.5179 -0.4426  0.1438
26597SOL    HW191769   1.044   4.724   3.591 -0.3046 -1.3705  0.3890
26597SOL    HW291770   0.955   4.753   3.710 -0.9423 -0.4202 -0.3036
26598SOL     OW91771   6.190   6.210   7.189  0.1976 -0.2773  0.0704
26598SOL    HW191772   6.151   6.130   7.225 -0.5976 -0.0468 -0.2491
26598SOL    HW291773   6.115   6.261   7.157  0.7688  0.1686 -0.5923
26599SOL     OW91774   2.486   9.569   6.168  0.5061  0.5518 -0.1947
26599SOL    HW191775   2.416   9.605   6.222 -0.0997  0.4179 -0.8847
26599SOL    HW291776   2.490   9.625   6.091  0.7091  0.1643 -0.4745
26600SOL     OW91777   7.667   7.344   3.215 -0.3222 -0.3306  0.3654
26600SOL    HW191778   7.736   7.389   3.265  0.0581 -1.3756  0.8285
26600SOL    HW291779   7.585   7.376   3.253 -0.0708  0.1154  0.5459
26601SOL     OW91780   5.076   3.119   7.187 -0.0375 -0.3277  0.4540
26601SOL    HW191781   5.117   3.140   7.103 -0.6147  1.4069  0.5699
26601SOL    HW291782   5.148   3.089   7.242  0.3139 -1.7534 -0.6995
26602SOL     OW91783   4.609   2.597   4.890 -0.0098 -0.2745 -0.0168
26602SOL    HW191784   4.570   2.617   4.975 -0.6208  0.9597 -0.5569
26602SOL    HW291785   4.608   2.681   4.843  1.3759 -0.6768 -0.8220
26603SOL     OW91786   1.234   9.562   2.362 -0.1778 -0.0225  0.1106
26603SOL    HW191787   1.169   9.493   2.372 -1.4584  1.2500  0.8690
26603SOL    HW291788   1.272   9.546   2.275  0.2827 -2.2355  0.6651
26604SOL     OW91789   6.336   7.632   8.519 -0.2647 -0.0440  0.2261
26604SOL    HW191790   6.264   7.613   8.578  0.8255 -0.1896  1.5562
26604SOL    HW291791   6.408   7.658   8.576 -0.1830  3.4566 -1.1734
26605SOL     OW91792   9.731  10.042   4.604  0.2934  0.4671 -0.0033
26605SOL    HW191793   9.670  10.001   4.665 -0.4446  0.0146 -1.0153
26605SOL    HW291794   9.769  10.115   4.653 -0.8875  0.6175  0.7219
26606SOL     OW91795   5.178   4.198   5.780 -0.1515  0.8129  0.3192
26606SOL    HW191796   5.205   4.265   5.843 -0.8473  1.1901  0.2245
26606SOL    HW291797   5.149   4.248   5.704  0.4312  0.3681 -0.2075
26607SOL     OW91798   0.448   6.602   3.218 -0.1568  0.1254 -0.0875
26607SOL    HW191799   0.413   6.684   3.254  0.6431 -0.0182  1.0744
26607SOL    HW291800   0.401   6.591   3.135 -3.0228 -0.1659  1.4351
26608SOL     OW91801   5.566   7.102   2.192  0.3052  0.4388  0.0605
26608SOL    HW191802   5.487   7.107   2.246 -0.2528  0.9115 -0.7882
26608SOL    HW291803   5.594   7.192   2.181 -0.8410  0.6025 -2.2160
26609SOL     OW91804   0.042   4.791   5.843 -0.4068 -0.4317 -0.3008
26609SOL    HW191805   0.054   4.875   5.798 -0.9437 -0.0923  0.1872
26609SOL    HW291806   0.126   4.775   5.886 -0.6346  0.3907  0.4922
26610SOL     OW91807   4.974   2.016   2.505  0.7897  0.3108  0.0242
26610SOL    HW191808   4.964   2.069   2.584 -0.3766  1.8476 -1.1049
26610SOL    HW291809   4.949   2.074   2.433  1.3132 -1.2005 -1.4515
26611SOL     OW91810   0.696   7.005   4.035  0.4114  0.3234  0.1870
26611SOL    HW191811   0.647   6.924   4.021 -0.7074  0.6550  1.8386
26611SOL    HW291812   0.676   7.029   4.126 -0.7375  3.3814 -0.7443
26612SOL     OW91813  10.159   0.981   3.766 -0.7165 -0.5501  0.1385
26612SOL    HW191814  10.193   0.906   3.717 -0.4281 -0.9358  0.9131
26612SOL    HW291815  10.090   1.017   3.709  0.0351 -0.5895 -0.8333
26613SOL     OW91816   3.670   6.846   2.554 -0.0077  0.2111  0.3276
26613SOL    HW191817   3.627   6.916   2.603  0.8577 -0.6204  2.4049
26613SOL    HW291818   3.755   6.836   2.596  0.6909 -0.7738 -1.2083
26614SOL     OW91819   2.422   5.260   9.763 -0.1362  0.3441  0.6072
26614SOL    HW191820   2.505   5.306   9.778  0.0915  0.6490 -1.3104
26614SOL    HW291821   2.447   5.172   9.738 -0.3943  0.3819  0.2093
26615SOL     OW91822   0.093   1.146   8.034  0.3079 -0.3545 -0.0817
26615SOL    HW191823   0.182   1.130   8.065  0.1035 -0.3511  0.5069
26615SOL    HW291824   0.088   1.241   8.026  1.2792 -0.4390 -2.8701
26616SOL     OW91825   6.384   7.030   5.482 -0.3091 -0.1671  0.0378
26616SOL    HW191826   6.308   7.014   5.538 -1.1295  1.3060 -0.6105
26616SOL    HW291827   6.381   7.124   5.464  0.7998 -0.3560 -1.2529
26617SOL     OW91828   3.947   8.829   7.464 -0.6287  0.0519 -0.2012
26617SOL    HW191829   3.970   8.773   7.538 -0.0171  0.7669  0.1716
26617SOL    HW291830   3.994   8.911   7.482 -1.3843  0.6236 -0.8030
26618SOL     OW91831   3.749   7.431   6.453 -0.3478 -0.5887  0.4028
26618SOL    HW191832   3.779   7.467   6.537 -0.5999 -2.9962  1.6059
26618SOL    HW291833   3.808   7.470   6.388  0.8418  0.1632  1.8691
26619SOL     OW91834   4.363   5.848   4.891  0.7783  0.6821 -0.1861
26619SOL    HW191835   4.327   5.936   4.880  0.5975  0.8136  1.2539
26619SOL    HW291836   4.332   5.820   4.977  2.2602 -0.0870  0.1327
26620SOL     OW91837   0.803   2.431   2.638  0.0813  0.9814 -0.4293
26620SOL    HW191838   0.720   2.399   2.604  0.6830  0.0355 -1.0592
26620SOL    HW291839   0.849   2.465   2.561  0.3522  1.3462 -0.1144
26621SOL     OW91840   1.949   9.328   0.284  0.4067 -0.1949 -0.1860
26621SOL    HW191841   2.034   9.315   0.327  0.0778 -1.9144 -0.0012
26621SOL    HW291842   1.886   9.330   0.356  0.0723 -1.0529 -0.4493
26622SOL     OW91843   0.462   4.560   3.015  0.2881  0.2814  0.3109
26622SOL    HW191844   0.395   4.623   2.988  1.3374  1.7743  1.0249
26622SOL    HW291845   0.445   4.482   2.963 -3.2882 -0.2089  1.9278
26623SOL     OW91846  10.313   9.385   0.582  0.3901 -0.0789 -0.0633
26623SOL    HW191847  10.262   9.422   0.654  1.0607 -0.3680  0.5750
26623SOL    HW291848  10.388   9.343   0.625 -0.0719 -1.7407 -0.7834
26624SOL     OW91849   1.019   4.490   9.715 -0.1265 -0.3867  0.4549
26624SOL    HW191850   1.037   4.584   9.714 -0.1680 -0.3741 -0.5680
26624SOL    HW291851   0.940   4.481   9.768  0.7847 -0.0398  1.9378
26625SOL     OW91852   3.393   2.378   8.172 -0.4884 -0.1248 -0.0180
26625SOL    HW191853   3.377   2.286   8.153  0.8945 -0.4239  0.1347
26625SOL    HW291854   3.410   2.380   8.267  0.8376  0.0448 -0.2335
26626SOL     OW91855   2.213   9.612  10.211  0.0086 -0.1466  0.2086
26626SOL    HW191856   2.159   9.669  10.264  0.0675 -1.1454  1.4065
26626SOL    HW291857   2.188   9.523  10.237  0.6447 -0.6624 -0.8280
26627SOL     OW91858   3.588   2.903   7.410  0.3363  0.4218  0.1188
26627SOL    HW191859   3.579   2.813   7.441  0.0585  0.3142 -0.2703
26627SOL    HW291860   3.674   2.906   7.369 -0.1950 -0.0460 -1.0956
26628SOL     OW91861  10.142   6.608   6.549  0.0717 -0.2815  0.2725
26628SOL    HW191862  10.055   6.580   6.521  1.0658 -4.4780  0.6483
26628SOL    HW291863  10.145   6.584   6.642  1.5195  0.0946  0.3393
26629SOL     OW91864   2.096   8.869   9.316 -0.0866 -0.6285  0.5590
26629SOL    HW191865   2.059   8.946   9.360 -0.6340 -0.8595  0.5069
26629SOL    HW291866   2.050   8.864   9.232  1.6552  0.4141 -0.5403
26630SOL     OW91867   5.026   4.121   0.694  0.0416  0.6709  0.1040
26630SOL    HW191868   5.070   4.132   0.610  0.1423 -0.8812 -0.0912
26630SOL    HW291869   4.944   4.170   0.685  0.4338  1.2180 -0.5811
26631SOL     OW91870   2.339  10.307   3.855 -0.1759  0.6559  0.1253
26631SOL    HW191871   2.350  10.343   3.768  1.1427  0.6648  0.2848
26631SOL    HW291872   2.369  10.217   3.848 -1.5098  0.1698  0.2282
26632SOL     OW91873   0.610   6.992   4.673 -0.3655 -0.3906 -0.3141
26632SOL    HW191874   0.569   7.079   4.665  0.2359 -0.1104 -0.3967
26632SOL    HW291875   0.546   6.932   4.635  0.0615  0.2555 -2.1865
26633SOL     OW91876   7.168   7.491   6.946  0.1314 -0.3492 -0.1124
26633SOL    HW191877   7.124   7.437   7.012  0.6164 -0.6464 -0.0271
26633SOL    HW291878   7.246   7.441   6.922  0.5315  0.2599 -0.1163
26634SOL     OW91879   9.966   5.106   2.320  0.4325  0.6642 -0.0170
26634SOL    HW191880   9.967   5.147   2.234 -0.4150  0.5586 -0.0853
26634SOL    HW291881   9.963   5.012   2.302  1.7570  0.5677  0.1404
26635SOL     OW91882   5.373   2.675   6.831 -0.1304  0.0526 -0.7832
26635SOL    HW191883   5.412   2.715   6.754 -2.8842  1.9058 -1.3562
26635SOL    HW291884   5.309   2.739   6.862 -0.9079 -1.7027  1.5715
26636SOL     OW91885   3.828   3.582   6.057 -0.2999  0.4242  0.2546
26636SOL    HW191886   3.918   3.569   6.026  0.4684 -0.9646  2.7415
26636SOL    HW291887   3.827   3.671   6.091  0.1986  0.3991  0.3460
26637SOL     OW91888   6.389   6.585   9.544  0.0523  0.0859  0.2494
26637SOL    HW191889   6.478   6.552   9.555 -0.1961 -0.0192  2.3962
26637SOL    HW291890   6.398   6.681   9.551  0.2625  0.3006 -2.0635
26638SOL     OW91891   3.117   6.499   6.922  0.0452  0.0620 -0.2197
26638SOL    HW191892   3.148   6.579   6.963  2.1534  0.2964 -2.1197
26638SOL    HW291893   3.098   6.441   6.996  2.7487  0.7888  1.1889
26639SOL     OW91894   1.603   2.761   7.712 -0.2557  0.1615  0.0070
26639SOL    HW191895   1.551   2.705   7.654  0.7545  1.3082 -2.1218
26639SOL    HW291896   1.600   2.848   7.670  0.2537  1.1267  1.8783
26640SOL     OW91897   7.231   5.760   4.809  0.1913 -0.3352  0.0491
26640SOL    HW191898   7.153   5.814   4.819  0.9364  0.7866 -0.0682
26640SOL    HW291899   7.237   5.713   4.892 -0.7492 -0.6535 -0.0417
26641SOL     OW91900   4.230   9.804   4.702  0.5641 -0.2478  0.2841
26641SOL    HW191901   4.148   9.850   4.719  1.1136  0.9174 -0.0939
26641SOL    HW291902   4.280   9.864   4.647  2.7090  0.2040  2.5489
26642SOL     OW91903   1.298   0.211   8.813  0.3886  0.0764 -0.0555
26642SOL    HW191904   1.285   0.301   8.783 -1.2961 -0.1614 -0.1484
26642SOL    HW291905   1.281   0.157   8.735  0.5782 -0.3562  0.1972
26643SOL     OW91906   4.054   7.407   5.923 -0.2685  0.6437  0.1575
26643SOL    HW191907   4.083   7.336   5.866  0.4959  1.8577 -0.9965
26643SOL    HW291908   4.080   7.487   5.878 -0.0175  1.6612  2.0066
26644SOL     OW91909   4.344   1.013   7.182  0.4113  0.2617  0.0299
26644SOL    HW191910   4.398   1.067   7.125  0.5359  1.6514  1.3966
26644SOL    HW291911   4.261   1.061   7.189  0.8169  0.7439  1.9262
26645SOL     OW91912   2.849   6.549   9.818 -0.0870  0.0234 -0.1315
26645SOL    HW191913   2.790   6.523   9.889  0.0003  0.0474 -0.0512
26645SOL    HW291914   2.804   6.622   9.775  0.5267  0.9631  0.7911
26646SOL     OW91915   2.438   6.785   2.747 -0.5059 -0.3423 -0.0341
26646SOL    HW191916   2.355   6.794   2.794 -0.1534  0.9686  0.3682
26646SOL    HW291917   2.500   6.839   2.796  0.5342 -1.0920 -0.4816
26647SOL     OW91918   3.881   8.756   4.226  1.0793  0.0966 -0.0821
26647SOL    HW191919   3.843   8.695   4.290  1.8460 -1.4217 -1.0084
26647SOL    HW291920   3.962   8.787   4.267  1.8051 -1.2248 -0.4489
26648SOL     OW91921   4.919   8.938   4.596  0.6591 -0.2003 -0.2194
26648SOL    HW191922   5.005   8.899   4.582 -0.2665 -2.4382 -0.0443
26648SOL    HW291923   4.920   8.967   4.687  0.6220 -1.9566  0.3729
26649SOL     OW91924   1.092   6.319   4.950 -0.1598 -0.0039 -0.2043
26649SOL    HW191925   1.181   6.314   4.985 -0.8119  0.1068  1.5511
26649SOL    HW291926   1.037   6.281   5.019 -1.4423 -0.4364 -1.4170
26650SOL     OW91927   9.375   0.333   8.626 -0.5438 -0.1089 -0.4175
26650SOL    HW191928   9.417   0.359   8.544  1.1198  1.4027  0.8625
26650SOL    HW291929   9.299   0.391   8.633  0.2710  0.9556 -0.0943
26651SOL     OW91930   7.407   3.087   7.334  0.0228 -0.2514 -0.0895
26651SOL    HW191931   7.357   3.049   7.263  2.1159 -0.9392 -1.2706
26651SOL    HW291932   7.360   3.167   7.357 -2.8147 -1.9544  0.4503
26652SOL     OW91933   4.939   3.269   5.926 -1.0364 -0.4634  0.7814
26652SOL    HW191934   4.853   3.294   5.890 -0.1116  2.9423  0.6630
26652SOL    HW291935   4.930   3.281   6.020 -0.0850  2.4369  0.5974
26653SOL     OW91936   6.696   9.090   8.117 -0.2546 -0.1915 -0.2312
26653SOL    HW191937   6.657   9.156   8.175 -0.8485  1.4084 -2.3451
26653SOL    HW291938   6.623   9.056   8.065  0.3660 -1.0833 -0.5549
26654SOL     OW91939  10.090   7.513   2.417  0.4877 -0.1154  0.4754
26654SOL    HW191940  10.116   7.605   2.414 -1.4964  0.4734 -1.0749
26654SOL    HW291941  10.032   7.507   2.493  0.0825  0.1103  0.1931
26655SOL     OW91942   8.181   1.421   4.832  0.0333 -0.4239 -0.5374
26655SOL    HW191943   8.251   1.356   4.846 -0.3743 -0.7542  0.0258
26655SOL    HW291944   8.125   1.381   4.766 -0.7546 -1.1056  0.5107
26656SOL     OW91945   2.133   9.949  10.155  0.1487  0.2207 -0.2287
26656SOL    HW191946   2.178  10.020  10.200 -0.3818 -0.2307  1.0626
26656SOL    HW291947   2.111   9.887  10.225 -0.8965 -0.4027 -1.0873
26657SOL     OW91948   3.293   9.861   0.071  0.1604  0.0322  0.1562
26657SOL    HW191949   3.370   9.804   0.070  0.7791  0.8204  1.0940
26657SOL    HW291950   3.328   9.950   0.065 -0.5843  0.4548  1.5795
26658SOL     OW91951   1.611   3.836   7.471 -0.4263 -0.2634 -0.3824
26658SOL    HW191952   1.535   3.791   7.509 -2.4633  2.8828 -0.3907
26658SOL    HW291953   1.603   3.821   7.376 -0.7633 -0.3569 -0.3397
26659SOL     OW91954   6.617   9.336   4.527  0.7864  0.3695  0.0027
26659SOL    HW191955   6.553   9.351   4.598  1.2938  2.9783  0.0183
26659SOL    HW291956   6.564   9.333   4.448  0.5321  1.5919  0.1089
26660SOL     OW91957   0.554   1.468   7.564 -0.9043  0.2223  0.0328
26660SOL    HW191958   0.523   1.380   7.581 -0.8059  0.1575 -0.1222
26660SOL    HW291959   0.633   1.456   7.511  0.5381  0.2978  2.0666
26661SOL     OW91960   2.441   0.350   9.033  0.1259 -0.0604 -0.5096
26661SOL    HW191961   2.395   0.309   9.106  0.6550  0.1856 -0.0345
26661SOL    HW291962   2.481   0.277   8.986  1.5940 -0.0779  0.6940
26662SOL     OW91963   7.466   4.447   6.001 -0.2620  0.4246 -0.5116
26662SOL    HW191964   7.522   4.440   5.924  2.9927 -0.1158  1.7243
26662SOL    HW291965   7.487   4.533   6.038 -1.6280  0.5942 -0.0587
26663SOL     OW91966   7.249   0.752   0.628 -0.2999  0.0937  0.3674
26663SOL    HW191967   7.293   0.740   0.712 -1.6682  0.6278  1.2055
26663SOL    HW291968   7.156   0.748   0.650 -0.7354 -2.1991 -1.5080
26664SOL     OW91969   4.142   6.733   0.330  0.7340  0.4565  0.0213
26664SOL    HW191970   4.052   6.755   0.307  0.2250 -0.7080  0.7889
26664SOL    HW291971   4.193   6.811   0.308 -0.3393  0.8640 -1.1117
26665SOL     OW91972   4.371   0.447   7.465 -0.7273 -0.8518 -0.3515
26665SOL    HW191973   4.442   0.459   7.403  0.6082 -0.3839  1.1956
26665SOL    HW291974   4.294   0.484   7.421 -0.3032 -2.3939 -2.5173
26666SOL     OW91975   2.584   1.471  10.280  0.6716 -0.0058 -0.2304
26666SOL    HW191976   2.631   1.402  10.233 -1.5636 -0.6966 -1.6341
26666SOL    HW291977   2.616   1.466  10.370  2.3146 -1.2384 -0.8404
26667SOL     OW91978   9.484   8.814   4.908 -0.1120 -0.2737 -0.0683
26667SOL    HW191979   9.428   8.796   4.833 -2.3642  3.9290  0.3154
26667SOL    HW291980   9.572   8.820   4.872 -0.6099 -1.8175 -1.6634
26668SOL     OW91981   0.301   6.584   0.417  0.0143 -0.4661 -0.0150
26668SOL    HW191982   0.334   6.666   0.380 -0.5643 -1.0988 -2.0660
26668SOL    HW291983   0.374   6.522   0.407 -0.2550 -0.7249 -0.3727
26669SOL     OW91984   3.538   5.519   6.722 -0.3190  0.1870 -0.5273
26669SOL    HW191985   3.514   5.596   6.774 -1.9722 -1.5108  1.3616
26669SOL    HW291986   3.556   5.451   6.786  1.0180 -1.0954 -2.1520
26670SOL     OW91987   9.326   0.910   6.867  0.1996 -0.2013  0.3877
26670SOL    HW191988   9.245   0.947   6.833  0.1420 -1.7078 -1.2554
26670SOL    HW291989   9.309   0.816   6.872  1.0108 -0.2945  2.4843
26671SOL     OW91990   2.523   0.563   8.569 -0.2972 -0.4955 -0.2475
26671SOL    HW191991   2.561   0.616   8.639 -1.5712  1.5069 -0.9869
26671SOL    HW291992   2.505   0.625   8.498 -2.1121 -1.8382 -1.0570
26672SOL     OW91993   2.535   8.162  10.152  0.2654  0.0089  0.1654
26672SOL    HW191994   2.506   8.251  10.173 -0.4318 -0.5080  1.5925
26672SOL    HW291995   2.499   8.108  10.224  3.0126 -1.0118  0.8875
26673SOL     OW91996   5.300   7.701   7.809  0.1963  0.4438  0.2353
26673SOL    HW191997   5.386   7.680   7.846  0.3337  1.9912  0.8691
26673SOL    HW291998   5.306   7.673   7.717  1.2911  0.3458  0.3225
26674SOL     OW91999   0.967   4.869   9.220  0.3919  0.4649 -0.1063
26674SOL    HW192000   1.041   4.834   9.169  0.7043 -0.7103  1.0955
26674SOL    HW292001   0.898   4.803   9.210  0.5683  0.0486  1.2043
26675SOL     OW92002   6.068   7.058   9.737  0.1543  0.3404 -0.3333
26675SOL    HW192003   6.087   6.984   9.794  1.0364  1.1233  0.4188
26675SOL    HW292004   6.137   7.056   9.671  1.6083  1.8237  1.0507
26676SOL     OW92005   0.558   5.643   8.478 -0.2118 -0.0294  0.3068
26676SOL    HW192006   0.514   5.660   8.395 -0.0958 -3.4150 -0.6016
26676SOL    HW292007   0.487   5.637   8.542 -0.5291  0.2982 -0.0118
26677SOL     OW92008   6.109   6.811   5.869 -0.0461 -0.0019  0.3135
26677SOL    HW192009   6.031   6.850   5.910 -0.4797 -0.0868 -0.4181
26677SOL    HW292010   6.177   6.817   5.937 -0.6752  0.1118  0.9486
26678SOL     OW92011   6.075   6.903   1.967 -0.3126 -0.1117  0.0261
26678SOL    HW192012   6.025   6.841   1.915  2.1621 -2.0178 -0.2589
26678SOL    HW292013   6.110   6.966   1.904 -0.6354  0.0190 -0.0277
26679SOL     OW92014   6.035   6.390  10.185 -0.2128 -0.0509  0.1430
26679SOL    HW192015   6.103   6.424  10.128 -0.1151  0.9199  0.8044
26679SOL    HW292016   6.073   6.395  10.273 -0.6820 -0.6809  0.3889
26680SOL     OW92017   7.139   0.337   5.016 -0.2476  0.1167  0.3091
26680SOL    HW192018   7.181   0.349   5.101  1.2351 -2.0335 -0.0504
26680SOL    HW292019   7.047   0.322   5.037  0.1271 -0.5523  1.5798
26681SOL     OW92020   1.473   0.743   5.939  0.1594 -0.3023 -0.0074
26681SOL    HW192021   1.434   0.673   5.991 -1.4994  1.4550  1.2619
26681SOL    HW292022   1.404   0.770   5.879  0.6747  0.4157 -0.2943
26682SOL     OW92023   6.442   4.552  10.283  0.3729  0.2161  0.0312
26682SOL    HW192024   6.459   4.565  10.190  1.5895 -1.2183  0.0003
26682SOL    HW292025   6.512   4.492  10.311 -2.1176 -2.5015  0.9887
26683SOL     OW92026   9.811   3.697   6.344 -0.5136 -0.3859 -0.4443
26683SOL    HW192027   9.865   3.776   6.340 -0.1584 -0.6128 -0.1780
26683SOL    HW292028   9.783   3.691   6.435 -0.5140 -0.5890 -0.4578
26684SOL     OW92029   3.949   5.453   1.483  0.2555  0.3343  0.0830
26684SOL    HW192030   3.933   5.545   1.506 -0.1888  0.0795  0.8395
26684SOL    HW292031   4.044   5.446   1.477  0.5899  0.0664  3.5895
26685SOL     OW92032   6.121   0.159   2.269 -0.2101  0.1299  0.8005
26685SOL    HW192033   6.126   0.153   2.364  1.9396  1.9685  0.9089
26685SOL    HW292034   6.182   0.230   2.247  1.3468 -1.9246 -2.1481
26686SOL     OW92035   5.273   0.864   0.412  0.6764 -0.3387 -0.3614
26686SOL    HW192036   5.333   0.935   0.436 -1.5480  1.7831 -0.7000
26686SOL    HW292037   5.257   0.817   0.493  0.1188  1.2506  0.4844
26687SOL     OW92038   5.850   6.035   2.525  0.3206  0.5730 -0.4739
26687SOL    HW192039   5.870   6.117   2.570 -0.5291 -0.0653  1.1466
26687SOL    HW292040   5.804   5.983   2.590 -0.2309 -0.7317 -1.8544
26688SOL     OW92041   5.526   0.789   9.856  0.0715 -0.0017 -0.1170
26688SOL    HW192042   5.508   0.779   9.763  0.0631 -3.1050  0.1112
26688SOL    HW292043   5.620   0.803   9.861 -0.2650  3.0695 -0.6469
26689SOL     OW92044   1.656   5.447   1.424  0.1180 -0.2973  0.6827
26689SOL    HW192045   1.730   5.387   1.411  0.2768 -0.0315  0.3401
26689SOL    HW292046   1.670   5.516   1.359 -0.1182  0.0565  1.0032
26690SOL     OW92047   6.328   5.821   3.541  0.0624  0.0940 -0.4107
26690SOL    HW192048   6.284   5.769   3.609  1.6614 -0.2593  0.3820
26690SOL    HW292049   6.421   5.817   3.563  0.5850  0.3851 -2.3409
26691SOL     OW92050   4.966   8.673   1.608 -0.1002 -0.5349 -0.7710
26691SOL    HW192051   4.876   8.671   1.643 -0.3723  2.6538 -0.9737
26691SOL    HW292052   5.021   8.650   1.683 -0.9986 -0.7045 -0.1387
26692SOL     OW92053   3.363   6.887   7.545  0.1118 -0.5105  0.1693
26692SOL    HW192054   3.404   6.936   7.474 -1.7089  1.3128  0.2762
26692SOL    HW292055   3.314   6.817   7.501  1.0876 -1.0231 -0.1360
26693SOL     OW92056   8.306   0.823   4.195 -0.6856  0.5732 -0.8624
26693SOL    HW192057   8.289   0.744   4.245  1.1466  1.0512  0.6200
26693SOL    HW292058   8.401   0.824   4.180 -0.6462  2.4623 -0.8356
26694SOL     OW92059   9.619   4.984   9.030  0.0067  0.1629  0.4484
26694SOL    HW192060   9.696   5.035   9.055  1.0095 -1.7365  1.4076
26694SOL    HW292061   9.596   5.017   8.943  1.8982  0.8061  0.1470
26695SOL     OW92062   3.735   1.915   5.301 -0.2314 -0.4554  0.1388
26695SOL    HW192063   3.664   1.913   5.236  0.4877  0.9782 -0.7414
26695SOL    HW292064   3.737   2.006   5.331  1.5714 -0.3449 -0.2466
26696SOL     OW92065   4.935   3.359   2.691 -0.2884  0.0701 -0.0443
26696SOL    HW192066   4.998   3.322   2.629 -0.3153  0.8414 -0.5427
26696SOL    HW292067   4.989   3.411   2.751 -0.3516  0.0037  0.0692
26697SOL     OW92068   7.227   2.674   6.950  0.7591  0.5801  0.2410
26697SOL    HW192069   7.180   2.731   6.889  0.0088 -0.3869 -0.1142
26697SOL    HW292070   7.299   2.638   6.899  0.1310 -0.2288 -0.0978
26698SOL     OW92071   4.844   4.363   8.605  0.8072 -0.1180  0.0730
26698SOL    HW192072   4.787   4.323   8.671  0.3177  1.4324  0.6353
26698SOL    HW292073   4.888   4.434   8.651 -0.4767  1.8354 -1.5041
26699SOL     OW92074   2.419   5.671   6.673 -0.3044  0.7868  0.2712
26699SOL    HW192075   2.490   5.611   6.652 -0.9568 -0.5323  1.6110
26699SOL    HW292076   2.407   5.724   6.594  0.2367 -0.9201 -1.0057
26700SOL     OW92077   7.195   7.246   7.365 -0.1490 -0.4857  0.2218
26700SOL    HW192078   7.266   7.182   7.359  0.3774 -0.0825  1.6639
26700SOL    HW292079   7.217   7.300   7.441 -0.2370  1.8459 -1.2920
26701SOL     OW92080   3.482   5.605   4.271  0.2784 -0.5989  0.1979
26701SOL    HW192081   3.509   5.664   4.341  0.5749 -0.7636  0.2230
26701SOL    HW292082   3.486   5.659   4.192 -0.5693 -0.2612  0.3698
26702SOL     OW92083   7.664   3.249   0.546 -0.2407  0.1694  0.4892
26702SOL    HW192084   7.577   3.218   0.570 -0.3651  1.3513  1.7069
26702SOL    HW292085   7.712   3.251   0.629  1.0534 -0.7270 -0.2019
26703SOL     OW92086   5.860   0.414   2.335 -0.8235 -0.1761 -0.5353
26703SOL    HW192087   5.906   0.401   2.252 -0.9654  0.5763 -0.7434
26703SOL    HW292088   5.839   0.326   2.365 -1.8395 -0.4348 -1.9170
26704SOL     OW92089   8.214   5.271   5.558 -0.3601  0.0740 -0.5010
26704SOL    HW192090   8.271   5.330   5.606  0.4162 -2.2804  1.6976
26704SOL    HW292091   8.177   5.213   5.624 -2.0329 -1.1472 -2.3731
26705SOL     OW92092   0.229   6.367   1.183  0.0145  0.1207  0.7439
26705SOL    HW192093   0.292   6.297   1.167  0.1854  0.6311 -1.1342
26705SOL    HW292094   0.283   6.447   1.182 -0.3255  0.3688  1.7355
26706SOL     OW92095   0.349   5.012   4.678 -0.2783 -0.6346  0.5430
26706SOL    HW192096   0.430   5.051   4.645 -0.0282  0.8958  2.7756
26706SOL    HW292097   0.375   4.962   4.755 -1.3837 -0.6777  0.9087
26707SOL     OW92098   1.247   8.883   3.969 -0.1004  0.3175  0.2695
26707SOL    HW192099   1.320   8.893   3.908 -1.0015  1.2019 -0.7114
26707SOL    HW292100   1.270   8.807   4.022  0.5852 -0.6761 -1.3824
26708SOL     OW92101   0.349   9.661   9.405 -0.6737 -0.2614  0.1843
26708SOL    HW192102   0.300   9.706   9.474  1.5953  2.0007  0.4681
26708SOL    HW292103   0.298   9.674   9.326 -2.5946 -1.6515  1.1234
26709SOL     OW92104   3.228   6.183   1.908 -0.4834  0.5608  0.1612
26709SOL    HW192105   3.143   6.209   1.945 -0.9364 -1.6600  0.8312
26709SOL    HW292106   3.207   6.147   1.822 -0.2642 -0.1178  0.3828
26710SOL     OW92107   4.382   0.003   5.880  0.4119  0.3786  0.8385
26710SOL    HW192108   4.347   0.074   5.826  1.6253  1.3346  1.2519
26710SOL    HW292109   4.331   0.006   5.960 -0.2311  0.0908  0.4491
26711SOL     OW92110   1.127   6.214   2.510  0.5028 -0.4801  0.0781
26711SOL    HW192111   1.147   6.225   2.417  0.4601 -0.7844  0.0311
26711SOL    HW292112   1.061   6.280   2.529 -1.5108 -2.1334 -0.7631
26712SOL     OW92113   4.521   3.838   8.548  0.0026 -0.0907  0.4003
26712SOL    HW192114   4.528   3.919   8.599  0.9377  0.1712 -0.1210
26712SOL    HW292115   4.560   3.860   8.463 -2.2277 -0.2875 -0.7460
26713SOL     OW92116   6.315   5.857   0.531  0.2179 -0.2491  0.6715
26713SOL    HW192117   6.344   5.860   0.622  1.0339  0.2290  0.4062
26713SOL    HW292118   6.390   5.888   0.480 -0.6456  0.7299 -0.0726
26714SOL     OW92119   2.300  10.006   2.425 -0.5380  0.4763 -0.0416
26714SOL    HW192120   2.329   9.925   2.467 -0.7003  1.0407  1.2173
26714SOL    HW292121   2.347  10.075   2.471  0.1733  1.0723 -1.6012
26715SOL     OW92122   9.316   2.837   4.540  0.2949 -0.1326 -0.2775
26715SOL    HW192123   9.285   2.757   4.582  0.0717  0.9250  1.7050
26715SOL    HW292124   9.267   2.841   4.457 -0.1734 -1.6882 -0.1068
26716SOL     OW92125   7.715  10.107   8.951  0.1454 -0.3866 -0.3195
26716SOL    HW192126   7.772  10.176   8.919  1.0311 -1.1273 -0.3603
26716SOL    HW292127   7.636  10.115   8.897  0.4072  0.3099 -0.6135
26717SOL     OW92128   2.225   7.797   2.126  0.6050  0.5227  0.0063
26717SOL    HW192129   2.182   7.783   2.042  0.4799  1.5405 -0.1111
26717SOL    HW292130   2.274   7.716   2.141  0.7207  0.3661 -1.1007
26718SOL     OW92131   4.499   1.504   0.190  0.5637  1.4365 -0.0335
26718SOL    HW192132   4.475   1.419   0.152  0.9149  1.3260 -0.0154
26718SOL    HW292133   4.552   1.481   0.267 -0.2139  1.6560  0.5811
26719SOL     OW92134   5.635   4.690   4.829 -0.1046  0.0453 -0.0103
26719SOL    HW192135   5.693   4.620   4.799 -0.5681  0.5968 -2.3994
26719SOL    HW292136   5.554   4.677   4.781 -1.2953  0.4801  1.7667
26720SOL     OW92137  10.331   8.193   1.371  0.2563  0.7395 -0.2623
26720SOL    HW192138  10.395   8.262   1.354 -0.0898  0.5692 -2.6193
26720SOL    HW292139  10.250   8.240   1.388 -0.0492  0.9888 -2.1671
26721SOL     OW92140   0.340   6.588   5.896  0.0725  0.2311  0.3224
26721SOL    HW192141   0.381   6.575   5.982 -0.3721 -1.2384  0.3347
26721SOL    HW292142   0.268   6.649   5.914  0.3741  0.4446  0.8609
26722SOL     OW92143   5.998   9.249   3.689  1.0154  0.2942 -0.0570
26722SOL    HW192144   6.052   9.323   3.663  0.1414  1.0029  0.0839
26722SOL    HW292145   6.001   9.248   3.785  2.0925 -0.6920 -0.0685
26723SOL     OW92146   3.842   8.220   1.778 -0.2961 -0.0550  0.5260
26723SOL    HW192147   3.789   8.262   1.709  0.7054  0.9143  0.3209
26723SOL    HW292148   3.849   8.286   1.846 -0.0668 -0.4921  0.9287
26724SOL     OW92149   6.731   9.547   6.104  0.1190 -0.5134  0.0046
26724SOL    HW192150   6.733   9.558   6.199  0.6301  0.5546 -0.1146
26724SOL    HW292151   6.642   9.515   6.085  0.5724 -2.5280  0.9873
26725SOL     OW92152  10.189   4.135   6.196  0.7026 -0.5287  0.4674
26725SOL    HW192153  10.171   4.055   6.146  0.6046  0.1351 -0.5856
26725SOL    HW292154  10.212   4.200   6.130 -0.9879  0.8272  1.1233
26726SOL     OW92155   8.936   9.813   3.129  0.0621 -0.2759  0.3068
26726SOL    HW192156   9.015   9.791   3.179 -1.0693  0.0076  2.2866
26726SOL    HW292157   8.864   9.796   3.189 -1.4777 -1.2299 -1.6898
26727SOL     OW92158   1.814   8.814   6.970  0.4585  0.4058 -0.7927
26727SOL    HW192159   1.852   8.752   6.908  1.2896  1.2664 -1.1644
26727SOL    HW292160   1.857   8.898   6.951  1.3827  0.5339  1.4944
26728SOL     OW92161   2.208   9.729   8.089  0.5459 -0.4288 -0.5050
26728SOL    HW192162   2.131   9.673   8.098 -0.0330  0.5646  1.2686
26728SOL    HW292163   2.270   9.677   8.039 -0.9232 -1.6304 -1.1464
26729SOL     OW92164   6.228   6.443   9.976 -0.1577  0.4235  0.1320
26729SOL    HW192165   6.317   6.464  10.004  0.3178 -1.1606 -0.1157
26729SOL    HW292166   6.228   6.460   9.882 -0.4779  1.5340  0.3162
26730SOL     OW92167   7.455   2.840   7.493  0.2376  0.4815 -0.1431
26730SOL    HW192168   7.522   2.815   7.429  2.1008  1.1080  1.4693
26730SOL    HW292169   7.482   2.927   7.523 -1.2296  0.6800  0.6909
26731SOL     OW92170  10.212   4.416   3.944  0.1577 -0.7791 -0.2068
26731SOL    HW192171  10.259   4.382   3.868 -1.6881 -1.7323 -0.9780
26731SOL    HW292172  10.170   4.496   3.912  0.5686 -0.3762  0.2437
26732SOL     OW92173   9.938   0.685   4.528 -0.0486 -0.6803 -0.0749
26732SOL    HW192174   9.964   0.611   4.583 -0.8240 -0.1241  1.0830
26732SOL    HW292175   9.982   0.761   4.567 -0.8820 -0.2252  0.0026
26733SOL     OW92176   9.288   0.656   1.291 -0.2522 -0.2364  0.5173
26733SOL    HW192177   9.349   0.724   1.320  1.0345 -0.6616 -1.0109
26733SOL    HW292178   9.307   0.646   1.198 -0.9973 -2.0855  0.5280
26734SOL     OW92179   1.565   8.444   2.916 -0.0161  0.3296 -1.3025
26734SOL    HW192180   1.652   8.472   2.944 -0.0350 -0.9027  0.1358
26734SOL    HW292181   1.559   8.471   2.825  2.5393 -1.0205 -1.9520
26735SOL     OW92182   9.900   7.351   1.913  0.5332  0.0582 -0.0768
26735SOL    HW192183   9.866   7.405   1.985 -2.0681 -0.5546 -0.7381
26735SOL    HW292184   9.895   7.409   1.836 -0.5124 -0.5149 -0.4546
26736SOL     OW92185  10.351   3.560   0.724 -0.0349 -0.1080 -0.1681
26736SOL    HW192186  10.412   3.573   0.651 -0.6473  2.4517 -0.3230
26736SOL    HW292187  10.269   3.536   0.681  0.3053 -1.5541 -0.0771
26737SOL     OW92188   4.418   8.527   1.760  0.1837  0.0673 -0.2157
26737SOL    HW192189   4.372   8.584   1.822 -0.3521  0.8185 -1.2751
26737SOL    HW292190   4.355   8.514   1.689  1.7491  1.5840 -1.9815
26738SOL     OW92191   3.833   2.440   6.857 -0.0816 -0.8630  0.3554
26738SOL    HW192192   3.787   2.420   6.776  1.4153 -2.6038 -0.1265
26738SOL    HW292193   3.763   2.452   6.922 -1.2521 -1.6562 -0.7083
26739SOL     OW92194   5.146   9.141   0.994 -0.4673  0.3749 -0.0420
26739SOL    HW192195   5.157   9.231   1.026 -0.5963  0.2848  0.2583
26739SOL    HW292196   5.060   9.115   1.026  0.4987 -0.6709  1.8646
26740SOL     OW92197   3.558   9.426   4.181  0.0913 -0.0593 -0.0124
26740SOL    HW192198   3.535   9.512   4.218  0.5475 -0.2337  0.6960
26740SOL    HW292199   3.651   9.416   4.202  0.4087 -0.1105 -1.3331
26741SOL     OW92200   3.405  10.109   7.336  0.5752 -0.1281  0.4345
26741SOL    HW192201   3.311  10.100   7.319  0.6727 -0.3474 -0.0052
26741SOL    HW292202   3.440  10.021   7.327  0.9195  0.0476 -0.0040
26742SOL     OW92203   2.745   5.885   3.387 -0.1254  0.1744  0.0121
26742SOL    HW192204   2.785   5.798   3.390  0.2443  0.2538 -1.6299
26742SOL    HW292205   2.716   5.901   3.476  0.8366 -1.1518  0.5983
26743SOL     OW92206   7.726   6.280   6.970  0.0738  0.4083  0.3719
26743SOL    HW192207   7.654   6.252   6.914  0.9463  0.1925 -0.6687
26743SOL    HW292208   7.796   6.217   6.954  0.0767 -0.1790  2.3582
26744SOL     OW92209   7.180   5.909   3.697 -0.0439  0.1670  0.1924
26744SOL    HW192210   7.121   5.844   3.734  1.3223 -1.3508 -0.1837
26744SOL    HW292211   7.216   5.868   3.619  1.5343  0.9890  0.4241
26745SOL     OW92212   0.699   0.604   2.616 -0.0522 -0.1779  0.3251
26745SOL    HW192213   0.658   0.590   2.531 -0.9735  0.6882  0.6034
26745SOL    HW292214   0.760   0.676   2.603  1.1548 -1.2202  0.0003
26746SOL     OW92215   5.364   4.204   2.547  0.3472 -0.0738  0.4513
26746SOL    HW192216   5.302   4.272   2.520  1.3678  0.7126  0.0310
26746SOL    HW292217   5.450   4.244   2.534  0.9528 -1.2920  0.6394
26747SOL     OW92218   9.878   6.187   5.011  0.0324  0.1928 -0.0295
26747SOL    HW192219   9.788   6.166   5.036 -0.7103  0.3962 -2.3071
26747SOL    HW292220   9.896   6.271   5.053 -0.9351  0.2772  0.2439
26748SOL     OW92221   2.777   1.416   0.911  0.0295 -0.3869  0.2583
26748SOL    HW192222   2.782   1.495   0.965  2.3100 -0.9334  0.9494
26748SOL    HW292223   2.849   1.426   0.848 -0.7342 -1.1351 -0.7736
26749SOL     OW92224   8.037   1.910   5.679 -0.6581 -0.1261  0.6747
26749SOL    HW192225   7.986   1.909   5.598 -1.8178 -0.8083  1.3805
26749SOL    HW292226   8.045   1.817   5.703  0.9634 -0.0337  0.5700
26750SOL     OW92227   0.388   9.232   8.867 -0.5833  0.1982  0.2914
26750SOL    HW192228   0.397   9.261   8.957 -0.9781  1.8139 -0.1639
26750SOL    HW292229   0.456   9.280   8.819 -1.1787  0.3125 -0.4676
26751SOL     OW92230   7.804   7.919   0.554  0.7919 -0.1510  0.2257
26751SOL    HW192231   7.844   7.835   0.577  1.8453  0.4557  0.6464
26751SOL    HW292232   7.783   7.959   0.638 -1.0984 -0.6037  0.0336
26752SOL     OW92233   7.103   6.686   7.321 -0.1143  0.1656 -0.2283
26752SOL    HW192234   7.174   6.641   7.275  0.2662  0.7167 -0.1910
26752SOL    HW292235   7.032   6.691   7.257 -0.5971 -1.4962  0.1212
26753SOL     OW92236   5.409   7.635   0.372 -0.1157  0.0908  0.1312
26753SOL    HW192237   5.368   7.587   0.444  0.8206 -1.9823 -0.6185
26753SOL    HW292238   5.503   7.628   0.390  0.0718  2.6824  0.5605
26754SOL     OW92239   3.150   6.772   8.244  0.3644 -0.4254 -0.3597
26754SOL    HW192240   3.063   6.736   8.260  0.4558  0.2025  1.9189
26754SOL    HW292241   3.134   6.855   8.200  0.0587 -1.9971 -3.4930
26755SOL     OW92242   2.092   1.352   4.551 -0.5673  0.1234  0.2283
26755SOL    HW192243   2.129   1.369   4.464 -0.6151  2.1737  0.5539
26755SOL    HW292244   2.011   1.304   4.533  0.7547 -1.8951 -0.6551
26756SOL     OW92245   6.470   9.174   5.903  0.3741 -0.5606  0.1665
26756SOL    HW192246   6.419   9.230   5.844 -1.1255 -0.2362  1.7040
26756SOL    HW292247   6.549   9.225   5.921  0.2210 -0.0737 -0.4842
26757SOL     OW92248   7.556   1.575   9.030  0.6454 -0.3835 -0.0238
26757SOL    HW192249   7.558   1.480   9.015  0.7742 -0.1565 -1.5259
26757SOL    HW292250   7.632   1.592   9.085 -0.5953 -1.4262  2.1632
26758SOL     OW92251   3.983   0.210   3.257  0.4641  0.2654 -0.3816
26758SOL    HW192252   4.078   0.223   3.260  0.4796  0.3189 -1.0081
26758SOL    HW292253   3.946   0.296   3.276  0.5112 -0.1176  1.6847
26759SOL     OW92254   6.955   7.443   3.463 -0.8419  0.2450  0.4167
26759SOL    HW192255   6.870   7.473   3.430  0.1095  1.1523 -1.3193
26759SOL    HW292256   7.001   7.523   3.488 -0.0352 -0.1421  0.1786
26760SOL     OW92257   5.021   1.077   7.358 -0.2922 -0.0007  0.7001
26760SOL    HW192258   5.025   1.116   7.446  0.5555  1.4145  0.0727
26760SOL    HW292259   5.019   0.983   7.374 -1.6078  0.2542  2.2700
26761SOL     OW92260   3.344   6.355   5.742  0.4199  0.4668  0.6848
26761SOL    HW192261   3.284   6.424   5.771 -0.0463  0.7364 -0.8576
26761SOL    HW292262   3.315   6.333   5.654  0.3171 -1.9978  1.2584
26762SOL     OW92263   5.386   0.033   0.486  0.4446  0.0966  0.5232
26762SOL    HW192264   5.387   0.000   0.576  0.6502 -2.7661 -0.4151
26762SOL    HW292265   5.478   0.035   0.460  0.6056  3.0972  0.9925
26763SOL     OW92266   7.846   5.565   9.799  0.4155  0.9027  0.1749
26763SOL    HW192267   7.852   5.473   9.826  2.5888  0.8817 -0.1800
26763SOL    HW292268   7.898   5.569   9.718  0.1520  2.3913  0.0521
26764SOL     OW92269   3.923   0.760   8.617  0.1977 -0.4425 -0.5918
26764SOL    HW192270   3.870   0.740   8.540 -1.9401 -1.4660  0.9951
26764SOL    HW292271   4.013   0.740   8.592 -0.6551 -2.5286 -2.2588
26765SOL     OW92272   1.156   0.280   9.075 -0.3677  0.1726 -0.5864
26765SOL    HW192273   1.174   0.371   9.098  2.6934 -0.5958  0.6337
26765SOL    HW292274   1.186   0.272   8.984  1.5317 -0.0468  0.0127
26766SOL     OW92275   3.009   8.626   6.836  0.2481 -0.9815 -0.0031
26766SOL    HW192276   2.942   8.584   6.782 -1.0819 -0.2674  1.0442
26766SOL    HW292277   2.962   8.657   6.913  1.8105 -0.5256  0.8016
26767SOL     OW92278   3.650   6.775   4.024  0.3434  0.7058  0.1169
26767SOL    HW192279   3.591   6.732   4.086  2.5321  0.0730  1.8986
26767SOL    HW292280   3.612   6.862   4.011 -0.9178  0.3681  1.3034
26768SOL     OW92281   6.342   5.703   1.049 -0.3860 -0.3680 -0.0537
26768SOL    HW192282   6.433   5.691   1.075 -0.1643  0.3917 -0.4541
26768SOL    HW292283   6.305   5.615   1.050  0.0995 -0.5809  1.0210
26769SOL     OW92284   9.188   8.256   0.233  0.3194 -0.1343  0.1328
26769SOL    HW192285   9.214   8.346   0.254 -2.4487  0.8663 -0.3278
26769SOL    HW292286   9.137   8.227   0.309 -1.2134 -0.1995 -0.8674
26770SOL     OW92287   0.491   6.305   1.467  0.3122  0.7344 -0.5347
26770SOL    HW192288   0.532   6.387   1.438 -1.1010  1.1317 -1.5430
26770SOL    HW292289   0.534   6.284   1.550  1.8708  1.5942 -1.0806
26771SOL     OW92290   8.235   5.987   9.412 -0.1057 -0.3854 -0.7010
26771SOL    HW192291   8.199   5.962   9.327  0.5467  1.6346 -1.6294
26771SOL    HW292292   8.160   5.988   9.471 -0.8956 -0.0119 -1.6939
26772SOL     OW92293  10.379   3.374   9.257 -0.0943 -0.7326  0.2961
26772SOL    HW192294  10.434   3.298   9.241  0.0940 -1.0201  2.0531
26772SOL    HW292295  10.427   3.425   9.322 -0.5144  0.5777 -0.3809
26773SOL     OW92296   5.743   0.991   3.977 -0.4516 -0.2291 -0.1643
26773SOL    HW192297   5.776   0.976   3.888 -2.5645  0.8438 -1.1945
26773SOL    HW292298   5.653   0.959   3.976 -0.6973  0.2881  1.4517
26774SOL     OW92299   9.024   8.774   6.573 -0.0042 -0.3454 -0.0992
26774SOL    HW192300   9.079   8.779   6.651  0.3568 -3.0973 -0.0796
26774SOL    HW292301   9.086   8.781   6.499 -0.0367 -0.1930 -0.1120
26775SOL     OW92302   3.891   2.603   6.409  0.6137  0.0028 -0.5113
26775SOL    HW192303   3.847   2.525   6.443  0.7565  0.0800 -0.1426
26775SOL    HW292304   3.934   2.641   6.486  1.0824  0.0847 -0.8127
26776SOL     OW92305   1.754   8.441   3.367 -0.0685  0.7957 -0.0124
26776SOL    HW192306   1.683   8.504   3.366 -0.1849  0.6597 -0.3353
26776SOL    HW292307   1.734   8.381   3.295 -0.6411 -0.3614  1.0762
26777SOL     OW92308   9.973   0.742   9.775  0.1009  0.2617 -0.0923
26777SOL    HW192309   9.933   0.658   9.799  2.9577 -1.2128  0.0162
26777SOL    HW292310   9.935   0.805   9.836 -2.4081 -0.8341 -0.4182
26778SOL     OW92311   7.687   5.153   6.023 -0.3270  0.0072 -0.2918
26778SOL    HW192312   7.774   5.138   5.986  0.4763 -0.3007  1.5924
26778SOL    HW292313   7.628   5.103   5.967  0.6513  0.4548 -1.7724
26779SOL     OW92314   6.723   6.563   3.894  0.1736  0.0315 -0.2175
26779SOL    HW192315   6.790   6.588   3.829  0.1020 -1.6984 -0.9974
26779SOL    HW292316   6.771   6.517   3.962  0.3105  2.2071  1.2552
26780SOL     OW92317   2.937   3.334   6.715 -0.1920  0.3368 -0.3784
26780SOL    HW192318   2.928   3.266   6.782 -0.8573 -0.4999 -1.2981
26780SOL    HW292319   2.860   3.388   6.726 -1.3869 -1.0022 -1.7655
26781SOL     OW92320   1.836   6.797   0.460 -0.8229  0.3214 -0.1827
26781SOL    HW192321   1.842   6.704   0.439 -3.4319  0.2858 -1.1578
26781SOL    HW292322   1.747   6.822   0.434 -0.2610  3.0597  0.1844
26782SOL     OW92323   9.366   2.032   6.491  0.1121  0.0238 -0.0695
26782SOL    HW192324   9.407   1.975   6.557 -0.4479  0.5652  0.7554
26782SOL    HW292325   9.436   2.048   6.428  0.8871  0.0831  0.7703
26783SOL     OW92326   2.273   6.503   9.366  0.1856 -0.3920  0.0097
26783SOL    HW192327   2.238   6.415   9.377 -0.8009  0.1878  2.1204
26783SOL    HW292328   2.200   6.561   9.390  1.0770  0.9791 -0.4546
26784SOL     OW92329   8.588   8.789   5.002 -0.8172 -0.7601  0.6665
26784SOL    HW192330   8.628   8.702   4.998  3.8236  1.0675  0.4974
26784SOL    HW292331   8.615   8.824   5.087 -1.7852  0.8074  0.3613
26785SOL     OW92332   9.720   3.872   4.425  0.1540  0.5800 -0.2695
26785SOL    HW192333   9.627   3.848   4.418  0.4359 -1.1318  1.1909
26785SOL    HW292334   9.749   3.880   4.334 -0.9723 -0.8560 -0.8042
26786SOL     OW92335   2.881   2.173   9.262 -0.8010 -0.1237  0.6463
26786SOL    HW192336   2.951   2.217   9.309 -0.8796  0.0800  0.5711
26786SOL    HW292337   2.867   2.226   9.184  3.0175 -3.1811 -2.5471
26787SOL     OW92338   6.526   1.512   7.747 -0.1734  0.3207  0.0569
26787SOL    HW192339   6.607   1.547   7.783  0.4181 -0.1945 -0.7510
26787SOL    HW292340   6.469   1.588   7.738  0.8026  0.9734 -0.9225
26788SOL     OW92341   8.608   2.690   6.004  0.5805 -0.7523 -0.2547
26788SOL    HW192342   8.599   2.707   6.097  1.0727 -0.9141 -0.1730
26788SOL    HW292343   8.584   2.598   5.994  1.3318 -0.9712 -0.1520
26789SOL     OW92344   9.576   5.457   2.092 -0.6403 -0.2233 -0.8815
26789SOL    HW192345   9.584   5.371   2.051  1.4859 -0.0863 -0.8849
26789SOL    HW292346   9.664   5.476   2.125 -1.7697  0.5068  2.0933
26790SOL     OW92347   1.390   7.433  10.329  0.6187  0.0634  0.2715
26790SOL    HW192348   1.322   7.500  10.321  0.7312  0.0431 -1.0218
26790SOL    HW292349   1.466   7.470  10.284  1.5311  0.1406  1.7996
26791SOL     OW92350   4.450   5.675   8.293  0.7549  0.3193  0.1942
26791SOL    HW192351   4.450   5.769   8.309 -1.6109  0.3195  0.4819
26791SOL    HW292352   4.478   5.666   8.202 -0.2364  1.4086 -0.2425
26792SOL     OW92353   2.342   2.388   8.510  0.6226  0.2382 -0.1596
26792SOL    HW192354   2.248   2.405   8.523  0.4254 -0.8840  0.0129
26792SOL    HW292355   2.358   2.408   8.418 -0.0242 -0.5254 -0.4509
26793SOL     OW92356   4.312   4.711   5.608  0.2421  0.0871  0.3625
26793SOL    HW192357   4.273   4.713   5.520  0.6020 -1.7905  0.1106
26793SOL    HW292358   4.405   4.725   5.593  0.0793  1.5845  0.6544
26794SOL     OW92359   9.254   5.024  10.009 -0.7759  1.0407 -0.0320
26794SOL    HW192360   9.191   5.063   9.948 -1.4196  0.5818  0.3251
26794SOL    HW292361   9.199   4.980  10.075 -0.0872 -0.3300 -0.3418
26795SOL     OW92362   6.397   6.754   7.558  0.2636  0.2224 -0.6658
26795SOL    HW192363   6.310   6.716   7.543 -0.0137  1.0963 -1.3657
26795SOL    HW292364   6.454   6.678   7.572 -0.7393 -0.3393  0.6079
26796SOL     OW92365   4.647   9.722   2.924  0.4514 -0.1101  0.1729
26796SOL    HW192366   4.656   9.796   2.984  2.4668 -0.7035  0.6686
26796SOL    HW292367   4.597   9.757   2.851 -0.5725  1.1107  1.3993
26797SOL     OW92368   9.932   0.847   7.141  0.0768  0.6471 -0.0380
26797SOL    HW192369   9.932   0.927   7.194 -0.9301  2.3709 -2.4824
26797SOL    HW292370   9.930   0.878   7.050 -1.3312 -2.1532 -1.0772
26798SOL     OW92371   6.038   4.055   3.102 -0.1172  1.0033 -0.0376
26798SOL    HW192372   6.081   3.974   3.130 -0.9187  1.4490  2.8302
26798SOL    HW292373   5.950   4.049   3.139 -0.8302  2.3735 -1.3982
26799SOL     OW92374   2.450   5.473   2.298  0.3791 -0.1773  0.5854
26799SOL    HW192375   2.538   5.436   2.308  0.5300  0.0403  0.0508
26799SOL    HW292376   2.464   5.567   2.289  0.0511 -0.0835  1.0330
26800SOL     OW92377   0.475   2.648   4.799  0.1300 -0.0995  0.3923
26800SOL    HW192378   0.495   2.586   4.728 -1.2341  0.9596 -0.9867
26800SOL    HW292379   0.386   2.626   4.826  1.4858 -2.2218  3.7384
26801SOL     OW92380   9.938   9.437   0.836 -0.1367  0.4751 -0.4443
26801SOL    HW192381   9.886   9.490   0.897  0.5940  0.6634  0.0198
26801SOL    HW292382   9.887   9.357   0.825  0.4766 -0.2683  1.6733
26802SOL     OW92383   8.329   1.140   2.768  0.1527 -0.1596  0.6965
26802SOL    HW192384   8.292   1.064   2.813 -0.1533 -0.6624 -0.3956
26802SOL    HW292385   8.387   1.180   2.834 -0.7209 -0.5438  1.7266
26803SOL     OW92386   2.106   5.455   8.728 -0.2548 -0.4542  0.3628
26803SOL    HW192387   2.033   5.395   8.711  0.7412 -1.1014 -2.0236
26803SOL    HW292388   2.182   5.412   8.690  1.2046  0.7348  1.7701
26804SOL     OW92389  10.112   3.289   4.545 -0.1598  0.4682 -0.0777
26804SOL    HW192390  10.072   3.203   4.552 -0.7563  0.7255 -0.2551
26804SOL    HW292391  10.127   3.301   4.451 -1.6835  1.2591 -0.2564
26805SOL     OW92392   2.172   4.160   9.733 -0.1647  0.0690 -0.0716
26805SOL    HW192393   2.266   4.147   9.724 -0.3109 -1.4992  0.3005
26805SOL    HW292394   2.135   4.124   9.652 -0.4924 -0.0173  0.1153
26806SOL     OW92395   3.533   1.920   9.676  0.0216  0.4123 -1.2749
26806SOL    HW192396   3.558   1.831   9.653 -1.9360  0.1223 -2.4980
26806SOL    HW292397   3.440   1.914   9.700 -0.1616  2.1250 -1.4055
26807SOL     OW92398   9.827   1.221   4.573 -0.3539  0.6346 -0.1841
26807SOL    HW192399   9.810   1.129   4.552 -0.3553  0.1128  1.9395
26807SOL    HW292400   9.761   1.244   4.638 -0.2801  2.1264 -0.5908
26808SOL     OW92401   1.612   2.084   5.583  0.4193  0.0129 -0.6852
26808SOL    HW192402   1.703   2.080   5.612  0.8360 -2.7621 -2.0296
26808SOL    HW292403   1.561   2.095   5.664  1.8798  0.4803  0.1953
26809SOL     OW92404   0.405   0.760   5.679  0.1117  0.0240  0.7125
26809SOL    HW192405   0.493   0.781   5.649 -0.0274 -0.2112  0.1150
26809SOL    HW292406   0.409   0.768   5.774  1.4200 -2.3023  0.9307
26810SOL     OW92407   2.537   8.677   5.292 -0.0797  0.2072  0.4118
26810SOL    HW192408   2.551   8.740   5.221  0.2437 -1.0964 -0.7163
26810SOL    HW292409   2.624   8.662   5.329  0.1025 -0.7374 -0.3607
26811SOL     OW92410   4.732   3.133   8.745 -0.4958 -0.5046 -0.4246
26811SOL    HW192411   4.817   3.132   8.788  0.3317 -0.8396 -2.0088
26811SOL    HW292412   4.695   3.218   8.767  1.2121  0.5727 -1.4704
26812SOL     OW92413   1.264   1.508   8.917 -0.2470  0.4330  0.0415
26812SOL    HW192414   1.175   1.541   8.908 -0.1379  0.7841  0.2517
26812SOL    HW292415   1.314   1.554   8.849  0.2943  2.0973  1.5074
26813SOL     OW92416   5.848   7.670   0.602 -0.4685 -0.2867  0.1777
26813SOL    HW192417   5.846   7.601   0.668 -3.4185 -0.4789  0.0300
26813SOL    HW292418   5.910   7.734   0.636 -0.1212 -1.4865  1.9504
26814SOL     OW92419   7.557   6.043   6.954  0.0095  0.1838  0.2879
26814SOL    HW192420   7.589   6.047   7.045 -0.4805 -3.1088  0.7129
26814SOL    HW292421   7.597   5.964   6.918 -1.9532 -0.0762 -1.4807
26815SOL     OW92422   2.858   7.582   5.309  0.5134  0.1569 -0.0799
26815SOL    HW192423   2.818   7.626   5.234  0.4015 -2.3730 -1.6127
26815SOL    HW292424   2.802   7.507   5.326  0.7614  0.4451  2.3472
26816SOL     OW92425   0.261   8.084   8.006  0.7932  0.4841  0.5428
26816SOL    HW192426   0.292   8.084   8.096 -1.3245  0.9624  1.3309
26816SOL    HW292427   0.205   8.007   7.999  1.2875  0.1944 -0.5254
26817SOL     OW92428  10.391   3.352   0.232 -0.0385 -0.2972  0.4844
26817SOL    HW192429  10.304   3.344   0.193  0.1065 -0.1649  0.1338
26817SOL    HW292430  10.448   3.302   0.174  0.1691 -0.1386  0.5526
26818SOL     OW92431   0.869   7.109  10.365 -0.1692 -0.9207  0.1589
26818SOL    HW192432   0.827   7.111  10.279  0.5325  2.0307 -0.2261
26818SOL    HW292433   0.826   7.179  10.414  1.5700 -0.4578  1.1089
26819SOL     OW92434   2.545   8.222   3.324  0.0460 -0.1320  0.3377
26819SOL    HW192435   2.590   8.168   3.389  0.9711  0.7884  0.4782
26819SOL    HW292436   2.606   8.227   3.251 -0.8896 -0.9568 -0.5185
26820SOL     OW92437   2.476   4.701   1.321  0.6499  0.2796 -0.5131
26820SOL    HW192438   2.487   4.627   1.261 -1.0528  1.0983 -1.9304
26820SOL    HW292439   2.515   4.775   1.275 -0.2297  0.8196 -0.4191
26821SOL     OW92440   9.464   0.634   4.913 -0.1380 -0.7358 -0.0889
26821SOL    HW192441   9.380   0.664   4.879 -0.9435 -1.5135  1.1137
26821SOL    HW292442   9.502   0.581   4.842 -0.2369  0.3284 -0.9580
26822SOL     OW92443   1.642   0.709   5.131 -0.0750  0.4308 -0.0646
26822SOL    HW192444   1.609   0.642   5.191  0.5457  1.5245  1.5486
26822SOL    HW292445   1.736   0.710   5.146  0.1483  0.4989 -1.3389
26823SOL     OW92446   1.398   3.257   3.290  0.0516 -0.2454 -0.2491
26823SOL    HW192447   1.303   3.247   3.283  0.2741 -2.1063 -1.1473
26823SOL    HW292448   1.431   3.227   3.205  1.4795  0.0489  0.1795
26824SOL     OW92449   8.116   1.218   3.562 -0.2708 -0.2751 -0.2823
26824SOL    HW192450   8.105   1.276   3.638 -0.2975 -1.4915  0.6816
26824SOL    HW292451   8.158   1.272   3.496  1.5093  0.3279  1.2584
26825SOL     OW92452   0.098   5.647   1.846  0.0879 -0.4422  0.6003
26825SOL    HW192453   0.069   5.737   1.858  1.1861  0.3311 -1.8180
26825SOL    HW292454   0.142   5.624   1.928 -0.2106  1.2162  1.2665
26826SOL     OW92455   8.879   7.741   9.333 -0.6083 -0.2155 -0.1430
26826SOL    HW192456   8.846   7.758   9.244 -1.3203  2.1862  0.4859
26826SOL    HW292457   8.968   7.776   9.331 -0.4115 -0.7205 -0.0815
26827SOL     OW92458   7.708  10.298   5.264  0.3394  0.2901 -0.2404
26827SOL    HW192459   7.663  10.246   5.331 -1.0753  2.1013  0.2859
26827SOL    HW292460   7.789  10.326   5.307 -0.9212  2.1108  1.0957
26828SOL     OW92461   7.628   3.808   9.571  0.1880 -0.2834 -0.1151
26828SOL    HW192462   7.690   3.823   9.499  0.3386  1.2502  0.3029
26828SOL    HW292463   7.545   3.790   9.527  0.0627  1.5797 -0.7067
26829SOL     OW92464   9.008   7.810   6.867  0.7176 -0.1626  0.9004
26829SOL    HW192465   9.084   7.773   6.912 -0.1716 -0.9385  1.8329
26829SOL    HW292466   8.941   7.742   6.875 -0.2234  0.7023  0.5401
26830SOL     OW92467   8.334   0.563   2.762 -0.8827  0.0226  0.7060
26830SOL    HW192468   8.340   0.472   2.731  0.4808  0.3362 -0.0244
26830SOL    HW292469   8.324   0.555   2.856 -0.1396 -0.8978  0.7293
26831SOL     OW92470   1.482   5.594   7.633  0.6700 -0.1865  0.3528
26831SOL    HW192471   1.473   5.687   7.653 -0.5344 -0.2859  0.3577
26831SOL    HW292472   1.513   5.591   7.542 -1.6862  0.2472 -0.5409
26832SOL     OW92473   6.699   7.575   3.283 -0.7397 -0.3929 -0.1132
26832SOL    HW192474   6.737   7.656   3.318 -0.5224 -0.0435 -1.1264
26832SOL    HW292475   6.625   7.605   3.230 -1.1311 -0.9230  0.1290
26833SOL     OW92476   7.929   2.051   3.266 -0.4679 -0.7331  0.1250
26833SOL    HW192477   8.008   2.003   3.289  0.6729  1.6762  1.5532
26833SOL    HW292478   7.873   2.046   3.343  0.4054  1.5445  0.9945
26834SOL     OW92479  10.369   0.961   8.984 -0.4441 -0.7642 -0.4398
26834SOL    HW192480  10.335   0.965   8.895 -0.9172 -2.8571 -0.4131
26834SOL    HW292481  10.291   0.966   9.040 -0.0444  2.1019 -0.0202
26835SOL     OW92482   7.688   3.984   3.446 -0.3804  0.5778  0.2413
26835SOL    HW192483   7.745   4.035   3.504 -0.3004 -0.6757  1.3330
26835SOL    HW292484   7.627   3.941   3.505  0.7198 -2.0358 -0.3816
26836SOL     OW92485   2.638   9.344   7.460 -0.2511  0.3660 -0.0863
26836SOL    HW192486   2.619   9.257   7.497  1.9187  0.6170  1.8388
26836SOL    HW292487   2.674   9.326   7.374 -0.4745 -0.5979  0.0068
26837SOL     OW92488   2.634   9.701   0.377  0.0493  0.2601 -0.0308
26837SOL    HW192489   2.707   9.643   0.398  0.3118  0.0698 -1.3817
26837SOL    HW292490   2.659   9.786   0.413  0.1217 -0.2092  1.0651
26838SOL     OW92491   3.902   1.607   4.175  0.1869  0.0114  0.4606
26838SOL    HW192492   3.846   1.531   4.191  2.6388 -1.6992  1.3983
26838SOL    HW292493   3.875   1.639   4.089 -0.7166 -2.0735 -0.0948
26839SOL     OW92494   9.701   9.130   8.065 -0.0812  0.1778 -0.6683
26839SOL    HW192495   9.714   9.220   8.037  0.3504  0.3451  0.0374
26839SOL    HW292496   9.790   9.095   8.073 -0.1378  0.3339  1.0884
26840SOL     OW92497   2.462   2.638   4.013  0.5542 -0.3509 -0.5154
26840SOL    HW192498   2.395   2.581   4.051 -0.1012  0.7020 -0.0322
26840SOL    HW292499   2.423   2.668   3.930 -0.3640  1.6179  0.5597
26841SOL     OW92500   8.365   8.119   2.630 -0.5937  0.0335 -0.0572
26841SOL    HW192501   8.344   8.154   2.544 -1.0537 -0.4632 -0.1501
26841SOL    HW292502   8.456   8.092   2.624 -1.1819 -1.8769 -1.0255
26842SOL     OW92503   5.848   5.610   3.208 -0.0603  0.2107  0.2111
26842SOL    HW192504   5.932   5.639   3.241  0.1319 -1.4038  1.2399
26842SOL    HW292505   5.843   5.518   3.231 -2.8821  0.6519  1.8524
26843SOL     OW92506   7.163  10.303  10.265 -0.3896  0.0204 -0.0788
26843SOL    HW192507   7.131  10.361  10.196 -2.5690  0.6728  1.3743
26843SOL    HW292508   7.201  10.362  10.330 -2.5542 -0.0633  1.3724
26844SOL     OW92509   8.519   7.893   2.263  1.0793 -0.4699 -0.1272
26844SOL    HW192510   8.461   7.907   2.189 -1.7431  2.0227  2.3024
26844SOL    HW292511   8.517   7.799   2.279  0.0045 -0.7661 -1.8236
26845SOL     OW92512   4.975   6.023   9.224  0.5204 -0.8553 -0.1422
26845SOL    HW192513   4.921   6.062   9.155 -1.1451 -1.4050  0.7879
26845SOL    HW292514   5.035   6.094   9.250 -0.0359 -0.0744 -0.9121
26846SOL     OW92515   3.449   1.513   4.075  0.2142 -0.0989 -0.2965
26846SOL    HW192516   3.460   1.422   4.103 -1.5140  0.3136  2.0200
26846SOL    HW292517   3.404   1.555   4.148 -0.7718  2.1688 -2.0931
26847SOL     OW92518   0.663   8.131   2.871 -0.4217  0.2122  0.1408
26847SOL    HW192519   0.713   8.146   2.792 -1.5621 -0.3206 -0.7074
26847SOL    HW292520   0.695   8.047   2.904 -1.5319 -0.7221 -1.0521
26848SOL     OW92521   1.416   5.435   0.446  0.2630 -0.5699 -0.7091
26848SOL    HW192522   1.345   5.498   0.456  0.5643  0.0292 -2.1062
26848SOL    HW292523   1.452   5.425   0.534 -0.3738  0.5103 -0.3050
26849SOL     OW92524   8.650   7.843   3.035 -0.1425  0.0855 -0.0710
26849SOL    HW192525   8.575   7.819   3.089  0.8738 -0.6114  1.0906
26849SOL    HW292526   8.670   7.933   3.060 -0.5255  0.2359 -0.3053
26850SOL     OW92527   5.965   2.743   4.062  0.1475 -0.4982 -1.0565
26850SOL    HW192528   5.999   2.674   4.119 -2.0180 -1.1048 -0.3671
26850SOL    HW292529   5.930   2.809   4.122 -0.6226 -0.3244 -1.6742
26851SOL     OW92530   7.665   9.696  10.177  0.0754  0.6274  0.4847
26851SOL    HW192531   7.698   9.783  10.154 -1.6239  1.5608  1.3646
26851SOL    HW292532   7.664   9.695  10.273 -0.3179 -0.2145  0.4847
26852SOL     OW92533   8.718   2.654   2.275  0.1990 -0.2044  0.1457
26852SOL    HW192534   8.746   2.565   2.297 -0.3226 -0.2471  0.6532
26852SOL    HW292535   8.732   2.704   2.355  0.7596  0.2439 -0.2252
26853SOL     OW92536   2.351   4.484   4.513  0.3119 -0.3034 -0.2539
26853SOL    HW192537   2.363   4.544   4.586 -1.9807  0.0425 -0.0919
26853SOL    HW292538   2.275   4.431   4.537 -0.4284 -0.2786 -2.3089
26854SOL     OW92539  10.015   1.527   6.642  0.1861  0.6465 -0.3016
26854SOL    HW192540  10.019   1.449   6.587 -0.6735  1.9511 -2.3282
26854SOL    HW292541  10.107   1.550   6.657  0.4727 -1.2299  1.1129
26855SOL     OW92542   7.227   2.608   4.755  0.0289 -0.3245 -0.4157
26855SOL    HW192543   7.183   2.676   4.806  0.0105  0.0913 -0.9859
26855SOL    HW292544   7.156   2.568   4.704  0.2462  0.0742 -1.0292
26856SOL     OW92545   1.467   1.905   3.628  0.4295  0.1009 -0.3335
26856SOL    HW192546   1.437   1.893   3.538 -0.9269  0.9283 -0.0167
26856SOL    HW292547   1.477   2.000   3.637  0.8634 -0.0016  0.2907
26857SOL     OW92548   5.484   8.700   8.608 -0.1117 -0.4811  0.5919
26857SOL    HW192549   5.394   8.709   8.577 -0.1665  0.3185  0.9531
26857SOL    HW292550   5.488   8.611   8.643 -0.9939 -0.2810  1.2624
26858SOL     OW92551   7.960   7.200   6.146  0.3370  0.0343  0.3443
26858SOL    HW192552   8.034   7.145   6.121  0.0655 -0.3900  0.4513
26858SOL    HW292553   7.946   7.258   6.071  0.4211 -0.2689  0.0930
26859SOL     OW92554   7.665   7.787  10.236 -0.1874 -0.1540 -0.5194
26859SOL    HW192555   7.613   7.867  10.244 -1.2789 -0.8694 -0.2028
26859SOL    HW292556   7.606   7.717  10.263  1.0720 -0.9704  0.2312
26860SOL     OW92557   2.796   7.899   9.466  0.6426  0.3645 -0.2741
26860SOL    HW192558   2.860   7.940   9.408 -0.1188  0.9636 -0.7127
26860SOL    HW292559   2.747   7.973   9.504  1.8600  0.0851  2.0533
26861SOL     OW92560   5.232   0.509   8.926  0.0935  0.9040  0.7968
26861SOL    HW192561   5.291   0.583   8.943 -0.8114  2.1170 -0.9458
26861SOL    HW292562   5.249   0.486   8.835 -2.7463  1.9664 -0.1036
26862SOL     OW92563   0.833   6.321   8.656 -0.1559 -0.0791 -0.0201
26862SOL    HW192564   0.878   6.376   8.591 -1.5416  0.6051 -0.4276
26862SOL    HW292565   0.832   6.374   8.736 -0.6993  0.1328 -0.1631
26863SOL     OW92566   4.446   1.259   2.617  0.6275  0.1075  0.3310
26863SOL    HW192567   4.366   1.310   2.628 -0.4602 -1.5612  0.6383
26863SOL    HW292568   4.512   1.306   2.667 -1.3770 -1.0425  4.5378
26864SOL     OW92569   6.262   6.963   6.064 -0.0707 -0.2706  0.1003
26864SOL    HW192570   6.309   7.047   6.060  0.6288 -0.6617  0.0454
26864SOL    HW292571   6.204   6.971   6.140 -0.8269  0.6835 -0.5449
26865SOL     OW92572   8.656   5.237   5.271 -0.1843  0.1474  0.0892
26865SOL    HW192573   8.746   5.229   5.238 -0.6382 -2.8484 -0.7772
26865SOL    HW292574   8.657   5.314   5.327  2.9659  0.1278  0.2126
26866SOL     OW92575   4.871   2.309   7.058  0.0859  0.0148  0.3415
26866SOL    HW192576   4.791   2.315   7.006  1.4005  0.3457 -1.7487
26866SOL    HW292577   4.921   2.238   7.018  0.7069 -0.4496  1.8546
26867SOL     OW92578   7.218   3.068   7.624 -0.8232  0.0875  0.4484
26867SOL    HW192579   7.281   3.112   7.680 -1.0737  0.3157  0.5505
26867SOL    HW292580   7.262   3.061   7.539 -0.6131  0.1337  0.5543
26868SOL     OW92581   3.094   1.166   5.154 -0.1962  0.0964 -0.0125
26868SOL    HW192582   3.146   1.157   5.074 -1.3613  2.5659 -1.1480
26868SOL    HW292583   3.157   1.149   5.224  1.9245  1.8372 -1.3522
26869SOL     OW92584   4.263   1.513   6.013 -0.1664 -0.2592  0.8002
26869SOL    HW192585   4.228   1.559   6.089 -0.3352 -0.9135  1.1240
26869SOL    HW292586   4.234   1.565   5.938  2.9086  2.4392  1.2458
26870SOL     OW92587   7.478   1.381   1.363  0.8121 -0.1085  0.4037
26870SOL    HW192588   7.399   1.418   1.403  1.5186 -1.4189  3.2271
26870SOL    HW292589   7.446   1.307   1.311  0.0562  0.3556  0.1832
26871SOL     OW92590   8.436   1.905   7.026 -0.4377  0.2149 -0.2373
26871SOL    HW192591   8.349   1.896   7.064 -0.6516  0.4908 -0.6519
26871SOL    HW292592   8.447   1.828   6.970 -0.8560  0.7059 -1.0253
26872SOL     OW92593   9.914   7.661   7.817  0.3169 -0.1064 -0.4884
26872SOL    HW192594   9.986   7.718   7.844 -1.7967  2.1233  0.8385
26872SOL    HW292595   9.867   7.642   7.898 -1.2209 -0.5432 -1.4408
26873SOL     OW92596   2.865   8.932   2.312  0.3833 -0.1448  0.0428
26873SOL    HW192597   2.951   8.904   2.281  0.0950 -1.2095  0.1574
26873SOL    HW292598   2.855   8.890   2.397 -0.3088 -0.1737 -0.0443
26874SOL     OW92599   4.019   7.480   0.856 -0.4179 -0.3733 -0.2681
26874SOL    HW192600   3.968   7.556   0.880  1.2881  0.6357  0.3278
26874SOL    HW292601   3.963   7.432   0.795 -1.3454  1.5939 -1.0403
26875SOL     OW92602   2.352   2.280   7.795 -0.0072  0.5403 -0.0605
26875SOL    HW192603   2.422   2.222   7.765 -0.0017  0.4733  0.0832
26875SOL    HW292604   2.273   2.246   7.752  0.0625  0.6687 -0.2914
26876SOL     OW92605   0.719   4.337   1.310 -0.0382 -0.3391  0.2532
26876SOL    HW192606   0.742   4.347   1.403 -0.1233  2.0972  0.0856
26876SOL    HW292607   0.630   4.371   1.304  0.7270  1.6177 -1.0232
26877SOL     OW92608   2.846   3.450   1.030 -0.2659  0.0942 -0.1030
26877SOL    HW192609   2.849   3.538   1.070  0.8499  0.5585 -1.1344
26877SOL    HW292610   2.808   3.394   1.098 -0.7164  1.3182  0.6870
26878SOL     OW92611   8.027   8.621   6.770  0.0179 -0.4129 -0.3060
26878SOL    HW192612   7.937   8.626   6.802  0.6129 -0.2805  1.4430
26878SOL    HW292613   8.029   8.681   6.695 -1.0328  0.5405  0.3959
26879SOL     OW92614   9.323   3.602   9.310 -0.2682  0.5073  0.0224
26879SOL    HW192615   9.288   3.690   9.296  2.3314  1.5755 -0.3641
26879SOL    HW292616   9.308   3.556   9.228  2.1708  2.0730 -1.4100
26880SOL     OW92617   8.869   9.493   8.760  0.5301  0.3626 -0.1511
26880SOL    HW192618   8.849   9.446   8.678  0.8359  3.0752 -1.8984
26880SOL    HW292619   8.783   9.518   8.794  0.4579  1.0003 -0.7804
26881SOL     OW92620   2.173   8.694   6.135  0.2747 -0.2197 -0.0097
26881SOL    HW192621   2.238   8.650   6.081 -0.7297  0.7757 -2.1692
26881SOL    HW292622   2.094   8.697   6.080 -1.0614  0.1705  1.8343
26882SOL     OW92623   6.605   1.804   7.583 -0.0997  0.2104  0.1167
26882SOL    HW192624   6.569   1.889   7.609 -0.0891 -0.0447  1.0143
26882SOL    HW292625   6.537   1.765   7.527  0.5866  1.4785 -1.6814
26883SOL     OW92626   8.577   0.425   6.264  0.0711 -0.6300 -1.1908
26883SOL    HW192627   8.540   0.500   6.218  0.7314  0.6670  0.3025
26883SOL    HW292628   8.617   0.462   6.343 -0.6319 -2.6998  0.2260
26884SOL     OW92629   4.149   6.369   8.613  0.2367 -0.3731  0.2176
26884SOL    HW192630   4.160   6.274   8.605 -1.6489 -0.5058 -1.7637
26884SOL    HW292631   4.168   6.402   8.525  0.1195  0.9966  0.6946
26885SOL     OW92632   3.890   8.203   2.917  0.0147 -0.1211 -0.2720
26885SOL    HW192633   3.912   8.289   2.952 -0.5183  0.1721 -0.6472
26885SOL    HW292634   3.909   8.142   2.989  0.5399  0.2873 -0.0598
26886SOL     OW92635  10.144   0.293   6.776 -0.2612  0.0363 -0.0949
26886SOL    HW192636  10.160   0.360   6.710  0.3085  0.4397  0.4433
26886SOL    HW292637  10.049   0.295   6.789 -0.4477 -0.3910 -1.2446
26887SOL     OW92638   6.632   9.006   0.903  0.0565 -0.6185 -0.2067
26887SOL    HW192639   6.566   8.938   0.891 -0.7899 -0.1098  1.3149
26887SOL    HW292640   6.643   9.045   0.816 -1.0260 -1.2641 -0.6484
26888SOL     OW92641   8.146   0.706   7.518  0.0946  0.4377  0.1896
26888SOL    HW192642   8.096   0.788   7.521  0.2176  0.5536 -0.6912
26888SOL    HW292643   8.218   0.719   7.579  1.0908  1.6455 -1.2044
26889SOL     OW92644   9.915   7.000   3.616 -0.6338 -0.0285 -0.3505
26889SOL    HW192645   9.855   7.015   3.689 -1.0989 -0.4470 -0.6441
26889SOL    HW292646   9.984   7.065   3.628  0.6187 -1.6161  1.8920
26890SOL     OW92647   9.108   0.950   8.249  0.1347  0.0452  0.8118
26890SOL    HW192648   9.039   1.016   8.245  1.5714  1.5916  0.3155
26890SOL    HW292649   9.156   0.960   8.167 -0.5501 -2.7632 -0.0278
26891SOL     OW92650   0.272   6.138   5.978 -0.4846 -0.0771 -0.1076
26891SOL    HW192651   0.211   6.064   5.978  0.0290 -0.5008  0.4609
26891SOL    HW292652   0.353   6.104   6.015 -0.1432  0.6940 -0.1133
26892SOL     OW92653  10.327   8.805   0.110 -0.3571  0.2662 -0.0484
26892SOL    HW192654  10.389   8.767   0.173 -0.3817  2.1331  1.1653
26892SOL    HW292655  10.383   8.836   0.039 -0.3323 -1.8856 -1.0626
26893SOL     OW92656   3.364   6.233   7.531  0.0619 -0.3562 -0.4557
26893SOL    HW192657   3.286   6.279   7.562  0.0884  0.2909 -1.3162
26893SOL    HW292658   3.378   6.267   7.443  0.3933 -1.6416 -0.9160
26894SOL     OW92659   0.327   4.174   6.689  0.2587  0.0747  0.0973
26894SOL    HW192660   0.377   4.114   6.743  3.1836  1.0878 -1.2710
26894SOL    HW292661   0.308   4.248   6.747  0.7888 -0.1093  0.5141
26895SOL     OW92662   9.877   7.832  10.056  0.0324  0.0807 -0.3607
26895SOL    HW192663   9.842   7.744  10.048  0.6626 -0.1840 -0.2865
26895SOL    HW292664   9.821   7.886  10.000  1.2206 -0.8134 -2.4956
26896SOL     OW92665   7.013   4.187   7.791 -0.5710  0.4743  0.4646
26896SOL    HW192666   7.036   4.219   7.704  0.2719 -1.0871  0.0753
26896SOL    HW292667   7.069   4.237   7.851 -1.0937  1.4924  0.1257
26897SOL     OW92668   9.509   9.523   4.637  0.0572  0.3346 -0.4874
26897SOL    HW192669   9.486   9.527   4.544 -0.3448 -0.3127 -0.4243
26897SOL    HW292670   9.504   9.614   4.667 -1.0144  0.4034 -0.8283
26898SOL     OW92671   3.008   7.035   7.522  0.0883  0.4696 -0.3152
26898SOL    HW192672   3.001   6.959   7.580  0.0681  0.8029  0.1167
26898SOL    HW292673   3.037   6.998   7.438  0.6361  0.0608  0.0520
26899SOL     OW92674   1.284   8.450   0.526 -0.0122  0.6887  0.1363
26899SOL    HW192675   1.360   8.507   0.539 -0.7330  1.6386  0.3089
26899SOL    HW292676   1.240   8.448   0.611 -1.7043  2.4474 -0.6122
26900SOL     OW92677   5.906   0.735   5.229  0.0012  0.0447 -0.2601
26900SOL    HW192678   5.981   0.726   5.288  0.5197  1.6486 -0.6070
26900SOL    HW292679   5.837   0.682   5.269 -0.0738  2.0239  2.5242
26901SOL     OW92680   8.981   0.499   6.498 -0.4995 -0.1088  0.3759
26901SOL    HW192681   9.012   0.574   6.548  0.8216 -0.0262 -0.5435
26901SOL    HW292682   8.887   0.515   6.486 -0.1060  1.7740 -0.4326
26902SOL     OW92683   3.679   2.255   7.195  0.1700  0.5424 -0.2054
26902SOL    HW192684   3.744   2.184   7.197 -2.3800 -1.9436  2.2565
26902SOL    HW292685   3.643   2.251   7.107  2.7144  1.5513 -1.4173
26903SOL     OW92686   4.474   2.949   6.295 -0.7374  0.3336  0.4246
26903SOL    HW192687   4.564   2.936   6.326  0.1738 -1.3547 -2.5053
26903SOL    HW292688   4.425   2.877   6.334 -0.6959  0.8398  1.4537
26904SOL     OW92689   1.607   4.013   0.942 -0.6141  0.3710 -0.0160
26904SOL    HW192690   1.700   4.016   0.921 -0.5542  0.6123  0.2856
26904SOL    HW292691   1.599   4.059   1.026 -0.8014 -0.8763  0.6792
26905SOL     OW92692   8.329   1.810  10.113 -0.8632 -0.0079  0.1449
26905SOL    HW192693   8.246   1.817  10.066 -1.3675  1.4260  1.1642
26905SOL    HW292694   8.383   1.879  10.076 -0.7395  0.1620  0.6377
26906SOL     OW92695   6.791   1.661   7.773 -0.0959 -0.3241  0.0629
26906SOL    HW192696   6.873   1.611   7.770 -0.1841 -0.4539 -0.2924
26906SOL    HW292697   6.791   1.709   7.690 -0.0941  0.1344  0.3292
26907SOL     OW92698   6.134   5.762   7.832  0.2451  0.0192 -0.6218
26907SOL    HW192699   6.165   5.687   7.780  0.7706 -1.2359  1.3873
26907SOL    HW292700   6.052   5.732   7.870 -0.5463  1.2231 -1.2880
26908SOL     OW92701   5.235  10.331   5.326  0.6843 -0.0507  0.0207
26908SOL    HW192702   5.267  10.372   5.407  1.3552 -0.0894 -0.2241
26908SOL    HW292703   5.196  10.249   5.355 -0.2499  0.5248  0.4618
26909SOL     OW92704   3.971   0.779   2.306 -0.0333 -0.6373 -0.2029
26909SOL    HW192705   3.884   0.762   2.343 -0.4550  0.2283 -0.7743
26909SOL    HW292706   3.968   0.741   2.218  0.0454 -0.2929 -0.3562
26910SOL     OW92707   1.690   5.269   9.129 -0.4344 -0.3883  0.3515
26910SOL    HW192708   1.689   5.183   9.171 -3.7634 -0.0640  1.2168
26910SOL    HW292709   1.671   5.251   9.037 -0.8036 -0.6310  0.4703
26911SOL     OW92710   5.221   4.498   9.022  0.3495  0.2096  0.7930
26911SOL    HW192711   5.275   4.422   9.043  0.0056 -0.1775  0.3099
26911SOL    HW292712   5.284   4.565   8.994  0.5121 -1.2952 -3.1109
26912SOL     OW92713   0.966   8.390   5.968 -0.3043  0.0462 -0.0738
26912SOL    HW192714   1.060   8.382   5.950  0.3660 -1.0592  3.1720
26912SOL    HW292715   0.923   8.360   5.888  2.1370 -1.4550 -0.9404
26913SOL     OW92716   3.093   8.937   2.505 -0.0403  0.1250  0.1546
26913SOL    HW192717   3.073   8.863   2.449  2.2565  0.4009 -1.1440
26913SOL    HW292718   3.119   9.007   2.445 -0.8611  1.5971  1.4085
26914SOL     OW92719   8.335   4.410   4.131  0.6040  0.1359 -0.4123
26914SOL    HW192720   8.339   4.394   4.037  0.8181  1.1764 -0.5935
26914SOL    HW292721   8.424   4.433   4.156  0.1196  2.3319 -0.4570
26915SOL     OW92722   9.179   8.304   8.984 -0.8603 -0.1892 -0.2478
26915SOL    HW192723   9.131   8.319   9.066  0.5936  1.2649  0.3960
26915SOL    HW292724   9.237   8.379   8.976  0.1052 -1.0476 -1.8658
26916SOL     OW92725   8.540   7.492   0.631  0.6151 -1.0498 -0.2537
26916SOL    HW192726   8.564   7.582   0.612 -0.7967 -0.2861  1.3224
26916SOL    HW292727   8.617   7.455   0.673  1.4486 -0.8266 -1.5226
26917SOL     OW92728   9.068   5.086   9.810  0.2725  0.1512  0.4160
26917SOL    HW192729   9.011   5.025   9.857  0.8306 -0.3412  0.4558
26917SOL    HW292730   9.096   5.038   9.732 -1.0425  1.1266 -0.7101
26918SOL     OW92731   5.812   3.019   7.532 -0.4428 -0.1135  0.6614
26918SOL    HW192732   5.762   3.023   7.613 -1.2816 -0.7959  0.1997
26918SOL    HW292733   5.904   3.026   7.559 -0.7515  0.5346  1.5800
26919SOL     OW92734   5.303   4.918  10.138  0.0046 -0.2512 -0.2133
26919SOL    HW192735   5.212   4.899  10.114 -0.2422  1.0029 -0.3497
26919SOL    HW292736   5.329   4.845  10.193 -1.2859 -0.3433  0.3098
26920SOL     OW92737   2.614   5.885   4.886  0.4345 -0.1482 -0.4414
26920SOL    HW192738   2.695   5.869   4.934 -0.1970 -0.7771  0.4423
26920SOL    HW292739   2.580   5.798   4.866 -0.3368  0.0991 -0.2448
26921SOL     OW92740   7.521   9.947   5.804 -0.1785 -0.2747 -0.7007
26921SOL    HW192741   7.500   9.871   5.859 -2.3983  0.1393 -0.8979
26921SOL    HW292742   7.600   9.983   5.843  0.4293 -2.1651 -0.0648
26922SOL     OW92743   3.022   9.854   8.235  0.3814  0.5583  0.6610
26922SOL    HW192744   3.009   9.928   8.175  0.3502  0.7085  0.8531
26922SOL    HW292745   2.936   9.839   8.273 -0.6204 -2.0382 -2.1810
26923SOL     OW92746   1.486   7.838   9.254 -0.1878 -0.0915  0.0477
26923SOL    HW192747   1.573   7.840   9.293  0.5924 -1.7392 -1.4639
26923SOL    HW292748   1.473   7.927   9.221  0.1522  0.6477  1.7962
26924SOL     OW92749   5.989   5.356   7.801 -0.3227  0.1663  0.4443
26924SOL    HW192750   6.030   5.333   7.717  0.4608 -0.7722  1.0606
26924SOL    HW292751   5.966   5.449   7.791  0.8900  0.4166 -0.3667
26925SOL     OW92752   1.986   2.964   4.938  0.0583  0.4595 -0.1716
26925SOL    HW192753   2.072   2.927   4.919  0.6494  0.7968  1.6959
26925SOL    HW292754   1.929   2.888   4.952  0.7552  0.1999  1.4553
26926SOL     OW92755   4.442   0.398  10.330  0.2411 -0.0394  0.4331
26926SOL    HW192756   4.521   0.344  10.336 -0.3007 -0.8428  0.5375
26926SOL    HW292757   4.428   0.409  10.236  0.0596 -0.5352  0.3995
26927SOL     OW92758   6.025   9.490   3.392  0.2016  0.9062 -0.4535
26927SOL    HW192759   6.040   9.560   3.328 -0.3735  2.3831  0.9648
26927SOL    HW292760   6.098   9.498   3.454 -0.8197  1.4446  0.7149
26928SOL     OW92761   9.446   0.375   1.876 -0.1388 -0.4593 -0.1942
26928SOL    HW192762   9.449   0.280   1.863  0.4767 -0.5300  0.4081
26928SOL    HW292763   9.500   0.390   1.953 -0.0461  0.4139 -0.4223
26929SOL     OW92764   9.800   8.883   1.899  0.0591  0.1519 -0.4479
26929SOL    HW192765   9.776   8.957   1.843 -0.1855 -1.2279 -2.2194
26929SOL    HW292766   9.718   8.856   1.940 -0.7057 -1.6304 -2.9344
26930SOL     OW92767   2.876   3.314   5.976 -0.0654  0.4790  0.2869
26930SOL    HW192768   2.940   3.322   6.047 -0.0900  0.8942  0.2674
26930SOL    HW292769   2.891   3.227   5.939  0.4437  0.5476  0.3274
26931SOL     OW92770   0.757   9.166   2.544  0.1201 -0.4071  0.0940
26931SOL    HW192771   0.680   9.119   2.512 -0.2406  0.4168 -0.2842
26931SOL    HW292772   0.797   9.201   2.465 -0.7950  1.6763  0.4945
26932SOL     OW92773   9.846   3.250   0.665 -0.6181  0.0193  0.2115
26932SOL    HW192774   9.773   3.277   0.610 -1.1772 -0.2814  0.7923
26932SOL    HW292775   9.870   3.329   0.714  1.1098  0.8188 -1.7567
26933SOL     OW92776   4.788   6.505   8.390 -0.0808 -0.2048  0.9215
26933SOL    HW192777   4.832   6.538   8.311 -1.4610 -0.5297 -0.0331
26933SOL    HW292778   4.787   6.579   8.450 -0.1782  0.4723  0.1076
26934SOL     OW92779   8.684   2.612   0.596 -0.4427  0.1574 -0.3557
26934SOL    HW192780   8.627   2.611   0.519 -1.6678  1.5637  0.4849
26934SOL    HW292781   8.736   2.691   0.586 -0.1033 -0.0286 -0.0828
26935SOL     OW92782   0.362   9.595   3.267 -0.2836 -0.0837 -0.6284
26935SOL    HW192783   0.422   9.666   3.291 -1.1427  0.5503 -0.3159
26935SOL    HW292784   0.288   9.640   3.226 -1.6128 -0.6209  1.0666
26936SOL     OW92785   6.920   8.326   6.913 -0.5571  0.7134 -0.5076
26936SOL    HW192786   6.908   8.268   6.839 -0.9462 -1.0555  0.8679
26936SOL    HW292787   6.971   8.399   6.879 -0.1670 -0.3635 -2.3418
26937SOL     OW92788   9.330   1.630   0.187  1.1973  0.2317 -0.4422
26937SOL    HW192789   9.395   1.564   0.213  0.6670  0.0527  0.4911
26937SOL    HW292790   9.353   1.708   0.238 -0.3742 -0.3854  1.3561
26938SOL     OW92791   1.674   3.963   1.229 -0.6216 -0.2087  0.0414
26938SOL    HW192792   1.625   3.908   1.289 -0.2883 -0.6334 -0.0692
26938SOL    HW292793   1.723   3.901   1.174  0.2870  0.2087  0.3617
26939SOL     OW92794   9.177   1.086   0.818  0.6890 -0.1355 -0.4676
26939SOL    HW192795   9.114   1.138   0.867  1.6762 -0.7663  1.5500
26939SOL    HW292796   9.231   1.043   0.884  0.1053 -3.5952 -1.9957
26940SOL     OW92797   0.847   9.332   3.655 -0.5810  0.2274 -0.3807
26940SOL    HW192798   0.873   9.346   3.564 -0.3045  1.1172 -0.1753
26940SOL    HW292799   0.901   9.258   3.683 -0.4348  0.1534 -0.8393
26941SOL     OW92800   2.548   4.881   5.498  0.0313 -0.3291  0.6566
26941SOL    HW192801   2.617   4.826   5.463 -0.2067 -0.3484  0.2029
26941SOL    HW292802   2.476   4.821   5.518 -0.7309 -0.0651 -1.0850
26942SOL     OW92803   2.485   4.991   9.966  0.1412 -0.0826 -0.7531
26942SOL    HW192804   2.464   5.039  10.046  0.6517 -1.5111  0.2840
26942SOL    HW292805   2.576   5.014   9.948  0.3124 -0.4476 -0.3865
26943SOL     OW92806   1.511   9.100   7.753  0.1225 -0.3935 -0.3205
26943SOL    HW192807   1.439   9.162   7.747 -0.3773 -1.1126 -2.3905
26943SOL    HW292808   1.511   9.073   7.845 -0.9649  1.0955  0.1557
26944SOL     OW92809   1.087   1.930   5.292  0.0916  0.2801  0.1057
26944SOL    HW192810   1.079   2.014   5.245 -1.4794 -0.0278 -0.2621
26944SOL    HW292811   1.060   1.950   5.381 -3.9299 -0.4223 -0.7551
26945SOL     OW92812   7.693   8.406   8.144 -0.1159 -0.0578 -0.2044
26945SOL    HW192813   7.750   8.360   8.205  0.4631 -0.6529 -1.1722
26945SOL    HW292814   7.647   8.336   8.098 -0.8624  0.3963 -0.1613
26946SOL     OW92815   7.929   3.873   5.831  0.1055 -0.0994 -0.0701
26946SOL    HW192816   7.991   3.802   5.811 -0.3979 -0.2230 -1.2775
26946SOL    HW292817   7.844   3.830   5.835 -0.2095  0.4291 -0.8732
26947SOL     OW92818  10.258   4.293   1.767 -0.1523  0.5030 -0.1652
26947SOL    HW192819  10.245   4.346   1.846 -2.7045  0.0676 -0.1824
26947SOL    HW292820  10.226   4.348   1.696 -1.8776 -0.6047 -0.3098
26948SOL     OW92821  10.315   8.045   5.548 -0.0752  0.2759  0.3752
26948SOL    HW192822  10.316   8.128   5.500  0.4181  0.1805  0.2201
26948SOL    HW292823  10.359   8.066   5.631  1.3637 -0.1795 -0.2514
26949SOL     OW92824  10.371   6.721   1.716  0.1743  0.6099 -0.2082
26949SOL    HW192825  10.464   6.702   1.730  0.3832  1.5624 -0.2668
26949SOL    HW292826  10.337   6.739   1.804  0.2199  1.0314 -0.2767
26950SOL     OW92827   4.028   1.540   6.322  0.5005  0.2689 -0.6006
26950SOL    HW192828   4.087   1.608   6.290  2.0662  0.0403  1.6354
26950SOL    HW292829   3.968   1.586   6.381  1.3824 -0.1989  0.6928
26951SOL     OW92830   2.686   5.546   3.243  0.1637  0.2624 -0.3256
26951SOL    HW192831   2.761   5.495   3.272  1.3504  0.5998 -2.5866
26951SOL    HW292832   2.673   5.521   3.152 -1.5262  1.3456 -0.4359
26952SOL     OW92833  10.288   8.702   5.488 -0.3486  0.0271 -0.1910
26952SOL    HW192834  10.306   8.776   5.547 -1.0338  0.4256 -0.4696
26952SOL    HW292835  10.248   8.636   5.545 -2.1413  0.8758 -0.3994
26953SOL     OW92836   4.493   8.113   5.552  0.2805 -0.3282  0.1742
26953SOL    HW192837   4.527   8.077   5.634 -0.2750  1.5189  1.2794
26953SOL    HW292838   4.446   8.041   5.511 -0.5459 -0.9798  2.1395
26954SOL     OW92839   2.561   3.806   7.391  0.6097 -0.3756 -0.2039
26954SOL    HW192840   2.536   3.817   7.482 -1.0986 -1.2840 -0.5101
26954SOL    HW292841   2.650   3.841   7.385  0.2149  1.0295  1.4779
26955SOL     OW92842   0.983   3.069   4.854 -0.3909  0.1502 -1.0150
26955SOL    HW192843   1.004   3.151   4.900  0.8319 -0.2740 -0.7859
26955SOL    HW292844   1.032   3.074   4.772  3.7131 -2.3725  0.9940
26956SOL     OW92845   1.712   5.290   7.840 -0.7332 -0.4429  0.5628
26956SOL    HW192846   1.793   5.331   7.811 -0.6742 -0.5716  0.5471
26956SOL    HW292847   1.721   5.281   7.935 -0.8355 -0.2222  0.5937
26957SOL     OW92848   7.044   8.023   8.580 -0.2249  0.0412  0.5718
26957SOL    HW192849   7.082   8.021   8.492  1.0227 -1.1591  1.0937
26957SOL    HW292850   7.097   8.087   8.628 -0.9472  0.7466  0.4421
26958SOL     OW92851  10.267   5.920   9.439 -0.4001  0.1989  0.5798
26958SOL    HW192852  10.329   5.980   9.398 -0.3291  0.1412  0.6026
26958SOL    HW292853  10.309   5.896   9.522  0.0133 -0.6368  0.1374
26959SOL     OW92854   6.242   9.322   9.058  0.0809 -0.3453  0.2028
26959SOL    HW192855   6.290   9.257   9.110  0.0002 -2.2431 -1.9511
26959SOL    HW292856   6.170   9.272   9.020  0.2147  0.9270 -1.8170
26960SOL     OW92857   8.926   7.363   7.575  0.0074  0.3584 -0.0112
26960SOL    HW192858   9.004   7.418   7.584  0.3391 -0.1941  0.5472
26960SOL    HW292859   8.946   7.306   7.500  0.9515 -1.0602  1.2547
26961SOL     OW92860   9.212   5.400   3.908  0.1109 -0.4855 -0.5242
26961SOL    HW192861   9.246   5.490   3.913 -2.4424  0.4791  1.6815
26961SOL    HW292862   9.221   5.377   3.815  1.7541  1.6425 -0.9882
26962SOL     OW92863   1.536   6.870   0.456 -0.3419 -0.2343 -0.0028
26962SOL    HW192864   1.559   6.779   0.435 -1.6774 -0.4425 -0.6354
26962SOL    HW292865   1.444   6.878   0.433  0.0754  1.6664 -1.2857
26963SOL     OW92866   1.118   0.376   6.658 -0.0916 -0.0867  0.2783
26963SOL    HW192867   1.042   0.386   6.601 -0.3164 -3.3534 -0.1634
26963SOL    HW292868   1.189   0.422   6.612 -1.5964  2.6804  0.5157
26964SOL     OW92869   7.567   9.391   3.006  0.2067 -0.3123  0.2141
26964SOL    HW192870   7.627   9.403   2.933 -0.1966  0.4220 -0.0066
26964SOL    HW292871   7.614   9.425   3.082  0.3901 -0.5083  0.1874
26965SOL     OW92872   4.495   2.002   6.125  0.3280  0.3203  0.6300
26965SOL    HW192873   4.446   2.072   6.167  1.5784  1.1205  0.8210
26965SOL    HW292874   4.567   2.047   6.080  0.1370 -0.6856 -0.7450
26966SOL     OW92875   0.207   1.312   7.394 -0.3007 -0.3283 -0.1627
26966SOL    HW192876   0.299   1.339   7.395 -0.3848  0.3170 -2.5449
26966SOL    HW292877   0.159   1.389   7.365 -1.7251 -0.4641  1.6524
26967SOL     OW92878   1.903   7.913   9.971  0.1927 -0.1978 -0.8000
26967SOL    HW192879   1.860   7.920   9.885  2.0130 -0.2346 -1.7580
26967SOL    HW292880   1.912   7.819   9.985 -0.1317 -0.1915 -0.5514
26968SOL     OW92881   3.177   1.359   2.417 -0.2010 -1.0860  0.0972
26968SOL    HW192882   3.205   1.388   2.504 -0.3827 -0.6133 -0.0025
26968SOL    HW292883   3.115   1.425   2.388 -0.0719 -1.1957 -0.4335
26969SOL     OW92884   2.005   0.899   9.803 -0.0163 -0.4192 -0.2990
26969SOL    HW192885   1.976   0.967   9.742  0.3652 -0.8718 -1.0041
26969SOL    HW292886   1.944   0.826   9.789 -0.0485 -0.4501  0.0010
26970SOL     OW92887   3.062   8.689  10.027  0.0048 -0.0767 -0.3915
26970SOL    HW192888   3.106   8.738  10.097  0.7974 -1.8158  0.3978
26970SOL    HW292889   2.999   8.750   9.991  1.0569  1.5674  0.4262
26971SOL     OW92890   8.757   9.659   3.911  0.2945  0.4181 -0.1240
26971SOL    HW192891   8.809   9.592   3.956 -1.1506  0.6091  1.9569
26971SOL    HW292892   8.818   9.731   3.897  1.6851 -0.9628 -1.7229
26972SOL     OW92893   7.045   2.595   4.195 -0.7188  0.1590 -0.3978
26972SOL    HW192894   7.076   2.549   4.117  1.0149 -1.3649  1.1021
26972SOL    HW292895   7.021   2.682   4.163  1.3464  0.0941 -2.4053
26973SOL     OW92896   5.238  10.042   8.680  0.4225  0.1976 -0.5738
26973SOL    HW192897   5.325  10.003   8.672  0.7294  0.9920 -1.3246
26973SOL    HW292898   5.208  10.016   8.767  1.1547 -0.5916 -0.5436
26974SOL     OW92899   5.567   1.905   9.564 -0.0902 -0.5150  0.4223
26974SOL    HW192900   5.613   1.836   9.516 -3.4182 -2.4536 -0.2942
26974SOL    HW292901   5.572   1.981   9.506  1.5235 -0.8407  0.0752
26975SOL     OW92902   0.834   3.955   5.402  0.0891  0.0708  0.5595
26975SOL    HW192903   0.875   3.912   5.327  1.1192 -0.1190  1.2143
26975SOL    HW292904   0.767   3.894   5.431 -0.6851  0.3708 -0.5064
26976SOL     OW92905   7.389   4.758   7.408  0.1331 -0.7899 -0.2742
26976SOL    HW192906   7.338   4.677   7.395 -0.3985 -0.4420 -0.3773
26976SOL    HW292907   7.435   4.770   7.325 -0.8517 -0.2536 -0.7601
26977SOL     OW92908   7.159   3.947   6.349 -0.0746 -0.3546  0.0450
26977SOL    HW192909   7.069   3.961   6.320 -0.7800 -1.1549  1.7186
26977SOL    HW292910   7.171   3.852   6.349  0.8884 -0.2510 -0.4324
26978SOL     OW92911   3.032   0.202   3.966 -0.4965 -0.0195  0.4493
26978SOL    HW192912   3.051   0.286   3.925 -1.2246  0.1658  0.4758
26978SOL    HW292913   3.109   0.149   3.948 -0.8838 -0.0262 -1.4171
26979SOL     OW92914   3.449   6.592   0.297  0.2514 -0.3148 -0.0008
26979SOL    HW192915   3.427   6.522   0.234 -0.6573  0.3327 -0.4231
26979SOL    HW292916   3.454   6.547   0.381  0.0859 -0.9651 -0.3267
26980SOL     OW92917   8.345   7.948   2.057  0.3872  0.2628 -0.2648
26980SOL    HW192918   8.406   7.985   1.993 -0.2723  1.2778 -0.3294
26980SOL    HW292919   8.311   7.869   2.016 -1.9054  2.1449 -2.3144
26981SOL     OW92920   9.470   2.287   0.518  0.0923 -0.4895 -0.0829
26981SOL    HW192921   9.386   2.318   0.485  1.3670  2.7250 -0.7856
26981SOL    HW292922   9.487   2.341   0.595  1.6716 -0.7559 -0.1996
26982SOL     OW92923  10.086   6.838   7.313 -0.3524  0.3843  0.5603
26982SOL    HW192924   9.995   6.867   7.315 -0.6924 -0.4981 -1.1295
26982SOL    HW292925  10.094   6.785   7.234  1.3471 -0.5325  1.2860
26983SOL     OW92926   3.754   1.995   8.395  0.5120 -0.2677 -0.0200
26983SOL    HW192927   3.790   1.909   8.416  4.0920  0.7263 -1.3602
26983SOL    HW292928   3.737   1.992   8.301  0.0450  0.3238  0.0355
26984SOL     OW92929   0.207   6.151   0.876 -0.1486 -0.3405  0.0640
26984SOL    HW192930   0.277   6.174   0.937 -1.1265  2.0723  0.4082
26984SOL    HW292931   0.238   6.182   0.791 -0.4734  0.0456  0.0826
26985SOL     OW92932   1.090   3.902   3.127  0.1206 -0.0517 -0.1275
26985SOL    HW192933   1.127   3.987   3.151 -0.4174  0.5863 -1.4785
26985SOL    HW292934   1.012   3.923   3.075 -1.8894 -1.3483  2.1306
26986SOL     OW92935   1.842   0.211   2.608 -0.0559  0.2561  0.1553
26986SOL    HW192936   1.887   0.267   2.672 -1.1170  0.9809  0.2962
26986SOL    HW292937   1.907   0.146   2.583  1.3750  1.8162 -0.3397
26987SOL     OW92938   9.634   9.421   9.266 -0.4418 -0.0595  0.1530
26987SOL    HW192939   9.650   9.359   9.337 -3.1371 -0.5228  0.4461
26987SOL    HW292940   9.652   9.507   9.304  0.9753 -0.4724  0.4713
26988SOL     OW92941   2.163   1.979   4.368  0.0619 -0.5372  0.2420
26988SOL    HW192942   2.198   1.945   4.450 -0.7259 -0.6082  0.5594
26988SOL    HW292943   2.083   2.025   4.393 -0.3415 -0.8032 -0.5182
26989SOL     OW92944   1.235   6.456   9.161 -0.0436  0.5257  0.1512
26989SOL    HW192945   1.284   6.398   9.219  0.1347  1.2205  0.7019
26989SOL    HW292946   1.265   6.432   9.073 -1.0815 -1.2508  0.2392
26990SOL     OW92947   6.315   2.357   0.945 -0.0971  0.4316  0.0947
26990SOL    HW192948   6.399   2.343   0.902 -0.4582  0.9307 -0.7932
26990SOL    HW292949   6.285   2.269   0.969  0.1720  0.1590 -0.5579
26991SOL     OW92950   6.143   9.515   6.176  0.1424  0.5913 -0.0306
26991SOL    HW192951   6.133   9.610   6.167  0.6365  0.7456  0.9340
26991SOL    HW292952   6.233   9.497   6.147  0.0353  0.4122 -0.2531
26992SOL     OW92953   1.367   5.276   6.644  0.0009  0.3649 -0.0601
26992SOL    HW192954   1.366   5.368   6.671 -0.5386  0.4044 -0.2049
26992SOL    HW292955   1.275   5.250   6.643  0.1061 -0.0025 -0.6165
26993SOL     OW92956   2.005   9.858   6.268 -0.0802  0.3584 -0.0502
26993SOL    HW192957   2.047   9.907   6.197  0.2404 -1.2549 -1.0428
26993SOL    HW292958   1.947   9.796   6.223  0.0309 -0.6176  1.0948
26994SOL     OW92959   4.988   8.148   0.636 -0.2552  0.1175  0.3993
26994SOL    HW192960   4.984   8.064   0.590  0.1974  0.5428 -0.4538
26994SOL    HW292961   5.063   8.193   0.596 -1.9221  1.9166 -0.8882
26995SOL     OW92962   9.532   6.385   8.137 -0.0123 -0.0079 -0.4763
26995SOL    HW192963   9.605   6.420   8.085  0.3889  0.4685  0.3833
26995SOL    HW292964   9.557   6.402   8.228 -1.9463  1.7485 -0.1777
26996SOL     OW92965  10.168   0.651   9.621  0.1720  0.2257  0.1951
26996SOL    HW192966  10.114   0.680   9.695 -2.6978  1.3013 -2.1115
26996SOL    HW292967  10.210   0.732   9.590  0.5123 -0.0247  0.0046
26997SOL     OW92968   6.940   9.124   3.817  0.1774  0.1798  0.3840
26997SOL    HW192969   6.873   9.170   3.868  1.0365  0.2504  1.4892
26997SOL    HW292970   6.984   9.194   3.768  0.5488  0.3695  0.9718
26998SOL     OW92971   4.144  10.157   3.417  0.1801 -0.1106  1.0656
26998SOL    HW192972   4.128  10.236   3.469  0.5763  0.9986 -0.4210
26998SOL    HW292973   4.237  10.162   3.395  0.2320 -1.0581  1.0310
26999SOL     OW92974   3.934   4.803   7.360  0.0896  0.0721  0.0799
26999SOL    HW192975   4.028   4.818   7.349 -0.1656  0.3756 -2.1065
26999SOL    HW292976   3.928   4.718   7.404  1.3644 -0.2836 -0.3944
27000SOL     OW92977   8.627   2.695   3.681  0.0438  0.7847 -0.3951
27000SOL    HW192978   8.684   2.619   3.667  0.8736  0.4686  3.6128
27000SOL    HW292979   8.678   2.754   3.736 -2.6947  1.4853  1.6076
27001SOL     OW92980   4.396   1.259   9.406 -0.0649 -0.1926  0.5395
27001SOL    HW192981   4.385   1.193   9.475  0.6214 -0.2969  0.5573
27001SOL    HW292982   4.488   1.285   9.412 -0.4362  1.0871  0.8054
27002SOL     OW92983   2.473   6.735   5.696  0.0217  0.0681 -0.1164
27002SOL    HW192984   2.493   6.670   5.628 -0.4486  0.0447 -0.2400
27002SOL    HW292985   2.484   6.687   5.778  1.0570  0.2311 -0.1586
27003SOL     OW92986   2.395   5.134   7.293 -0.4561  0.6967  0.2054
27003SOL    HW192987   2.475   5.090   7.320 -1.3748 -0.3819  1.2714
27003SOL    HW292988   2.421   5.185   7.216  0.3384 -3.1439 -2.3651
27004SOL     OW92989   3.055   8.947   1.384 -0.4715 -0.3583 -0.1939
27004SOL    HW192990   3.000   9.008   1.434  1.3154  1.9064 -0.8329
27004SOL    HW292991   3.056   8.982   1.296  1.1254 -0.9827 -0.4488
27005SOL     OW92992  10.209   8.283   4.041 -0.3316 -0.0224  0.0884
27005SOL    HW192993  10.244   8.204   4.000  1.9856 -0.2836  2.3065
27005SOL    HW292994  10.124   8.256   4.076 -0.8206 -0.6982 -1.5056
27006SOL     OW92995   3.415   1.175   8.946  0.1658  0.0505 -0.3149
27006SOL    HW192996   3.451   1.233   9.013 -0.6621  0.3910 -0.1456
27006SOL    HW292997   3.342   1.131   8.990 -0.5128  0.4290 -1.0445
27007SOL     OW92998   2.780   7.050   8.480  0.1842  0.6533  0.1423
27007SOL    HW192999   2.711   7.083   8.537  0.4287 -0.5318  1.1555
27007SOL    HW293000   2.824   7.129   8.447 -1.9092  1.4566 -0.9133
27008SOL     OW93001   2.180   8.445   1.415  0.1530  0.1419 -0.4450
27008SOL    HW193002   2.102   8.489   1.449  0.1828 -1.2924  1.6153
27008SOL    HW293003   2.149   8.400   1.336 -1.1248 -0.3948  0.3318
27009SOL     OW93004   3.650   5.734   2.183  0.2846 -0.0710 -0.7669
27009SOL    HW193005   3.643   5.666   2.250  1.4358  0.3193 -0.2202
27009SOL    HW293006   3.592   5.705   2.112  0.9762 -1.7722 -0.6760
27010SOL     OW93007   4.678   8.239   3.239  0.1750 -0.1163  0.0829
27010SOL    HW193008   4.701   8.148   3.218  1.3680 -0.2753  1.8707
27010SOL    HW293009   4.583   8.243   3.222  0.5091 -0.9067 -2.5231
27011SOL     OW93010   4.216   9.506   8.851 -0.2064 -0.0909 -0.5045
27011SOL    HW193011   4.289   9.534   8.906  0.8094 -2.2046 -0.6626
27011SOL    HW293012   4.174   9.436   8.901  0.2632 -1.5147 -1.9896
27012SOL     OW93013   0.137   1.441   6.190 -0.3414  0.1631 -0.2305
27012SOL    HW193014   0.066   1.380   6.207 -1.5883  1.7551  0.5130
27012SOL    HW293015   0.152   1.435   6.095 -1.9958  0.3532 -0.5245
27013SOL     OW93016   5.100   5.620   0.644 -0.0503  0.3407  0.2008
27013SOL    HW193017   5.015   5.636   0.605  0.6831 -2.3558 -2.8919
27013SOL    HW293018   5.084   5.551   0.709 -0.4734  1.2272  1.0626
27014SOL     OW93019   2.255   9.477   7.656  0.0670 -0.3275 -0.3686
27014SOL    HW193020   2.303   9.399   7.682 -0.5554 -0.2712  1.0378
27014SOL    HW293021   2.314   9.524   7.598  0.3165 -2.0074 -1.5536
27015SOL     OW93022   1.172   0.466   2.816  0.2722 -0.7255 -0.2928
27015SOL    HW193023   1.191   0.424   2.900 -1.5990 -0.3764  0.3492
27015SOL    HW293024   1.258   0.491   2.781  1.0118  0.6004  2.2869
27016SOL     OW93025   5.002   9.935   4.547  0.2425  0.6420 -0.0641
27016SOL    HW193026   4.967   9.858   4.502  0.6990  0.9351 -0.9268
27016SOL    HW293027   4.938  10.004   4.530  0.6504  0.8759 -0.6662
27017SOL     OW93028   9.625   2.438   7.578 -0.3008 -0.1957  0.2314
27017SOL    HW193029   9.615   2.418   7.671 -0.4805  0.7510  0.4206
27017SOL    HW293030   9.555   2.501   7.560 -0.4514 -0.5982 -0.6139
27018SOL     OW93031   9.261   8.827   0.304  0.2723  0.3560 -0.4109
27018SOL    HW193032   9.297   8.890   0.367 -0.2749 -1.7976  2.2589
27018SOL    HW293033   9.166   8.832   0.317  0.2507 -1.5387  0.5125
27019SOL     OW93034   8.262   6.946   2.842  0.5760 -0.2474 -0.6209
27019SOL    HW193035   8.177   6.985   2.863  0.8200  0.0584 -0.1849
27019SOL    HW293036   8.324   6.989   2.902  0.9037 -1.0611 -0.3585
27020SOL     OW93037   4.206   0.942  10.386  0.0068  0.2272  0.2378
27020SOL    HW193038   4.295   0.928  10.353 -0.1187 -0.7978  0.2986
27020SOL    HW293039   4.161   0.860  10.368 -0.1064 -0.3807  2.8665
27021SOL     OW93040   0.156   7.240  10.019  0.4389  0.0775  0.0702
27021SOL    HW193041   0.073   7.211  10.056  0.4937 -2.7692 -1.7415
27021SOL    HW293042   0.144   7.235   9.924  2.3052  0.7462 -0.2541
27022SOL     OW93043   5.610   3.888   3.449  0.0224  0.6377 -0.5608
27022SOL    HW193044   5.555   3.828   3.399 -0.5068 -0.3940  1.1724
27022SOL    HW293045   5.557   3.968   3.456 -1.1352 -0.1986  0.7384
27023SOL     OW93046   0.213   9.114   4.894 -0.2345  0.3275 -0.3719
27023SOL    HW193047   0.248   9.159   4.818 -1.3873 -0.1961 -1.2476
27023SOL    HW293048   0.247   9.162   4.969  0.6986  1.0173 -1.2223
27024SOL     OW93049   9.909   4.621   1.517 -0.2793  0.1707  0.5025
27024SOL    HW193050   9.899   4.563   1.441  4.2317 -1.9062  1.1589
27024SOL    HW293051   9.954   4.698   1.483  2.1609 -0.9598  0.9604
27025SOL     OW93052   9.734   0.605   9.027  0.2696 -0.3667 -0.3061
27025SOL    HW193053   9.727   0.693   8.989 -2.8357 -0.3648  0.0489
27025SOL    HW293054   9.711   0.617   9.119  0.9897 -1.3947  0.0222
27026SOL     OW93055   3.705   2.001   8.798 -0.0649 -0.2252 -0.2635
27026SOL    HW193056   3.626   2.011   8.745 -0.4801 -0.9988  0.1947
27026SOL    HW293057   3.674   2.009   8.888  0.6479  1.1664 -0.1217
27027SOL     OW93058   0.205   2.036  10.219  0.5136  0.1924 -0.1003
27027SOL    HW193059   0.188   1.999  10.306  0.0254  0.2816 -0.1559
27027SOL    HW293060   0.121   2.072  10.191  0.3197 -0.9999 -1.1747
27028SOL     OW93061   1.481   0.750   9.649 -0.3300 -0.1683  0.0401
27028SOL    HW193062   1.562   0.793   9.675  0.1931 -1.4493  0.6505
27028SOL    HW293063   1.420   0.768   9.720  0.2836 -1.4433  0.9399
27029SOL     OW93064   6.614   0.101   7.122 -0.0406 -0.0146  0.1630
27029SOL    HW193065   6.559   0.034   7.163  1.7014 -1.0620  0.9130
27029SOL    HW293066   6.631   0.164   7.192  2.4204 -1.4771  1.0146
27030SOL     OW93067   7.829   6.029   7.630  0.1944  0.0133 -0.1351
27030SOL    HW193068   7.740   6.044   7.600  0.5365 -0.0960 -1.2766
27030SOL    HW293069   7.853   6.109   7.677 -0.3805  0.1827 -0.1315
27031SOL     OW93070   2.766   4.846   7.603 -0.0512  0.0947 -0.2853
27031SOL    HW193071   2.827   4.774   7.618  0.3161  0.1885 -1.2765
27031SOL    HW293072   2.757   4.889   7.688  0.3557 -0.6238  0.1271
27032SOL     OW93073   7.398   6.087   6.654 -0.0976 -0.4993  0.1872
27032SOL    HW193074   7.353   6.081   6.570 -1.3947 -1.1559  0.8864
27032SOL    HW293075   7.489   6.104   6.632 -0.3797 -0.8295 -1.3469
27033SOL     OW93076   2.784   8.412   6.668 -0.0740 -0.3748  0.1332
27033SOL    HW193077   2.829   8.475   6.613  0.2476  0.1091  0.9259
27033SOL    HW293078   2.843   8.337   6.673 -0.9127 -1.2076 -1.6629
27034SOL     OW93079   2.375   9.062   6.903  0.6089 -0.3572  0.2495
27034SOL    HW193080   2.326   9.143   6.915 -0.8753 -1.0942 -0.5808
27034SOL    HW293081   2.360   9.039   6.811  0.4378 -1.9255  0.6563
27035SOL     OW93082   9.590   9.684   9.935  1.1972 -0.2096  0.1572
27035SOL    HW193083   9.627   9.678  10.022 -0.7549 -1.7128  0.9696
27035SOL    HW293084   9.537   9.764   9.937  1.1826 -0.2232  0.3437
27036SOL     OW93085   5.877   1.431   9.585 -0.1218 -0.5045  0.6360
27036SOL    HW193086   5.962   1.387   9.591  0.4509  0.3872 -0.5812
27036SOL    HW293087   5.813   1.360   9.592  0.7605 -1.4324 -0.3407
27037SOL     OW93088   2.847   4.822   8.032 -0.2370  0.5479 -0.6635
27037SOL    HW193089   2.822   4.733   8.057 -0.6708  1.3350  2.0517
27037SOL    HW293090   2.777   4.851   7.973 -0.7629 -0.4858 -0.5726
27038SOL     OW93091   2.871   8.852   0.445  0.3682  0.2626  0.1488
27038SOL    HW193092   2.942   8.836   0.507 -1.7410  1.0011  2.9569
27038SOL    HW293093   2.873   8.776   0.386  1.1651 -1.6642  2.4817
27039SOL     OW93094   3.677   2.316   5.761 -0.2014 -0.4639  0.1472
27039SOL    HW193095   3.737   2.314   5.835  1.8644 -2.2828 -1.4251
27039SOL    HW293096   3.619   2.241   5.774 -1.6938  0.8325  1.2637
27040SOL     OW93097   2.971   0.347   6.236 -0.0425 -0.5730 -0.4966
27040SOL    HW193098   2.957   0.411   6.167  1.5960  0.2676 -0.1230
27040SOL    HW293099   2.890   0.346   6.286 -0.9144 -0.5166 -1.8743
27041SOL     OW93100   3.926   9.408   3.428 -0.4264 -0.0128  0.6714
27041SOL    HW193101   3.910   9.355   3.506 -1.3082 -0.6388  0.0955
27041SOL    HW293102   3.838   9.430   3.397 -0.0790  0.5712  0.0940
27042SOL     OW93103   3.630   7.934   7.011 -0.2711  0.0986 -0.4049
27042SOL    HW193104   3.723   7.937   6.985 -0.6196 -0.1234 -1.7361
27042SOL    HW293105   3.623   8.001   7.079  0.8522  0.1618 -0.3177
27043SOL     OW93106   0.725   7.438   5.998 -0.5126  0.4872 -0.0488
27043SOL    HW193107   0.794   7.476   5.944 -0.8538 -0.4513 -1.1905
27043SOL    HW293108   0.673   7.513   6.027  1.4443  1.2976  1.5614
27044SOL     OW93109   5.911   0.742   3.754  0.4637  0.7784  0.1325
27044SOL    HW193110   5.860   0.715   3.830 -0.1539 -0.1672 -0.5977
27044SOL    HW293111   5.990   0.688   3.757 -0.1264 -0.1489 -0.5555
27045SOL     OW93112   5.948   8.308   9.581 -0.0779 -0.9048 -0.6316
27045SOL    HW193113   5.919   8.233   9.528 -0.1162 -1.4054  0.0720
27045SOL    HW293114   5.888   8.309   9.655  1.1115 -1.3835  0.3682
27046SOL     OW93115  10.026   3.989   5.684  0.4538 -0.0777 -0.3186
27046SOL    HW193116  10.030   3.895   5.701  0.4942 -0.4981 -2.3724
27046SOL    HW293117   9.938   4.003   5.648  0.6166  0.5786 -0.4778
27047SOL     OW93118   8.767   4.951   9.632  0.3300 -0.5510 -0.0611
27047SOL    HW193119   8.733   4.864   9.611 -0.9723  0.1482 -1.0465
27047SOL    HW293120   8.731   5.007   9.564  0.4553  0.9034  1.0279
27048SOL     OW93121   2.436   4.095   7.017 -0.4320 -0.0545  0.1984
27048SOL    HW193122   2.379   4.031   6.974 -0.7432  0.5716 -0.3367
27048SOL    HW293123   2.511   4.043   7.048  0.1762 -0.4535 -1.7493
27049SOL     OW93124   1.765   5.396   6.730  0.6078  0.0196 -0.4073
27049SOL    HW193125   1.710   5.358   6.799  0.5375  0.8419  0.0058
27049SOL    HW293126   1.819   5.460   6.776  3.2995 -2.0537 -0.4576
27050SOL     OW93127   0.599   8.640   7.286  0.2011 -0.1449  0.4482
27050SOL    HW193128   0.549   8.683   7.355  1.8208  1.3603  0.7605
27050SOL    HW293129   0.600   8.704   7.214 -0.6599 -1.2989 -0.6360
27051SOL     OW93130   8.741   5.940   6.337 -0.3413 -0.7206  0.0355
27051SOL    HW193131   8.798   5.865   6.323 -0.5557 -2.3923  5.6026
27051SOL    HW293132   8.654   5.902   6.347 -1.6134  1.1485 -2.6891
27052SOL     OW93133   0.307   9.647   2.934 -0.3650  0.3052 -0.2942
27052SOL    HW193134   0.391   9.621   2.972 -0.7141 -1.8534 -0.8365
27052SOL    HW293135   0.247   9.651   3.009 -0.4518 -1.2870 -0.2415
27053SOL     OW93136   1.696   7.281   6.075 -0.1086  0.6281  0.2430
27053SOL    HW193137   1.648   7.216   6.126 -1.8012  0.0716 -1.8721
27053SOL    HW293138   1.641   7.359   6.078 -0.0217  0.7180 -0.3687
27054SOL     OW93139   7.992   6.532   5.423 -0.5034  0.4206 -0.3164
27054SOL    HW193140   8.053   6.579   5.481 -1.0954  0.3814  0.3654
27054SOL    HW293141   7.914   6.588   5.422 -1.2214 -0.5405  0.5114
27055SOL     OW93142   6.435   4.753   9.899  0.2596 -0.0874  0.6809
27055SOL    HW193143   6.525   4.773   9.872 -0.1047  1.9081  0.7764
27055SOL    HW293144   6.435   4.658   9.914  3.0226  0.1441  3.1143
27056SOL     OW93145   3.317  10.139   1.911  0.6046 -0.3559  0.2549
27056SOL    HW193146   3.232  10.171   1.880  0.6296  0.8818  1.3828
27056SOL    HW293147   3.364  10.116   1.831 -1.4369 -2.9575 -0.3593
27057SOL     OW93148   0.519   7.209   9.284  0.0816 -0.0923 -0.3940
27057SOL    HW193149   0.566   7.285   9.251 -1.3629  0.6150 -0.9031
27057SOL    HW293150   0.547   7.137   9.228  2.4724 -0.2858  0.9098
27058SOL     OW93151   6.416   8.428   0.159  0.6633  0.0576  0.3884
27058SOL    HW193152   6.334   8.463   0.122  0.4981 -0.3269  0.3931
27058SOL    HW293153   6.388   8.371   0.230  0.8722 -0.9818 -0.3413
27059SOL     OW93154   2.303   0.003   6.700 -0.7976  0.3018  0.3028
27059SOL    HW193155   2.398   0.014   6.697 -0.8863  1.2624  0.6034
27059SOL    HW293156   2.277   0.042   6.784 -1.4562  0.0257  0.2342
27060SOL     OW93157   4.428   8.923   3.730 -0.2594 -0.1066 -0.4922
27060SOL    HW193158   4.409   8.932   3.636 -1.0095  0.5786 -0.2830
27060SOL    HW293159   4.417   8.830   3.748  0.1947 -0.2907 -1.1511
27061SOL     OW93160   5.869   0.759   7.221  0.4852 -0.3814 -0.2134
27061SOL    HW193161   5.809   0.727   7.153  1.0148  0.1664 -0.9503
27061SOL    HW293162   5.911   0.835   7.181  2.3136 -1.2595 -0.0290
27062SOL     OW93163   1.180   3.511   5.878 -0.2119 -0.2359  0.7272
27062SOL    HW193164   1.162   3.535   5.787  3.0809 -1.9117 -0.4967
27062SOL    HW293165   1.115   3.443   5.898 -0.9636  0.1422 -0.3270
27063SOL     OW93166  10.377   7.114   8.578  0.0342 -0.4258  0.5503
27063SOL    HW193167  10.361   7.167   8.500  1.3048 -0.4734  0.2265
27063SOL    HW293168  10.341   7.028   8.557  2.2740 -1.1105 -0.9389
27064SOL     OW93169   1.858   7.874   9.690  0.3715 -0.5233  0.3644
27064SOL    HW193170   1.885   7.949   9.637  0.7305 -0.8136  0.1270
27064SOL    HW293171   1.882   7.798   9.637 -0.4446 -0.8035  0.3791
27065SOL     OW93172   4.597   2.556   6.186 -0.1240  0.1201  0.1322
27065SOL    HW193173   4.609   2.576   6.279 -1.7695  0.6568  0.2692
27065SOL    HW293174   4.587   2.642   6.145  0.3067 -0.1286 -0.5039
27066SOL     OW93175   4.921   3.018   8.018  0.0971  0.1816  0.4157
27066SOL    HW193176   5.011   3.043   8.038 -0.3174  0.9725  1.3441
27066SOL    HW293177   4.899   2.953   8.084  0.4805 -1.2052 -0.7562
27067SOL     OW93178   6.176   6.972   5.637  0.4362 -0.4568  0.2549
27067SOL    HW193179   6.135   6.932   5.713  0.9740 -1.7687 -0.1049
27067SOL    HW293180   6.104   6.992   5.578  0.2615 -4.5576 -1.2389
27068SOL     OW93181   9.663   8.781   2.138 -0.3988 -0.1227  0.5915
27068SOL    HW193182   9.730   8.739   2.192 -0.5779 -2.3568 -0.7714
27068SOL    HW293183   9.595   8.713   2.129 -2.2249  1.5884  0.8038
27069SOL     OW93184   6.412   0.467   0.988 -0.0860 -0.3819  0.0656
27069SOL    HW193185   6.346   0.514   1.040  0.3415  1.0941 -0.6450
27069SOL    HW293186   6.367   0.388   0.958 -1.0786 -0.1059  0.7693
27070SOL     OW93187   7.223   4.464   0.830 -0.0186  0.5709  0.5117
27070SOL    HW193188   7.179   4.420   0.757  1.4721  0.4669 -0.3723
27070SOL    HW293189   7.185   4.425   0.908 -0.4907 -0.5052 -0.2257
27071SOL     OW93190   6.549   6.914   7.392 -0.1829 -0.5101  0.0213
27071SOL    HW193191   6.487   6.857   7.438 -0.3577  0.8199  1.5218
27071SOL    HW293192   6.632   6.901   7.438 -0.3048  0.6771  0.5901
27072SOL     OW93193   7.944   8.275   8.299 -1.1703  0.4976  0.0829
27072SOL    HW193194   7.989   8.340   8.244  0.7428 -0.8502 -0.0327
27072SOL    HW293195   8.002   8.262   8.374 -1.4684 -1.1231  0.0706
27073SOL     OW93196   4.243   6.388   3.095  0.0213 -0.3874  0.1449
27073SOL    HW193197   4.242   6.377   3.000  0.3025  1.4852 -0.1025
27073SOL    HW293198   4.329   6.354   3.122  0.2410 -0.2352 -0.3558
27074SOL     OW93199   2.404   6.358   6.433  0.3137 -0.4732 -0.5622
27074SOL    HW193200   2.377   6.381   6.522 -2.4341 -1.4617 -1.0254
27074SOL    HW293201   2.497   6.337   6.440  0.3705  0.3238  1.8877
27075SOL     OW93202   2.037   1.219   6.945  0.4119  0.6429 -0.4511
27075SOL    HW193203   2.084   1.144   6.981 -2.4529 -0.5442  1.1949
27075SOL    HW293204   2.034   1.203   6.851  0.4137 -1.0020 -0.1996
27076SOL     OW93205   1.240   2.348   6.345  0.0002 -0.0124  0.2375
27076SOL    HW193206   1.220   2.338   6.438  1.9371 -0.5635  0.6398
27076SOL    HW293207   1.229   2.261   6.308 -1.8850  0.4236 -0.3349
27077SOL     OW93208   5.281   6.402   4.958  0.2336  0.4287  0.6938
27077SOL    HW193209   5.190   6.382   4.980  0.7093 -2.1941  0.5891
27077SOL    HW293210   5.320   6.430   5.041 -0.2784 -0.0099  1.0887
27078SOL     OW93211   2.762   4.218   0.369  0.0810 -0.0546  0.3358
27078SOL    HW193212   2.810   4.174   0.440 -0.6286 -0.8620  0.3276
27078SOL    HW293213   2.677   4.240   0.407  0.8768  2.6449  0.7980
27079SOL     OW93214   0.024   6.096   2.047 -0.2733 -0.8077  0.0517
27079SOL    HW193215  -0.045   6.163   2.051  0.7556  0.2479  0.7364
27079SOL    HW293216   0.099   6.142   2.010  1.0656 -1.0225  2.3545
27080SOL     OW93217   7.293   8.232   2.785  0.1592  0.7825 -0.5632
27080SOL    HW193218   7.230   8.294   2.749  0.3919  0.5828 -1.3433
27080SOL    HW293219   7.280   8.152   2.734  0.3290  0.4047 -0.0278
27081SOL     OW93220   8.775   7.200   2.530 -0.4176 -0.7105  0.0973
27081SOL    HW193221   8.782   7.111   2.563  1.5973 -1.3223 -1.7717
27081SOL    HW293222   8.813   7.254   2.600  0.4796 -1.5905  0.3158
27082SOL     OW93223   0.333   9.494   8.691 -0.1066  0.2866 -0.4037
27082SOL    HW193224   0.379   9.422   8.648 -0.1449  0.7984 -1.3350
27082SOL    HW293225   0.248   9.458   8.716  0.2715 -0.2766  0.0831
27083SOL     OW93226   2.938   9.522   2.218 -0.3844  0.2298 -0.1338
27083SOL    HW193227   3.016   9.569   2.249 -0.4209  0.4200 -0.3268
27083SOL    HW293228   2.965   9.430   2.216 -0.9570 -0.0421  2.2548
27084SOL     OW93229   8.387   4.727   5.277 -0.0694 -0.2643  0.2944
27084SOL    HW193230   8.372   4.633   5.284  1.2283 -0.4722  0.6148
27084SOL    HW293231   8.412   4.740   5.185 -0.1966 -0.2461  0.2629
27085SOL     OW93232   8.830   1.210   2.368 -0.3746  0.7759 -0.2825
27085SOL    HW193233   8.743   1.218   2.408  0.1028 -3.4187  2.2333
27085SOL    HW293234   8.878   1.286   2.402 -2.2303  1.5962  0.6958
27086SOL     OW93235   4.286   6.603   7.750 -0.0504  0.2025 -0.5008
27086SOL    HW193236   4.256   6.692   7.769 -1.8351 -0.4106 -0.3071
27086SOL    HW293237   4.335   6.611   7.668 -0.0031  1.3828 -0.3739
27087SOL     OW93238   8.010   1.316   8.098 -0.5458  0.1375  0.0083
27087SOL    HW193239   7.988   1.229   8.066  2.1252 -0.8435  0.5816
27087SOL    HW293240   8.027   1.304   8.191  0.1734  1.2099  0.0340
27088SOL     OW93241  10.091   0.170   1.127 -0.0958 -0.4270 -0.0726
27088SOL    HW193242  10.108   0.174   1.221 -1.1857 -0.6774  0.1569
27088SOL    HW293243  10.086   0.261   1.100 -0.2980 -0.3485  0.2213
27089SOL     OW93244   1.901   9.172   4.370 -0.0145 -0.5324 -0.4328
27089SOL    HW193245   1.841   9.240   4.400  0.0522 -0.7413  0.1859
27089SOL    HW293246   1.947   9.144   4.449  0.8691 -0.4070 -0.8883
27090SOL     OW93247   1.313   2.992   3.183 -0.0678  0.2490  0.1607
27090SOL    HW193248   1.222   3.000   3.155 -0.9651  2.2313  3.1951
27090SOL    HW293249   1.363   3.034   3.112 -1.6752  0.7468 -0.7422
27091SOL     OW93250   2.368   1.619   1.065  0.1737  0.4407  0.1601
27091SOL    HW193251   2.347   1.650   0.977 -1.3266 -0.0594  0.3077
27091SOL    HW293252   2.351   1.525   1.063 -0.1741  0.4669  1.0591
27092SOL     OW93253   0.572   0.083   6.758  0.0272  0.1009  0.2767
27092SOL    HW193254   0.503   0.119   6.815 -0.6094  0.2263 -0.5558
27092SOL    HW293255   0.616   0.161   6.724  0.4056  0.0251  0.5924
27093SOL     OW93256   3.833   0.860   0.080 -0.1214  0.5273 -0.3072
27093SOL    HW193257   3.844   0.886  -0.011 -0.0086  0.1611 -0.4029
27093SOL    HW293258   3.831   0.942   0.129  0.9425  0.6968 -0.5178
27094SOL     OW93259   9.092   0.682   0.700  0.2533 -0.1389 -0.7827
27094SOL    HW193260   9.106   0.748   0.633  1.2434 -0.4332 -0.8797
27094SOL    HW293261   9.071   0.732   0.780 -0.3045  0.2265 -1.1487
27095SOL     OW93262   8.993   9.676   1.870  0.2605  0.5948  0.4060
27095SOL    HW193263   8.992   9.703   1.962 -0.9397 -1.2662  1.0091
27095SOL    HW293264   9.005   9.581   1.874 -2.2287  0.1308 -1.2215
27096SOL     OW93265   1.512   0.906   7.616 -0.3808  0.1238 -0.3810
27096SOL    HW193266   1.581   0.893   7.681  0.0979  1.7270 -0.5156
27096SOL    HW293267   1.519   0.999   7.592 -2.0935  0.1320 -0.9690
27097SOL     OW93268   8.981   4.807   2.922 -0.1206  0.0460 -0.7141
27097SOL    HW193269   8.960   4.863   2.997 -2.4568 -0.6227 -0.7923
27097SOL    HW293270   9.032   4.736   2.960 -1.5300 -0.4494  0.3721
27098SOL     OW93271   3.250   3.079   6.164  0.3762 -0.3861 -0.2094
27098SOL    HW193272   3.255   3.040   6.251  1.3250  1.6850  0.7329
27098SOL    HW293273   3.305   3.158   6.170 -0.1785  0.2401 -2.4491
27099SOL     OW93274   1.673   5.471   8.297  0.1005  0.1013  0.0320
27099SOL    HW193275   1.657   5.549   8.351  0.9161  0.3853 -0.1291
27099SOL    HW293276   1.681   5.505   8.208  0.0237 -0.2252 -0.0989
27100SOL     OW93277   9.864   1.387   6.246  0.7288 -0.0808  0.3367
27100SOL    HW193278   9.934   1.353   6.190  2.2016 -1.2350  2.7115
27100SOL    HW293279   9.790   1.399   6.186  1.7321 -2.5735 -1.6224
27101SOL     OW93280   5.830   0.701  10.287  0.3782  0.2869  0.4685
27101SOL    HW193281   5.784   0.663  10.361 -1.0146  0.1470 -0.4410
27101SOL    HW293282   5.812   0.641  10.214 -0.2709  1.6593 -0.5366
27102SOL     OW93283   0.591   0.280   7.443  0.2679 -0.4072  0.0801
27102SOL    HW193284   0.517   0.336   7.422  0.1590 -0.5133  0.1804
27102SOL    HW293285   0.594   0.215   7.373  1.8061  1.0944 -1.3268
27103SOL     OW93286   1.895   7.078   8.134  0.4876  0.2168  0.4626
27103SOL    HW193287   1.851   7.006   8.179  0.1928 -0.6480 -1.1064
27103SOL    HW293288   1.980   7.041   8.108 -0.6933 -0.5734 -2.7090
27104SOL     OW93289   9.429   3.378   3.229 -0.1719 -0.7478  0.0493
27104SOL    HW193290   9.510   3.420   3.201 -0.5413  0.1736  0.3199
27104SOL    HW293291   9.437   3.372   3.324 -1.2716  1.2915  0.3411
27105SOL     OW93292   8.117   6.791   9.021  0.6224  0.6051  0.3546
27105SOL    HW193293   8.022   6.786   9.030  0.6376  1.7337  1.3655
27105SOL    HW293294   8.142   6.869   9.070  2.0178  0.6593 -0.3837
27106SOL     OW93295  10.213   1.495   9.598  0.3136  0.1068  0.0458
27106SOL    HW193296  10.165   1.471   9.519 -0.6891  0.1337  0.6289
27106SOL    HW293297  10.149   1.540   9.653  1.7114  2.8164 -0.3445
27107SOL     OW93298   7.781   7.731   6.133  0.4895 -0.1624 -0.1552
27107SOL    HW193299   7.855   7.760   6.188  0.4504  1.0083 -0.6917
27107SOL    HW293300   7.759   7.808   6.080 -2.4328  0.2309  1.3962
27108SOL     OW93301   9.266   8.587   0.607 -0.0384 -0.1245 -0.3612
27108SOL    HW193302   9.267   8.674   0.566  1.2089 -1.5619 -3.6265
27108SOL    HW293303   9.173   8.572   0.626 -0.3453  1.6737 -0.2223
27109SOL     OW93304   1.864   0.045   1.386 -0.1726 -0.0134  0.1653
27109SOL    HW193305   1.950   0.045   1.345 -1.2941 -1.5184 -2.3918
27109SOL    HW293306   1.872  -0.017   1.459  1.3297  1.1965  1.0792
27110SOL     OW93307   9.614   4.567   9.247  0.2688  0.1447  0.3124
27110SOL    HW193308   9.573   4.481   9.258 -2.2855  0.9805 -1.6936
27110SOL    HW293309   9.671   4.557   9.171  0.2489  0.1238  0.3000
27111SOL     OW93310   6.438   7.727   8.783 -0.6924 -0.4626  0.2979
27111SOL    HW193311   6.360   7.672   8.783 -0.8680 -0.2582 -1.2229
27111SOL    HW293312   6.511   7.664   8.785 -0.8865 -0.8429 -1.8148
27112SOL     OW93313  10.221   6.375   0.962 -0.2469  0.3619 -0.3141
27112SOL    HW193314  10.304   6.416   0.985 -1.0087  2.3232 -0.8329
27112SOL    HW293315  10.177   6.361   1.046  0.3185 -0.0527 -0.0820
27113SOL     OW93316   6.194   7.460   2.190 -0.1950  0.1025  0.4535
27113SOL    HW193317   6.099   7.461   2.176 -0.2858  0.7406  1.1143
27113SOL    HW293318   6.225   7.394   2.128 -0.8804  1.0358 -0.9406
27114SOL     OW93319   9.114   1.166   7.368  0.4164 -0.2528 -0.5648
27114SOL    HW193320   9.178   1.177   7.297  2.2371  3.3886  1.3467
27114SOL    HW293321   9.150   1.096   7.422  0.7407 -0.8085 -1.4693
27115SOL     OW93322   7.456   1.028   4.995 -0.5773  0.1423  0.3918
27115SOL    HW193323   7.457   1.123   5.005 -0.0774  0.2836 -0.8101
27115SOL    HW293324   7.407   0.996   5.071 -1.4015  1.4110  0.4214
27116SOL     OW93325   2.869   0.917   9.309  0.1009  0.4659 -0.1788
27116SOL    HW193326   2.831   0.882   9.229  0.0454 -0.1989  0.1291
27116SOL    HW293327   2.822   0.999   9.325 -0.5097  0.1487 -0.3380
27117SOL     OW93328   4.751   6.807   2.219  0.1289 -0.2413  0.0148
27117SOL    HW193329   4.739   6.816   2.313  1.7901  0.7216  0.1617
27117SOL    HW293330   4.671   6.844   2.181 -0.2353  0.0240  1.0289
27118SOL     OW93331   5.352   6.191   2.269 -0.1194 -0.0455  0.1328
27118SOL    HW193332   5.351   6.110   2.217 -0.5340  0.9436 -1.4390
27118SOL    HW293333   5.375   6.161   2.358 -0.4599 -1.9080 -0.3565
27119SOL     OW93334   6.760   7.458   7.509  0.6175  0.0030 -0.2475
27119SOL    HW193335   6.785   7.477   7.419 -1.7559 -1.8336 -1.4440
27119SOL    HW293336   6.664   7.462   7.508  0.5512  1.0665  2.5159
27120SOL     OW93337   4.257   1.269   6.149  0.3170 -0.5956  0.2827
27120SOL    HW193338   4.276   1.313   6.232 -0.4085  0.4947 -0.1077
27120SOL    HW293339   4.285   1.332   6.082  0.5044 -1.2907 -0.3016
27121SOL     OW93340  10.302   5.223   8.689  0.3769  0.1892  0.0677
27121SOL    HW193341  10.301   5.169   8.610  1.5805  1.7820 -1.1043
27121SOL    HW293342  10.293   5.313   8.657  1.5879  0.9361  1.6679
27122SOL     OW93343   9.399   2.207   5.174  0.5598  0.1652 -0.3445
27122SOL    HW193344   9.449   2.271   5.225  1.4951 -1.1675  0.4816
27122SOL    HW293345   9.449   2.196   5.094 -0.2097  1.2734 -1.0133
27123SOL     OW93346   2.618   4.386   9.340  0.4971  0.1347 -0.7191
27123SOL    HW193347   2.593   4.396   9.432 -0.9712  2.6126 -1.2851
27123SOL    HW293348   2.647   4.295   9.333  0.9421 -0.0641  2.2322
27124SOL     OW93349   0.379   6.137   7.634  0.5942  0.6044  0.7160
27124SOL    HW193350   0.304   6.080   7.616  0.7042  0.4670  0.6966
27124SOL    HW293351   0.433   6.089   7.696  0.9269  0.4823  0.3379
27125SOL     OW93352   8.628   3.843   8.966 -0.1428  0.6200 -0.0140
27125SOL    HW193353   8.723   3.836   8.957 -0.2677 -1.7904 -0.1417
27125SOL    HW293354   8.604   3.919   8.912  1.6368  0.9597 -0.3742
27126SOL     OW93355   8.325   1.472   2.311  0.0356  0.9958 -0.2527
27126SOL    HW193356   8.353   1.510   2.395  0.5541  0.1744 -0.0298
27126SOL    HW293357   8.399   1.417   2.285 -0.6505  0.1922 -0.5711
27127SOL     OW93358   3.434   8.205  10.165  0.2287  0.0333  0.5861
27127SOL    HW193359   3.528   8.218  10.160  0.3064 -0.5862  0.3285
27127SOL    HW293360   3.417   8.127  10.111 -0.6746  1.2774 -1.0316
27128SOL     OW93361   5.277   8.955   9.633 -0.4191 -0.2671 -0.2432
27128SOL    HW193362   5.250   8.914   9.716  0.8477 -1.5294 -0.4228
27128SOL    HW293363   5.326   9.033   9.660 -2.2327  0.8158  0.1115
27129SOL     OW93364   1.355   6.593   4.323  0.6211  0.5162  0.3077
27129SOL    HW193365   1.306   6.542   4.387  1.3753  0.4236  0.8317
27129SOL    HW293366   1.437   6.544   4.312  1.4533  1.6950  0.9851
27130SOL     OW93367   5.661   7.327   4.326  0.1583 -0.2133  0.4382
27130SOL    HW193368   5.642   7.341   4.419 -0.6819 -1.3643  0.4654
27130SOL    HW293369   5.576   7.309   4.286  0.2606  1.9699 -0.9104
27131SOL     OW93370   1.845   2.542  10.385 -0.3643  0.3600 -0.5106
27131SOL    HW193371   1.871   2.457  10.349  0.8102 -0.5193  2.1233
27131SOL    HW293372   1.789   2.520  10.459 -0.0218  1.8512  0.2238
27132SOL     OW93373   7.236   8.326   2.343 -0.2324 -0.4861 -0.1201
27132SOL    HW193374   7.170   8.350   2.278 -0.5539  2.8455  1.2347
27132SOL    HW293375   7.185   8.298   2.420  0.1395 -3.7417 -0.9104
27133SOL     OW93376   4.696   8.763   5.465 -0.0463  0.4119  0.0648
27133SOL    HW193377   4.749   8.830   5.507 -0.9844  0.5197  1.1388
27133SOL    HW293378   4.705   8.686   5.521 -0.1436  0.0920 -0.3497
27134SOL     OW93379   6.793   5.185   7.255  0.3508  0.3548 -0.3725
27134SOL    HW193380   6.842   5.199   7.336  0.0851  1.0559 -0.3310
27134SOL    HW293381   6.813   5.095   7.231  0.4836  0.1623  0.4345
27135SOL     OW93382   3.203   8.703   3.834 -0.0520 -0.2058 -0.2501
27135SOL    HW193383   3.152   8.781   3.855 -1.0540 -1.5067  2.5560
27135SOL    HW293384   3.281   8.710   3.888  0.4467 -0.5987 -0.9023
27136SOL     OW93385   2.875   3.730   4.746 -0.4775  0.2431 -0.2200
27136SOL    HW193386   2.883   3.644   4.703 -0.7115  0.2437 -0.2645
27136SOL    HW293387   2.808   3.776   4.696  0.0749  0.6847 -0.5736
27137SOL     OW93388   7.048   9.208   4.486  0.0540  0.4016  0.7509
27137SOL    HW193389   7.073   9.290   4.527 -0.2315  0.6677  0.3982
27137SOL    HW293390   7.043   9.228   4.392  1.5039 -0.3963  0.4742
27138SOL     OW93391   2.625   8.346   5.576 -0.3054 -0.3902 -0.2309
27138SOL    HW193392   2.706   8.314   5.616  0.5347  0.7081 -0.9785
27138SOL    HW293393   2.569   8.269   5.571 -0.3870 -0.6218  2.8035
27139SOL     OW93394   8.040   1.814   3.404 -0.3082  0.3980  0.0109
27139SOL    HW193395   8.005   1.744   3.458 -0.9247  1.5919  1.2311
27139SOL    HW293396   8.083   1.873   3.466  1.6737  0.2827 -1.1644
27140SOL     OW93397   2.410   2.354   2.962  0.8588 -0.5759 -0.0004
27140SOL    HW193398   2.423   2.295   3.036 -2.9603  1.5380  2.7380
27140SOL    HW293399   2.337   2.316   2.913  0.6588  0.1012 -0.2521
27141SOL     OW93400   0.835   5.387   7.476  0.7442  0.0176  0.5934
27141SOL    HW193401   0.838   5.476   7.509 -0.9274  0.2022  0.3629
27141SOL    HW293402   0.749   5.355   7.503  1.7756 -1.9661  1.7600
27142SOL     OW93403   3.472   5.682   7.892 -0.5994 -0.0503  0.2005
27142SOL    HW193404   3.380   5.664   7.871 -0.8267 -0.8076  1.6854
27142SOL    HW293405   3.516   5.684   7.808 -1.2292 -3.9864 -0.4023
27143SOL     OW93406   8.545   4.436   6.095 -0.2005 -0.1623  0.5872
27143SOL    HW193407   8.528   4.527   6.120 -1.9223 -0.6051  1.1319
27143SOL    HW293408   8.471   4.412   6.040  1.7913 -0.3030 -2.2195
27144SOL     OW93409   4.531   2.815   3.173 -0.3670 -0.6838  0.3038
27144SOL    HW193410   4.542   2.870   3.096  1.3881 -1.4322 -0.0411
27144SOL    HW293411   4.553   2.727   3.143  1.2294 -0.8516  1.8139
27145SOL     OW93412   8.489   4.089   6.765  0.8792  0.2958  0.3154
27145SOL    HW193413   8.449   4.161   6.816 -0.4659  0.0791 -0.3716
27145SOL    HW293414   8.443   4.011   6.795  1.4022 -0.0872  0.1139
27146SOL     OW93415   2.331   8.503   1.964  0.3755 -0.3337  0.5355
27146SOL    HW193416   2.335   8.441   1.891 -1.8671 -1.1402  1.0019
27146SOL    HW293417   2.405   8.479   2.020  0.2699 -1.8067  0.0966
27147SOL     OW93418   2.506   9.508   5.830 -0.3538  0.4646 -0.2787
27147SOL    HW193419   2.500   9.603   5.829 -0.3371  0.4634 -0.6208
27147SOL    HW293420   2.594   9.490   5.863 -1.0725  0.5191  1.7925
27148SOL     OW93421   4.008   6.265   1.932  0.7666  0.8874  0.0782
27148SOL    HW193422   4.066   6.341   1.930  1.5301  0.3430  0.9409
27148SOL    HW293423   4.047   6.204   1.869  1.1569  0.5046  0.6885
27149SOL     OW93424   7.468   6.466   6.959 -0.0676 -0.0187  0.1039
27149SOL    HW193425   7.549   6.500   6.921  0.3790 -0.1740  0.8925
27149SOL    HW293426   7.423   6.424   6.886  1.7449 -2.1558  0.1129
27150SOL     OW93427   4.012   8.787   8.162 -0.1561  0.4836  0.2519
27150SOL    HW193428   3.991   8.855   8.098  1.3664  2.2084  1.4685
27150SOL    HW293429   4.043   8.713   8.110 -1.1536  0.9898 -1.0886
27151SOL     OW93430   8.973   6.070   9.677  0.1781  0.1744 -0.2562
27151SOL    HW193431   9.052   6.018   9.687 -0.6207 -0.9606  0.5047
27151SOL    HW293432   9.001   6.160   9.686  1.3336 -0.2290  0.2792
27152SOL     OW93433  10.243   4.618   8.848 -0.1190  0.4627 -0.0814
27152SOL    HW193434  10.195   4.561   8.788 -0.2842 -1.8603  2.0770
27152SOL    HW293435  10.181   4.686   8.872 -1.1523 -0.4486 -0.0922
27153SOL     OW93436   6.484   0.163   8.866  0.3183  0.7710  0.8673
27153SOL    HW193437   6.405   0.113   8.848  0.6289 -0.1062  1.8614
27153SOL    HW293438   6.528   0.115   8.936  1.3149  1.6977  0.9075
27154SOL     OW93439   5.358  10.003   2.482  0.8237 -0.6859 -0.3862
27154SOL    HW193440   5.388   9.959   2.403  1.9113 -0.9731  0.1609
27154SOL    HW293441   5.264  10.017   2.469  1.0542 -0.4119 -1.8624
27155SOL     OW93442   8.376   5.200   5.097 -0.2726 -0.7630  0.2614
27155SOL    HW193443   8.376   5.267   5.165  0.1205 -1.3393  0.8424
27155SOL    HW293444   8.291   5.157   5.105 -0.2393 -0.8088  0.3617
27156SOL     OW93445   0.802   1.163   7.056  0.2254 -1.0181 -0.4755
27156SOL    HW193446   0.893   1.150   7.027 -0.2495  0.2637 -2.7410
27156SOL    HW293447   0.804   1.247   7.102  0.1658 -0.8964 -0.6923
27157SOL     OW93448   2.123   8.745   2.388 -0.2225  0.5346  0.1243
27157SOL    HW193449   2.209   8.781   2.365 -0.7203  0.6292 -1.7854
27157SOL    HW293450   2.142   8.656   2.419  0.5111  0.0833 -1.4815
27158SOL     OW93451   5.565   9.775   4.353 -0.1935  0.5753  0.5961
27158SOL    HW193452   5.538   9.732   4.434 -0.0972  1.0203  0.8679
27158SOL    HW293453   5.597   9.861   4.381  3.0624 -0.4715  0.5620
27159SOL     OW93454   9.555   4.705   4.524  0.2086  0.8519  0.4403
27159SOL    HW193455   9.508   4.770   4.577  0.2020  0.8939  0.3837
27159SOL    HW293456   9.575   4.634   4.584  0.2485  0.9235  0.5115
27160SOL     OW93457   7.706   6.612   7.667  0.6136 -0.4848 -0.4718
27160SOL    HW193458   7.660   6.528   7.672  0.3616 -0.3197  0.1122
27160SOL    HW293459   7.657   6.669   7.727  0.4755  0.2214 -1.2396
27161SOL     OW93460   6.558   1.400   7.508  0.3187  0.0989  0.1143
27161SOL    HW193461   6.564   1.438   7.596  2.5781  1.2633 -0.4811
27161SOL    HW293462   6.555   1.306   7.523  1.6019  0.2324  1.4468
27162SOL     OW93463   0.570   5.756   7.848 -0.0301  0.1770  0.0864
27162SOL    HW193464   0.566   5.662   7.830 -1.4723  0.5535 -1.8199
27162SOL    HW293465   0.530   5.765   7.934 -0.7708 -0.8601 -0.1292
27163SOL     OW93466   9.032   1.899   5.781  0.5033 -0.2095 -0.3113
27163SOL    HW193467   8.994   1.877   5.866  0.5215  0.3847 -0.1443
27163SOL    HW293468   8.995   1.985   5.761  0.8262 -0.1655 -0.7119
27164SOL     OW93469   5.831   5.023   2.057 -0.0621  0.1175  0.6788
27164SOL    HW193470   5.892   4.979   1.998  0.4571  0.4596  0.9587
27164SOL    HW293471   5.811   5.106   2.014 -1.0699 -0.3859  0.1338
27165SOL     OW93472   4.995   8.121   3.139 -0.3093 -0.0328 -0.0091
27165SOL    HW193473   4.947   8.204   3.132  0.6072  0.5228  0.1964
27165SOL    HW293474   5.046   8.116   3.058 -0.7940 -0.6750 -0.2760
27166SOL     OW93475   2.970   6.915   6.164  0.2707  0.6884 -0.5146
27166SOL    HW193476   3.022   6.996   6.161  0.7921  0.3727  0.0185
27166SOL    HW293477   2.976   6.886   6.255 -0.3213  0.3093 -0.5950
27167SOL     OW93478   7.086   6.496   6.900 -0.4028  0.3721  0.4750
27167SOL    HW193479   7.136   6.559   6.952 -1.2953 -0.2965  2.2154
27167SOL    HW293480   7.153   6.441   6.858  0.3510  0.9607  0.8876
27168SOL     OW93481   3.901  10.324   1.130 -0.0893  0.0930  0.1655
27168SOL    HW193482   3.901  10.411   1.169 -0.7302 -0.2169  0.9037
27168SOL    HW293483   3.947  10.334   1.047 -0.9711  1.3393 -0.1977
27169SOL     OW93484   7.894   5.062   4.701 -0.0670  0.3483  0.3255
27169SOL    HW193485   7.913   5.133   4.762 -2.5079  0.6478  0.8233
27169SOL    HW293486   7.918   4.982   4.749 -2.3198  0.5478  1.9473
27170SOL     OW93487   7.671   9.893   1.395  0.0500 -0.2136  0.4981
27170SOL    HW193488   7.699   9.801   1.391  0.5026 -0.1218  1.1775
27170SOL    HW293489   7.752   9.943   1.382 -0.3738  0.1156 -1.0485
27171SOL     OW93490   2.671   6.708   6.871 -0.7344 -0.5557  0.0695
27171SOL    HW193491   2.576   6.701   6.887 -0.8175 -0.2928 -0.3017
27171SOL    HW293492   2.694   6.625   6.829 -0.2883 -1.7948  2.5587
27172SOL     OW93493   2.219   1.482   3.649  0.2524  0.1673  0.3623
27172SOL    HW193494   2.138   1.523   3.617  0.6359  0.8045  0.1967
27172SOL    HW293495   2.269   1.554   3.688  0.3184 -0.3893  1.3520
27173SOL     OW93496   1.666   1.607   4.586  0.1830 -0.2172 -0.3189
27173SOL    HW193497   1.697   1.576   4.501 -0.4133  1.1051 -1.0612
27173SOL    HW293498   1.679   1.533   4.645 -0.5263 -1.5991 -1.8117
27174SOL     OW93499   5.315   8.021   9.198  0.0046  0.0819 -0.4491
27174SOL    HW193500   5.375   7.973   9.140  1.9127  0.6666  0.9324
27174SOL    HW293501   5.337   8.113   9.183  0.4141  0.2462  1.0426
27175SOL     OW93502   3.553   9.214   7.845 -0.0653  0.3786  0.4201
27175SOL    HW193503   3.596   9.203   7.930 -0.2631 -2.3748  0.2356
27175SOL    HW293504   3.603   9.160   7.785 -1.6559 -0.0539 -0.5707
27176SOL     OW93505   5.525   8.642   8.914 -0.4590  0.1797 -0.2296
27176SOL    HW193506   5.432   8.663   8.903 -0.1520  2.0043  0.3386
27176SOL    HW293507   5.564   8.662   8.829 -0.4678  0.2025 -0.2281
27177SOL     OW93508   9.256   6.528   0.496  0.2378  0.0426 -0.3004
27177SOL    HW193509   9.177   6.539   0.443 -0.7583 -0.2494  1.0493
27177SOL    HW293510   9.270   6.613   0.537  2.1937  0.8874 -2.4960
27178SOL     OW93511   0.527   5.052   2.039  0.4494  0.1364 -0.2504
27178SOL    HW193512   0.594   4.985   2.025 -1.3201 -1.7877  0.0563
27178SOL    HW293513   0.507   5.047   2.132 -0.1123  0.7002 -0.3371
27179SOL     OW93514  10.121   9.011   3.679  0.8183  0.0395 -0.2223
27179SOL    HW193515  10.087   8.974   3.598  1.6327 -0.0698 -0.5302
27179SOL    HW293516  10.160   9.094   3.652  1.2696 -0.0910  0.0073
27180SOL     OW93517   5.513   8.994   9.003  0.5872  0.9748  0.0076
27180SOL    HW193518   5.577   9.024   9.067  0.2448  0.7188  0.4664
27180SOL    HW293519   5.450   8.943   9.053  1.2188 -0.6365 -0.7639
27181SOL     OW93520   1.544   0.505   5.263  0.1148 -0.1371 -0.2055
27181SOL    HW193521   1.504   0.419   5.247 -1.9802  0.9986 -1.4019
27181SOL    HW293522   1.480   0.552   5.317  0.3356  1.3415 -1.1847
27182SOL     OW93523   5.976   3.081   8.164  0.0797  0.1156  0.6648
27182SOL    HW193524   5.882   3.083   8.180 -0.1633  0.8983 -0.7068
27182SOL    HW293525   6.000   3.173   8.150  1.0078 -0.0955  0.7954
27183SOL     OW93526   4.091   5.602   7.987 -0.4320 -0.2509 -0.3497
27183SOL    HW193527   4.111   5.682   8.035 -0.5063 -0.3277 -0.1915
27183SOL    HW293528   4.034   5.552   8.045  0.6631 -1.0093  0.1075
27184SOL     OW93529   1.772   6.185   4.897  0.0265  0.2953 -0.5251
27184SOL    HW193530   1.841   6.119   4.895 -0.3299 -0.0635 -1.2738
27184SOL    HW293531   1.740   6.185   4.988  0.9104  0.3725 -0.2089
27185SOL     OW93532   6.155   4.785   6.455  0.0830 -0.2892  0.5960
27185SOL    HW193533   6.201   4.838   6.519 -0.1755  0.8559 -0.1421
27185SOL    HW293534   6.176   4.694   6.479 -1.3248  0.0212  3.2592
27186SOL     OW93535   6.200   2.120   9.750  0.7787 -0.1298  0.2271
27186SOL    HW193536   6.191   2.055   9.820  0.9827 -0.1964  0.1918
27186SOL    HW293537   6.288   2.158   9.763 -0.1698  1.7698  1.6651
27187SOL     OW93538   8.531   6.195   7.121  0.5418  0.1267  0.2342
27187SOL    HW193539   8.484   6.128   7.071  2.9747  0.1118 -2.2406
27187SOL    HW293540   8.616   6.202   7.079  1.5081  2.6665  2.3059
27188SOL     OW93541   3.500   7.325   9.309  0.4890  0.3623 -0.4618
27188SOL    HW193542   3.432   7.338   9.376  1.0565  0.6993  0.0555
27188SOL    HW293543   3.524   7.233   9.317  0.0043  0.2097 -0.7338
27189SOL     OW93544   6.579   1.988   5.427  0.4971  0.4240  0.3213
27189SOL    HW193545   6.575   1.895   5.407 -1.4895  0.7348 -1.0163
27189SOL    HW293546   6.624   1.993   5.511  1.3353 -1.6604  0.0458
27190SOL     OW93547   9.721   1.999   5.367 -0.1147  0.1352  0.0132
27190SOL    HW193548   9.750   2.085   5.338 -0.6562  0.6923  1.0420
27190SOL    HW293549   9.769   1.937   5.312 -1.0440  1.1033 -1.9775
27191SOL     OW93550   3.830   5.956   5.343 -0.4595 -0.2328 -0.1863
27191SOL    HW193551   3.827   6.049   5.366  0.8763 -0.2183  0.0106
27191SOL    HW293552   3.756   5.917   5.389  0.2904  0.3512  1.5604
27192SOL     OW93553   8.364   4.721  10.373  0.1928  0.0520 -0.0217
27192SOL    HW193554   8.343   4.644  10.321 -0.8688 -0.2965  0.8832
27192SOL    HW293555   8.285   4.775  10.369  1.0325  1.2762 -0.9196
27193SOL     OW93556   4.411   9.385   6.326 -0.3037 -0.7847  0.3914
27193SOL    HW193557   4.484   9.402   6.385 -0.8969  0.0506  0.9078
27193SOL    HW293558   4.433   9.431   6.245 -1.4505  1.7882  1.4510
27194SOL     OW93559   2.520   9.867   7.241 -0.2862  0.9130 -0.6112
27194SOL    HW193560   2.507   9.906   7.328  0.9167  1.5012 -0.6843
27194SOL    HW293561   2.502   9.939   7.180  2.4244  1.5621 -0.7373
27195SOL     OW93562   5.029   3.148   1.009  0.0395  0.0585  0.6654
27195SOL    HW193563   5.038   3.242   1.028 -0.5166 -0.1829  2.1913
27195SOL    HW293564   4.944   3.141   0.967  1.3632  0.6207 -2.4108
27196SOL     OW93565  10.380   8.038   2.942  0.4960  0.5820 -0.6585
27196SOL    HW193566  10.436   7.968   2.911  2.0792  1.4829  0.0509
27196SOL    HW293567  10.382   8.103   2.872  0.8578  0.8874 -0.3691
27197SOL     OW93568   0.470   8.792   6.553 -0.1677  0.2655  0.4949
27197SOL    HW193569   0.452   8.699   6.560 -3.7339  0.9407  3.1869
27197SOL    HW293570   0.541   8.807   6.616  0.3765 -0.5935  0.1014
27198SOL     OW93571   2.652   5.326   4.517 -0.3313 -0.5838  0.2660
27198SOL    HW193572   2.641   5.239   4.556  0.5679 -1.4004 -1.2237
27198SOL    HW293573   2.709   5.373   4.579 -0.1383 -1.3438  0.6749
27199SOL     OW93574   8.960   8.220   4.232 -0.4211  0.3425  0.5366
27199SOL    HW193575   8.902   8.180   4.297 -2.3049  2.2021  0.1247
27199SOL    HW293576   8.905   8.285   4.188  1.4056  0.6758 -1.4283
27200SOL     OW93577   3.035   4.948   7.152 -0.6468 -0.3573  0.0344
27200SOL    HW193578   3.076   5.022   7.107 -1.3356 -0.8715 -1.5097
27200SOL    HW293579   3.089   4.873   7.128 -1.3159 -0.7172 -0.3731
27201SOL     OW93580   3.320   1.422   8.252 -0.0798  0.6792 -0.5702
27201SOL    HW193581   3.322   1.331   8.281 -2.1678  1.1893  1.5647
27201SOL    HW293582   3.400   1.460   8.288 -0.9045  0.4336  1.7160
27202SOL     OW93583   2.794   1.808   0.417 -0.5759  0.1653 -0.2908
27202SOL    HW193584   2.734   1.736   0.436 -0.2796 -0.0652 -0.2408
27202SOL    HW293585   2.748   1.859   0.350 -0.6880 -0.1866 -0.4846
27203SOL     OW93586   7.788   3.829   7.511 -0.1421 -0.2133  0.5631
27203SOL    HW193587   7.790   3.887   7.587  1.8159  1.0894 -0.3827
27203SOL    HW293588   7.881   3.813   7.491 -0.4919  0.9327 -2.5637
27204SOL     OW93589   4.755   1.648   6.702  0.2149 -0.0278  0.1013
27204SOL    HW193590   4.715   1.634   6.616  0.0953  0.4767  0.0719
27204SOL    HW293591   4.849   1.635   6.687  0.1117 -0.7740  0.0757
27205SOL     OW93592   2.461   0.816   3.949 -0.0330 -0.2143  0.0835
27205SOL    HW193593   2.438   0.845   4.037  0.9644 -1.5903  0.8200
27205SOL    HW293594   2.509   0.735   3.961  1.3099  0.2533 -1.6557
27206SOL     OW93595   7.388   9.950   8.538 -0.2600  0.1156  0.0614
27206SOL    HW193596   7.438   9.963   8.619 -0.0675  3.4977 -0.4618
27206SOL    HW293597   7.298   9.973   8.561 -1.1022 -2.8942  0.2101
27207SOL     OW93598   2.498   2.232   9.656 -0.2636  0.5701 -0.0119
27207SOL    HW193599   2.574   2.200   9.609 -0.0308 -0.0676  0.7811
27207SOL    HW293600   2.470   2.310   9.607 -0.3485 -0.3557 -1.4939
27208SOL     OW93601   0.864   7.942   7.519 -0.0931  0.2902  0.2155
27208SOL    HW193602   0.914   8.002   7.575 -2.1864  1.9194  0.4781
27208SOL    HW293603   0.923   7.923   7.446  0.5810  3.0364 -0.0934
27209SOL     OW93604   1.734  10.123   7.883  0.2581 -0.6782 -0.0459
27209SOL    HW193605   1.751  10.090   7.795  1.6762 -0.1215 -0.0092
27209SOL    HW293606   1.710  10.215   7.871 -1.4990 -1.0944  0.0232
27210SOL     OW93607   9.365   6.891   6.380  0.5294  0.4572  0.4693
27210SOL    HW193608   9.380   6.868   6.471 -0.0416 -0.8275  0.2639
27210SOL    HW293609   9.332   6.981   6.383  0.1282  0.2903  1.5606
27211SOL     OW93610   5.462   8.300   8.902 -0.1013  0.2525  0.3736
27211SOL    HW193611   5.539   8.268   8.950  0.2630  0.3525 -0.1362
27211SOL    HW293612   5.389   8.284   8.962  0.1991 -0.6504  0.5251
27212SOL     OW93613   8.557   8.261   5.388 -0.0250  0.0322  0.2890
27212SOL    HW193614   8.637   8.230   5.344 -0.5095  0.1541 -0.7008
27212SOL    HW293615   8.536   8.192   5.451  0.2966 -0.4833 -0.1594
27213SOL     OW93616   8.633   7.868   7.982 -0.5435 -0.1293 -0.0621
27213SOL    HW193617   8.580   7.891   8.059  1.0303  2.5070  0.3566
27213SOL    HW293618   8.643   7.773   7.988 -1.8253 -0.2077  2.0745
27214SOL     OW93619  10.118   7.920   6.381 -0.1404 -0.0078 -0.8510
27214SOL    HW193620  10.189   7.936   6.319  1.5710  0.1427  1.0699
27214SOL    HW293621  10.111   7.825   6.385  2.0551 -0.1779  1.1143
27215SOL     OW93622   0.131   7.388   0.436 -0.0310  0.2441  0.7398
27215SOL    HW193623   0.199   7.453   0.418 -1.7688  2.5100  1.9537
27215SOL    HW293624   0.177   7.320   0.486  1.6121  1.0431  0.3987
27216SOL     OW93625  10.196   7.226   2.001  0.2458  0.1585  0.7248
27216SOL    HW193626  10.269   7.259   1.950 -0.0174 -0.1513  0.1361
27216SOL    HW293627  10.189   7.286   2.075  0.0355  1.1650 -0.0993
27217SOL     OW93628   2.271   0.311   0.945  0.1218  0.0174  0.1256
27217SOL    HW193629   2.196   0.341   0.995 -0.0401  0.1634 -0.2046
27217SOL    HW293630   2.275   0.216   0.961 -0.5898 -0.1218 -0.4625
27218SOL     OW93631   3.351   4.291   0.368  0.8516 -0.6859 -0.0595
27218SOL    HW193632   3.402   4.287   0.449  0.8228 -0.5036 -0.0319
27218SOL    HW293633   3.260   4.294   0.397  0.8190 -1.0770 -0.1104
27219SOL     OW93634   8.594   5.472   6.529 -0.3599  0.2471  0.6452
27219SOL    HW193635   8.508   5.474   6.487 -0.5695  0.4326  1.0738
27219SOL    HW293636   8.587   5.402   6.594  0.2306 -0.6029 -0.1786
27220SOL     OW93637   5.750   1.570   0.479 -0.4437  0.2774 -0.1970
27220SOL    HW193638   5.718   1.593   0.392  1.6729  1.2248 -0.7911
27220SOL    HW293639   5.671   1.561   0.532 -1.7693  0.0694 -2.1033
27221SOL     OW93640   2.497   9.529   8.183 -0.1372 -0.3790 -0.3112
27221SOL    HW193641   2.580   9.567   8.155  0.2120 -1.6884 -1.0974
27221SOL    HW293642   2.441   9.534   8.105 -0.9261  0.7606  0.2868
27222SOL     OW93643   8.940   2.206   7.041  0.3539  0.2003 -0.9209
27222SOL    HW193644   8.851   2.199   7.075  0.9155 -0.7561  0.4353
27222SOL    HW293645   8.979   2.278   7.090  1.3278 -1.5081  1.0183
27223SOL     OW93646   2.592   3.122   7.935  0.0067  0.4715 -0.0368
27223SOL    HW193647   2.536   3.166   7.870 -0.9122  0.5559  0.7803
27223SOL    HW293648   2.633   3.050   7.887  0.6121  1.5018 -1.1030
27224SOL     OW93649   6.576   8.357   2.238  0.7052 -0.1248 -0.3053
27224SOL    HW193650   6.556   8.341   2.330 -3.9295  3.6062 -0.3268
27224SOL    HW293651   6.630   8.436   2.238  0.4553  0.0517 -0.7888
27225SOL     OW93652   5.027   6.813   6.943  0.6845 -0.0266  0.6054
27225SOL    HW193653   5.075   6.827   7.026 -0.0306  0.6605  0.9175
27225SOL    HW293654   4.984   6.729   6.954  0.0549  0.3693  1.2055
27226SOL     OW93655   8.775   8.480   3.111  0.0948 -0.8764 -0.0660
27226SOL    HW193656   8.685   8.484   3.144  0.1621  0.2976  0.0414
27226SOL    HW293657   8.814   8.564   3.138  0.8678 -0.8794 -1.0959
27227SOL     OW93658   5.898   8.378   7.998  0.1269  0.0878  0.7744
27227SOL    HW193659   5.817   8.397   7.951 -0.2413 -0.8871  0.9904
27227SOL    HW293660   5.874   8.310   8.061  0.9766  0.2262  1.2635
27228SOL     OW93661   0.580   4.404   6.152 -0.1737  0.5394 -0.4800
27228SOL    HW193662   0.527   4.438   6.223  0.3697  1.3760 -0.4607
27228SOL    HW293663   0.659   4.371   6.195 -0.1206  0.4661 -0.6330
27229SOL     OW93664   4.060   4.674   6.369 -0.1034  0.4170 -0.1849
27229SOL    HW193665   4.068   4.766   6.344  1.6436  0.4032  0.1923
27229SOL    HW293666   4.127   4.662   6.436 -1.0360 -0.8801  0.5447
27230SOL     OW93667   3.884   8.684   0.199  0.3156 -0.1260  0.0139
27230SOL    HW193668   3.962   8.672   0.145  0.6199 -0.3100  0.4841
27230SOL    HW293669   3.811   8.683   0.137  0.6815 -0.0076 -0.4253
27231SOL     OW93670   0.982   6.283   5.309 -0.4905 -0.4618 -0.1133
27231SOL    HW193671   0.921   6.245   5.373  0.1042  1.2460  1.5566
27231SOL    HW293672   1.068   6.267   5.347 -0.0808  0.0207 -0.8236
27232SOL     OW93673   8.872   1.371   3.180 -0.6536 -0.3779 -0.3072
27232SOL    HW193674   8.940   1.437   3.168 -0.1312 -0.6770  0.8648
27232SOL    HW293675   8.869   1.325   3.096 -1.7655  1.7559 -1.5359
27233SOL     OW93676   8.395   0.509   5.322 -0.0162  0.0048  0.2849
27233SOL    HW193677   8.335   0.445   5.282 -1.8257  0.7457  1.6365
27233SOL    HW293678   8.368   0.593   5.286 -0.6679  0.4951  1.8194
27234SOL     OW93679   0.339   2.692   4.260 -0.3567 -0.0574  0.2628
27234SOL    HW193680   0.375   2.620   4.209 -0.0018  0.8367 -0.7922
27234SOL    HW293681   0.249   2.666   4.280 -0.2305 -0.7868 -0.1021
27235SOL     OW93682   2.426   8.789   4.279 -0.4671 -0.0798 -0.4802
27235SOL    HW193683   2.338   8.793   4.242 -0.4369 -0.2859 -0.5736
27235SOL    HW293684   2.462   8.707   4.247 -0.9079 -0.9228  1.0810
27236SOL     OW93685   2.943   6.384   6.728  0.1728 -0.2479  0.3032
27236SOL    HW193686   3.010   6.431   6.779  0.3373  0.4631 -0.5342
27236SOL    HW293687   2.959   6.412   6.638 -0.0791 -1.5270 -0.1484
27237SOL     OW93688   7.763   9.966   7.766  0.2941  0.3283  0.0469
27237SOL    HW193689   7.822   9.929   7.701  0.6072 -1.4468  1.2668
27237SOL    HW293690   7.799   9.938   7.850 -1.5786  0.2379  0.8749
27238SOL     OW93691   5.197   9.044   1.490  0.1235  0.2999 -0.6979
27238SOL    HW193692   5.195   9.072   1.399 -0.1748  2.3009 -0.1268
27238SOL    HW293693   5.230   9.120   1.538 -1.5449 -0.0155  1.0708
27239SOL     OW93694   6.697   0.053   4.398 -0.6520 -0.0674  0.0426
27239SOL    HW193695   6.677   0.132   4.348 -2.7983 -0.3940  0.2733
27239SOL    HW293696   6.657  -0.018   4.348  0.7969 -0.9606  0.1059
27240SOL     OW93697   2.861   8.741   0.814 -0.1059  0.2639  0.4936
27240SOL    HW193698   2.933   8.796   0.785  0.0146  0.1555  0.5859
27240SOL    HW293699   2.860   8.751   0.909 -0.0260  0.0322  0.5174
27241SOL     OW93700   0.559   2.656   8.092 -0.4068 -1.1307 -0.1814
27241SOL    HW193701   0.654   2.657   8.105 -0.0505 -2.1521 -2.2179
27241SOL    HW293702   0.526   2.595   8.157  0.4024 -1.1577  0.2168
27242SOL     OW93703   2.240  10.382   8.914  0.0520  0.4904  0.0203
27242SOL    HW193704   2.160  10.412   8.956 -0.0780 -0.2814  0.3432
27242SOL    HW293705   2.216  10.372   8.822 -0.2774  0.0896  0.1478
27243SOL     OW93706   7.131   2.228   4.801 -0.4543 -0.2078 -0.5111
27243SOL    HW193707   7.196   2.291   4.833  0.2063 -1.4688  0.7700
27243SOL    HW293708   7.182   2.168   4.746 -0.8100 -0.4004 -0.6282
27244SOL     OW93709   7.898   9.343   6.104 -0.3213  0.4212 -0.3123
27244SOL    HW193710   7.870   9.340   6.196 -0.0255 -0.2758 -0.2365
27244SOL    HW293711   7.886   9.253   6.073  0.8209  0.3427 -0.5792
27245SOL     OW93712   7.228   4.188   3.118 -0.2307  0.1873  0.1830
27245SOL    HW193713   7.256   4.205   3.028  0.4431 -2.7881 -0.2753
27245SOL    HW293714   7.285   4.243   3.172  0.6197  0.6373 -1.1391
27246SOL     OW93715   1.155   7.379   5.081 -0.3283 -0.1122 -0.2602
27246SOL    HW193716   1.131   7.409   4.993 -1.5990 -2.4096 -0.8073
27246SOL    HW293717   1.077   7.331   5.111 -0.6191  2.0783  2.9088
27247SOL     OW93718   0.063   9.584   8.711  0.4062  0.4809 -0.3178
27247SOL    HW193719   0.087   9.499   8.745 -0.9051  0.3730  0.4265
27247SOL    HW293720  -0.032   9.589   8.723  0.6175  2.6070  0.9718
27248SOL     OW93721   0.883   1.722   2.599  0.5729  0.4823 -0.1135
27248SOL    HW193722   0.802   1.741   2.646  0.2170 -2.1743  0.5230
27248SOL    HW293723   0.928   1.806   2.592 -1.9594  1.9338 -0.0069
27249SOL     OW93724   5.019   4.801   4.828  0.8771 -0.2393  0.2261
27249SOL    HW193725   5.088   4.829   4.889  0.9865  0.6911 -0.3088
27249SOL    HW293726   4.974   4.882   4.804  0.1869 -0.7264 -0.1491
27250SOL     OW93727   1.330   2.520   4.802  0.0313 -0.4196 -0.4285
27250SOL    HW193728   1.299   2.438   4.840  1.9853 -0.8890  0.2497
27250SOL    HW293729   1.340   2.501   4.708 -4.0649  0.5244 -1.2771
27251SOL     OW93730   9.210   5.335   4.973  1.1317 -0.0384  0.6468
27251SOL    HW193731   9.232   5.262   5.032  1.9889  0.8319  1.4342
27251SOL    HW293732   9.221   5.413   5.027 -0.5853  0.6507  0.0525
27252SOL     OW93733   6.866   1.021   3.248  0.2433  0.0634 -0.2290
27252SOL    HW193734   6.850   1.082   3.321 -1.6087  0.1908 -0.7055
27252SOL    HW293735   6.934   0.962   3.281 -0.4085  0.2365  1.5450
27253SOL     OW93736   7.303   5.264   2.147  0.6316  0.0721 -0.5467
27253SOL    HW193737   7.283   5.171   2.133 -2.1175  0.6160 -0.6568
27253SOL    HW293738   7.392   5.264   2.183  0.3147 -2.6732  0.4546
27254SOL     OW93739   2.301   3.893   0.589 -0.7845 -0.0552  0.0175
27254SOL    HW193740   2.276   3.809   0.551 -0.8151 -0.1232  0.1917
27254SOL    HW293741   2.396   3.890   0.595 -0.7946 -0.1200  0.1299
27255SOL     OW93742  10.187   1.651   9.012  0.7532 -0.3326  0.3119
27255SOL    HW193743  10.280   1.643   9.034  0.3686 -1.1913  1.7609
27255SOL    HW293744  10.186   1.667   8.918  2.4606  1.9176  0.5751
27256SOL     OW93745   6.353   5.059   3.341  0.2902 -0.1532 -0.0401
27256SOL    HW193746   6.298   5.109   3.281  1.4189 -0.7809 -1.6727
27256SOL    HW293747   6.339   4.968   3.316  1.6483 -0.3497 -0.1434
27257SOL     OW93748   8.480   1.410   6.591 -0.3048  0.3789 -0.0137
27257SOL    HW193749   8.411   1.462   6.633  0.1175  1.2186 -0.3468
27257SOL    HW293750   8.496   1.338   6.652  0.0576  1.3819  1.1007
27258SOL     OW93751   7.893   8.342   4.406 -0.5060 -0.3963  0.1116
27258SOL    HW193752   7.895   8.427   4.363 -2.9230 -0.5063 -0.3921
27258SOL    HW293753   7.946   8.354   4.485 -0.0120  1.2896 -0.4347
27259SOL     OW93754   2.791   8.196   5.764  0.1182 -0.3249 -0.2860
27259SOL    HW193755   2.698   8.176   5.779  0.1925 -0.8124 -0.4612
27259SOL    HW293756   2.837   8.148   5.834  0.0435  2.4692  1.8645
27260SOL     OW93757   2.271   7.072   9.352 -0.0122 -0.4947  0.2075
27260SOL    HW193758   2.253   6.980   9.334  0.4360 -0.4160 -0.6818
27260SOL    HW293759   2.270   7.114   9.266 -0.8239  0.4489  0.6564
27261SOL     OW93760   6.318   9.160   3.842 -0.3871  0.1788 -0.1668
27261SOL    HW193761   6.329   9.173   3.748 -1.4477 -0.5626 -0.4118
27261SOL    HW293762   6.284   9.070   3.850  1.9269 -0.6535  1.0882
27262SOL     OW93763   1.980   4.656   8.772  0.0046  0.3653 -0.4312
27262SOL    HW193764   2.018   4.715   8.837 -0.2568 -1.2096  1.2294
27262SOL    HW293765   1.935   4.589   8.824  0.3004 -1.3018 -2.2211
27263SOL     OW93766   0.699   9.722  10.314  0.0482  0.5335 -0.2625
27263SOL    HW193767   0.649   9.644  10.290  0.0822  0.3570  0.2362
27263SOL    HW293768   0.633   9.785  10.344  0.1387  0.2382  0.5617
27264SOL     OW93769   0.587   5.474   3.246 -0.4863  0.6803  0.7279
27264SOL    HW193770   0.630   5.403   3.197 -1.0781  0.3854  0.6296
27264SOL    HW293771   0.659   5.530   3.275  0.0249 -0.1785  1.1509
27265SOL     OW93772   9.911   6.051   6.882  0.0315 -0.2999 -0.3231
27265SOL    HW193773   9.860   6.114   6.831  1.4086  0.1523 -1.1987
27265SOL    HW293774   9.926   5.979   6.822  1.4784  0.1349 -0.5276
27266SOL     OW93775   0.167   5.926   8.856 -0.1170  0.2153  0.2004
27266SOL    HW193776   0.241   5.950   8.801 -0.2639  0.0074 -0.0892
27266SOL    HW293777   0.092   5.972   8.818 -0.3417 -0.4462 -0.1751
27267SOL     OW93778   9.200   9.361   3.289 -0.1011 -0.3960  0.0341
27267SOL    HW193779   9.139   9.410   3.234  0.9894  0.5590 -0.3751
27267SOL    HW293780   9.202   9.274   3.251 -2.3629 -0.9331  0.9884
27268SOL     OW93781   7.124   2.279   7.643 -0.1872 -0.6507 -0.4251
27268SOL    HW193782   7.074   2.197   7.654  1.9455 -1.9822 -0.0985
27268SOL    HW293783   7.149   2.279   7.550  1.2728 -1.2932 -0.0528
27269SOL     OW93784   7.237   3.115   9.146 -0.3042  1.0719  0.1262
27269SOL    HW193785   7.196   3.055   9.085  1.7516 -0.0174 -0.2984
27269SOL    HW293786   7.229   3.201   9.105  2.4040  0.1926 -2.6269
27270SOL     OW93787   0.161   9.117   8.081 -0.7900 -0.0521  0.3330
27270SOL    HW193788   0.247   9.082   8.103 -1.0956 -0.0120  1.6851
27270SOL    HW293789   0.116   9.124   8.165 -0.7898  3.4715  0.1734
27271SOL     OW93790   4.611  10.059   0.098 -0.1482 -0.4284  0.0998
27271SOL    HW193791   4.600  10.027   0.188 -0.5324  0.3101  0.3201
27271SOL    HW293792   4.590   9.983   0.043 -1.4282 -0.4588  0.6052
27272SOL     OW93793   9.678   3.026   4.171 -0.0890  0.0949 -0.4124
27272SOL    HW193794   9.641   3.003   4.257 -1.4722 -1.3999 -1.3474
27272SOL    HW293795   9.705   3.117   4.180 -0.8311  0.1814  1.4035
27273SOL     OW93796   1.549   4.986   4.620  0.0907  0.1779  0.2793
27273SOL    HW193797   1.597   4.936   4.686 -1.9020  0.2833  1.9057
27273SOL    HW293798   1.496   4.921   4.574 -0.0803  0.3786  0.1921
27274SOL     OW93799   6.831  10.295   9.562  0.3444  0.2802  0.1987
27274SOL    HW193800   6.742  10.323   9.540  0.9157  2.5058  0.4914
27274SOL    HW293801   6.827  10.199   9.561 -1.8863  0.3265 -0.4074
27275SOL     OW93802   2.911   9.152   1.495  0.3119 -0.6983  0.5279
27275SOL    HW193803   2.845   9.201   1.447  0.3976 -1.3244 -0.2350
27275SOL    HW293804   2.896   9.176   1.587  0.1563  0.5105  0.2063
27276SOL     OW93805   9.985   3.269   7.379 -0.6089 -0.2982 -0.5347
27276SOL    HW193806   9.924   3.241   7.311 -0.4165 -2.7973  0.1882
27276SOL    HW293807  10.008   3.187   7.425  1.4420  0.8921  0.7179
27277SOL     OW93808   7.959   0.606   2.377  0.0081 -0.1851  0.2709
27277SOL    HW193809   7.965   0.702   2.372 -0.9213 -0.1786 -1.0912
27277SOL    HW293810   7.870   0.586   2.349  0.4769 -1.5102 -0.3613
27278SOL     OW93811   1.715   9.321   5.134  0.1702 -0.5575  0.0241
27278SOL    HW193812   1.744   9.401   5.178 -1.6350  0.6773 -0.8981
27278SOL    HW293813   1.700   9.259   5.204  2.8211 -0.5619  0.6807
27279SOL     OW93814   3.723   6.332   9.879  0.1199 -0.4161 -0.3488
27279SOL    HW193815   3.639   6.357   9.918  0.3273 -0.2438 -0.0092
27279SOL    HW293816   3.702   6.312   9.787 -0.5669 -1.8352  0.0860
27280SOL     OW93817   9.619   9.600   0.739  0.4750 -0.4492 -0.3839
27280SOL    HW193818   9.636   9.507   0.720 -2.5848 -1.1600 -0.1205
27280SOL    HW293819   9.654   9.612   0.828 -0.7608 -1.9406  0.3647
27281SOL     OW93820   9.686   6.084   2.523  0.7567 -0.1107 -0.4939
27281SOL    HW193821   9.729   6.123   2.599 -2.0099 -0.3544  1.3509
27281SOL    HW293822   9.626   6.152   2.492  1.5233 -0.1780 -2.2461
27282SOL     OW93823   7.687  10.282   9.822 -0.0572 -0.2427  0.2065
27282SOL    HW193824   7.783  10.286   9.826  0.1669 -2.8818 -0.7795
27282SOL    HW293825   7.665  10.336   9.747  0.5618  0.9580  0.8511
27283SOL     OW93826   7.313   1.740   4.907 -0.2883  0.0179 -0.2918
27283SOL    HW193827   7.322   1.658   4.956 -1.7519  0.7726  1.3230
27283SOL    HW293828   7.229   1.733   4.863 -0.8603  1.0019  0.5999
27284SOL     OW93829   8.203   1.895   7.166 -0.5920 -0.1978  0.4882
27284SOL    HW193830   8.119   1.904   7.120 -0.4823  0.3287  0.3851
27284SOL    HW293831   8.179   1.858   7.251 -1.1734  1.6527  1.1929
27285SOL     OW93832  10.098   2.109   3.465  0.4579  0.2848  0.0987
27285SOL    HW193833  10.023   2.112   3.525  0.2775  0.7053 -0.1369
27285SOL    HW293834  10.137   2.197   3.471  0.5980  0.2460 -0.1946
27286SOL     OW93835   3.264   7.801   7.152  0.0304  0.1272 -0.1613
27286SOL    HW193836   3.304   7.850   7.223 -0.6418  1.6623 -0.8024
27286SOL    HW293837   3.193   7.751   7.194  0.1198  0.4348  0.3654
27287SOL     OW93838   1.571   7.453   5.216 -0.3384 -0.6916 -0.4518
27287SOL    HW193839   1.600   7.430   5.304  2.6616 -2.3166 -1.7242
27287SOL    HW293840   1.566   7.369   5.170 -0.3355  0.2381 -2.2446
27288SOL     OW93841   9.817   1.876   2.537 -0.0480 -0.5576  0.1965
27288SOL    HW193842   9.809   1.918   2.623  1.5625 -0.4561  0.3447
27288SOL    HW293843   9.871   1.799   2.554  1.5453  0.2480 -0.9186
27289SOL     OW93844   0.947   6.100   2.196  0.1971  0.0735  0.2947
27289SOL    HW193845   1.015   6.154   2.236  0.6052  0.8381 -1.3287
27289SOL    HW293846   0.866   6.150   2.208 -0.0444 -0.6511  1.8796
27290SOL     OW93847   4.362   9.376   4.973 -0.1251  0.1381  0.1825
27290SOL    HW193848   4.274   9.401   5.001  0.1495  0.5519  0.6867
27290SOL    HW293849   4.407   9.459   4.958  0.0070 -0.0750 -0.6382
27291SOL     OW93850   3.468   1.702   9.206 -0.0202  0.0399 -0.1753
27291SOL    HW193851   3.472   1.795   9.228  0.4278  0.1684 -0.7816
27291SOL    HW293852   3.550   1.666   9.240 -0.6474 -0.3506  0.9855
27292SOL     OW93853   6.601   0.051   8.203 -0.2627 -0.2390 -0.0891
27292SOL    HW193854   6.634   0.103   8.276 -1.0578 -2.1885  1.7367
27292SOL    HW293855   6.507   0.042   8.220 -0.1381 -2.3341 -0.2587
27293SOL     OW93856   8.632   7.429   9.012 -0.1388 -0.6652  0.4722
27293SOL    HW193857   8.704   7.491   9.019  0.1756 -0.7368 -1.6651
27293SOL    HW293858   8.661   7.353   9.062  2.4330 -1.6756 -2.2642
27294SOL     OW93859   9.972   0.166   0.139 -1.1327  0.0759 -0.1052
27294SOL    HW193860   9.943   0.186   0.228 -0.4524 -0.7921  0.3263
27294SOL    HW293861  10.020   0.084   0.147  2.5884  2.0220 -0.5148
27295SOL     OW93862   6.132   7.529   9.052  0.2944 -0.7605  0.1473
27295SOL    HW193863   6.200   7.465   9.036  0.2472 -0.7326 -0.1608
27295SOL    HW293864   6.179   7.612   9.063  0.3526 -0.8401  0.5190
27296SOL     OW93865   5.730   3.944   1.495 -0.1478 -0.1417 -0.0613
27296SOL    HW193866   5.704   3.876   1.433 -0.6175  0.5563 -0.6593
27296SOL    HW293867   5.771   4.011   1.440  2.4060 -0.9205  0.7807
27297SOL     OW93868   6.619   1.580   5.146  0.1037 -0.0793 -0.9083
27297SOL    HW193869   6.550   1.539   5.094 -0.3296 -2.6199  1.4326
27297SOL    HW293870   6.681   1.509   5.164  0.5606  0.8206  1.4208
27298SOL     OW93871   1.757   5.007   4.927  0.1918 -0.3278 -0.8462
27298SOL    HW193872   1.756   5.097   4.960  0.3222 -0.5835 -0.1166
27298SOL    HW293873   1.693   4.961   4.981 -2.0427 -0.0588 -3.1156
27299SOL     OW93874   9.390   5.869   6.709  0.4324  0.3893  0.4611
27299SOL    HW193875   9.382   5.942   6.647  0.3409  0.3158  0.3853
27299SOL    HW293876   9.329   5.803   6.675  0.2318  0.4290  0.7425
27300SOL     OW93877   9.069  10.005   5.487 -0.3388  0.0513  0.3676
27300SOL    HW193878   9.117  10.073   5.440 -1.1432  1.0400  0.9429
27300SOL    HW293879   9.074   9.929   5.429  0.0945  0.7528 -0.5542
27301SOL     OW93880   1.325   3.821   8.870  0.4221  0.4441 -0.1425
27301SOL    HW193881   1.287   3.762   8.805 -0.4523  1.4479 -0.5861
27301SOL    HW293882   1.336   3.904   8.823 -0.5796  1.3061  1.0688
27302SOL     OW93883   9.735   9.688   8.871  0.2646 -0.1629  0.7334
27302SOL    HW193884   9.658   9.720   8.919 -0.8641  1.2445 -1.7987
27302SOL    HW293885   9.701   9.617   8.817  0.2842  1.4134 -1.4927
27303SOL     OW93886   3.579   8.638   3.816 -0.3959 -0.4282  0.0356
27303SOL    HW193887   3.537   8.553   3.801 -1.8697 -0.3337  2.9227
27303SOL    HW293888   3.585   8.678   3.729 -1.4559 -2.6516 -1.1450
27304SOL     OW93889   4.491   6.602   5.626 -0.4060 -0.6138  0.3928
27304SOL    HW193890   4.401   6.599   5.594 -0.3627 -1.5022  0.3321
27304SOL    HW293891   4.484   6.628   5.718 -0.7030 -0.4221  0.3162
27305SOL     OW93892   0.834   2.717   3.035 -0.3907 -0.0632  0.3737
27305SOL    HW193893   0.884   2.646   2.994  0.6720  1.6748 -1.5371
27305SOL    HW293894   0.880   2.735   3.117  1.7185  0.9085 -0.9300
27306SOL     OW93895   1.502  10.348   3.838 -0.1367 -0.3999 -0.2613
27306SOL    HW193896   1.570  10.349   3.905  1.2957 -0.7688 -1.6228
27306SOL    HW293897   1.550  10.356   3.755 -1.9042  1.5509 -1.2225
27307SOL     OW93898   5.683   0.935   3.196 -0.1862  0.1344  0.2847
27307SOL    HW193899   5.701   1.017   3.242 -2.3647  1.3406 -0.8831
27307SOL    HW293900   5.708   0.867   3.259  3.4732  1.5422  0.6228
27308SOL     OW93901   4.538   3.648   0.724  0.0323 -0.0227  0.0847
27308SOL    HW193902   4.504   3.656   0.813 -0.0368  3.1313 -0.1193
27308SOL    HW293903   4.523   3.733   0.685  2.3186 -0.5323 -2.1640
27309SOL     OW93904   0.561   4.410   4.963  0.0714 -0.4768 -0.0543
27309SOL    HW193905   0.588   4.388   4.874 -0.9688 -1.1751 -0.2209
27309SOL    HW293906   0.558   4.326   5.009  1.0405 -0.0684  0.7767
27310SOL     OW93907   4.763   7.686   6.984  0.8358 -0.4533 -0.0221
27310SOL    HW193908   4.706   7.745   6.935  0.6114 -2.0358 -1.8137
27310SOL    HW293909   4.847   7.731   6.987  0.9082 -0.3382 -2.1038
27311SOL     OW93910   6.948   7.868   4.349 -0.3221  1.0342  0.4200
27311SOL    HW193911   7.009   7.870   4.423 -0.3144  4.1390  0.4621
27311SOL    HW293912   6.872   7.917   4.380 -1.7960 -0.5644 -0.5195
27312SOL     OW93913   3.266   6.680   2.427  0.6098  0.6060  0.1144
27312SOL    HW193914   3.206   6.692   2.500 -1.1225  1.6046 -1.3727
27312SOL    HW293915   3.217   6.627   2.364  0.6127  2.6554 -1.7705
27313SOL     OW93916   2.135   4.616   5.886 -0.4762  0.2773 -0.0925
27313SOL    HW193917   2.086   4.698   5.898 -1.1458  0.1261 -1.4875
27313SOL    HW293918   2.159   4.617   5.793 -1.2227 -1.4799 -0.3363
27314SOL     OW93919   5.415  10.366   2.105  0.9595 -0.2855 -0.0726
27314SOL    HW193920   5.436  10.410   2.188 -2.5112  2.1140 -0.2422
27314SOL    HW293921   5.443  10.428   2.038 -2.3539  1.1225 -0.3628
27315SOL     OW93922   5.829   1.334   5.026  0.7078 -0.1032 -0.8440
27315SOL    HW193923   5.885   1.262   5.054 -0.3510 -1.3264 -1.7519
27315SOL    HW293924   5.749   1.324   5.077  1.3456  1.8070  0.6652
27316SOL     OW93925   6.261   1.490  10.213 -0.3174 -0.0080 -0.0077
27316SOL    HW193926   6.188   1.552  10.215 -0.6874 -0.4230 -0.4189
27316SOL    HW293927   6.232   1.417  10.269 -0.6947 -0.6868 -1.0673
27317SOL     OW93928   9.972   6.810   2.638  0.5924  0.1942 -0.4035
27317SOL    HW193929   9.889   6.817   2.685  0.3752  1.9990 -0.9476
27317SOL    HW293930   9.968   6.726   2.593 -1.7882  1.0157 -1.9073
27318SOL     OW93931  10.067   7.066   7.881  0.6840 -0.8425  0.1486
27318SOL    HW193932  10.053   7.083   7.787  1.5834 -0.9544 -0.0098
27318SOL    HW293933   9.992   7.012   7.906  1.0469 -1.8176 -0.7854
27319SOL     OW93934   1.898   8.391   2.199  0.5253 -0.3152  0.3079
27319SOL    HW193935   1.933   8.399   2.288  0.2839 -0.3776  0.4090
27319SOL    HW293936   1.957   8.445   2.145  0.1613  0.4279  0.6440
27320SOL     OW93937   1.159   2.096   0.055 -0.2483  0.1067 -0.5809
27320SOL    HW193938   1.149   2.012   0.011  0.0574  1.0337 -2.5134
27320SOL    HW293939   1.254   2.105   0.069  0.0409  1.2740 -2.8662
27321SOL     OW93940   0.547   1.913   4.380 -0.5202  0.2952  0.0537
27321SOL    HW193941   0.517   1.830   4.418 -2.0093  1.7934  2.3884
27321SOL    HW293942   0.552   1.896   4.286  0.0443 -2.6546  0.5177
27322SOL     OW93943  10.354   5.849   3.016 -0.7165  0.2008  0.3837
27322SOL    HW193944  10.431   5.808   2.978 -2.6399 -3.3730 -0.1237
27322SOL    HW293945  10.378   5.941   3.027  2.9974 -0.4215 -1.1635
27323SOL     OW93946   9.065  10.279   2.234 -0.0476 -0.0277 -0.3920
27323SOL    HW193947   8.984  10.307   2.278  0.3545  3.5987 -1.6576
27323SOL    HW293948   9.135  10.324   2.281  0.9707 -0.7717 -1.1438
27324SOL     OW93949   0.708   9.937   7.699 -0.0009  0.1546  0.6905
27324SOL    HW193950   0.658   9.883   7.760 -1.0356  0.1398 -0.1468
27324SOL    HW293951   0.673  10.026   7.711 -1.1870 -0.0750 -0.8260
27325SOL     OW93952   0.759   8.610   6.582 -0.2342 -0.2462  0.1353
27325SOL    HW193953   0.770   8.684   6.522  0.4083  0.2867  0.8775
27325SOL    HW293954   0.787   8.644   6.667  1.6561 -1.7891  0.2165
27326SOL     OW93955   7.035   2.432   4.656 -0.0821 -0.4448 -0.6572
27326SOL    HW193956   7.016   2.407   4.566 -3.2537 -0.7237 -0.0279
27326SOL    HW293957   7.019   2.352   4.707 -1.0606  0.3991  0.4125
27327SOL     OW93958   7.303   0.847   3.335  0.4047 -0.1035 -0.3297
27327SOL    HW193959   7.314   0.938   3.305 -0.8141  0.1664  0.0076
27327SOL    HW293960   7.374   0.800   3.291 -0.3546  0.5686 -2.4405
27328SOL     OW93961   0.825   6.955   5.616 -0.1926 -0.3013  0.2191
27328SOL    HW193962   0.914   6.935   5.643  0.7269  1.4516 -1.2815
27328SOL    HW293963   0.833   6.986   5.526 -2.3246 -0.1092  0.0256
27329SOL     OW93964  10.278   9.847   7.761 -0.1279 -0.0585  0.0531
27329SOL    HW193965  10.198   9.814   7.719 -0.2251  0.1439  0.0793
27329SOL    HW293966  10.349   9.814   7.706 -0.2394 -0.0799 -0.0794
27330SOL     OW93967   9.000   8.452   0.643  0.4381  0.4378  0.0773
27330SOL    HW193968   8.985   8.363   0.674 -0.3468  0.4323 -0.2999
27330SOL    HW293969   8.913   8.488   0.627  0.6702  1.8192  1.6782
27331SOL     OW93970   2.572   9.793   0.805  0.5539  0.9223  0.0870
27331SOL    HW193971   2.639   9.771   0.870  0.7879  0.6713 -0.2343
27331SOL    HW293972   2.495   9.742   0.830  1.0228 -0.1081 -0.5232
27332SOL     OW93973   2.536   1.403   9.228 -0.3276  0.4099 -0.0371
27332SOL    HW193974   2.584   1.321   9.235 -1.0004 -0.1048 -1.1726
27332SOL    HW293975   2.577   1.450   9.156 -0.7347  0.5077 -0.2117
27333SOL     OW93976   3.188   0.163   6.082  0.4448 -0.4274  0.7857
27333SOL    HW193977   3.122   0.233   6.076  1.6574  0.6318 -1.8064
27333SOL    HW293978   3.234   0.181   6.164  0.8883  2.0496  0.0870
27334SOL     OW93979   2.611   3.755   6.581 -0.4788 -0.3380 -0.8344
27334SOL    HW193980   2.700   3.760   6.546 -1.0605  0.6464 -2.2633
27334SOL    HW293981   2.571   3.680   6.536  0.1556 -1.9834  1.1961
27335SOL     OW93982   3.962   6.647   8.753  0.3469  0.6593 -0.4235
27335SOL    HW193983   3.996   6.680   8.836 -1.3231  0.9062  0.2070
27335SOL    HW293984   3.937   6.726   8.705  1.2603  0.5148 -1.1604
27336SOL     OW93985   1.451   7.820   7.922  0.2987  0.0230 -0.3938
27336SOL    HW193986   1.498   7.880   7.981  1.8087  0.2166 -1.7221
27336SOL    HW293987   1.441   7.740   7.972 -2.1791  1.4299  1.6095
27337SOL     OW93988   8.628   8.779   1.785  0.3246  0.0403  0.1045
27337SOL    HW193989   8.598   8.804   1.697  0.5123 -1.2969 -0.3600
27337SOL    HW293990   8.723   8.773   1.777  0.2494 -1.4273  0.0038
27338SOL     OW93991   8.886   1.720   3.294 -0.1509 -0.3126  0.1546
27338SOL    HW193992   8.878   1.701   3.387 -1.4080  1.0493  0.3695
27338SOL    HW293993   8.925   1.642   3.256  1.2326 -0.5463  1.9569
27339SOL     OW93994   8.704   6.283   9.454 -0.7686  0.3037 -0.1636
27339SOL    HW193995   8.719   6.371   9.488 -0.9516  0.4763 -0.5218
27339SOL    HW293996   8.779   6.267   9.396 -0.7521  0.2371 -0.1245
27340SOL     OW93997   9.177   7.889   7.474 -0.5926 -0.0081 -0.7233
27340SOL    HW193998   9.174   7.944   7.553  1.0263 -2.5171  1.2700
27340SOL    HW293999   9.093   7.904   7.431 -0.3120  3.8146 -0.2828
27341SOL     OW94000   6.399   7.875   4.405  0.2710  0.1269 -0.9073
27341SOL    HW194001   6.327   7.857   4.466  1.9323  0.1761  1.1693
27341SOL    HW294002   6.385   7.966   4.378 -0.2228  0.2805 -0.1716
27342SOL     OW94003   6.198   6.823   9.798  0.2253 -0.0294 -0.5283
27342SOL    HW194004   6.262   6.787   9.859  0.5812 -0.2839 -1.0393
27342SOL    HW294005   6.205   6.767   9.720 -0.5031  0.0405 -0.6518
27343SOL     OW94006   5.792   7.491   9.945  0.0608  0.4567  0.0402
27343SOL    HW194007   5.736   7.417   9.921 -0.4477  0.6333  0.6682
27343SOL    HW294008   5.877   7.470   9.906  0.3907 -1.2729  1.5660
27344SOL     OW94009  10.314   2.017   6.095  0.2139 -0.4023 -0.2305
27344SOL    HW194010  10.369   2.031   6.172 -0.4402  1.0745 -0.0106
27344SOL    HW294011  10.236   1.975   6.129 -0.8677  1.8551  0.2629
27345SOL     OW94012   2.254   0.258   7.375  0.2421 -0.7119  0.2240
27345SOL    HW194013   2.343   0.255   7.340  0.8683  0.5418  1.5828
27345SOL    HW294014   2.199   0.280   7.300  1.6866  3.2097  0.0750
27346SOL     OW94015   3.356   2.414   7.382 -1.0003 -0.5994  0.3079
27346SOL    HW194016   3.362   2.439   7.474  1.1539  1.1644 -0.2276
27346SOL    HW294017   3.291   2.473   7.345  0.5157  0.9843  0.0697
27347SOL     OW94018   7.326   6.075   6.332 -0.2567 -0.4873 -0.0621
27347SOL    HW194019   7.295   5.995   6.290 -1.4338 -0.0548 -0.0538
27347SOL    HW294020   7.251   6.105   6.383  0.7592 -0.3448  1.3744
27348SOL     OW94021   0.001  10.043   4.700  0.0897 -0.3528  0.4614
27348SOL    HW194022  -0.048  10.080   4.627  0.2901  0.5610  0.7798
27348SOL    HW294023   0.031   9.957   4.668 -0.0027 -0.0523 -0.4473
27349SOL     OW94024   9.876   4.425   1.329  0.3596 -0.1597 -0.8486
27349SOL    HW194025   9.959   4.386   1.303  1.6504  1.2316  0.9350
27349SOL    HW294026   9.838   4.363   1.391  1.1375  0.1816 -0.0173
27350SOL     OW94027   2.743   1.990   6.091  0.7357 -0.2090 -0.0548
27350SOL    HW194028   2.709   1.940   6.164  1.8088 -0.3019  0.3914
27350SOL    HW294029   2.759   1.925   6.022 -1.5536  0.0323 -0.9217
27351SOL     OW94030   3.989   1.801   5.325  0.2809 -0.4794 -0.2901
27351SOL    HW194031   3.922   1.869   5.324  0.1678 -0.5905 -0.9408
27351SOL    HW294032   3.943   1.721   5.302  0.5321 -0.6597 -0.1737
27352SOL     OW94033   3.889   6.983   0.544  0.4522  0.3191 -0.3906
27352SOL    HW194034   3.882   6.917   0.474  0.2504  1.5710 -1.5873
27352SOL    HW294035   3.864   7.065   0.502  3.3116  1.6715  0.3168
27353SOL     OW94036   6.732   1.409   4.737  0.2423  0.3832 -0.3051
27353SOL    HW194037   6.687   1.338   4.784  0.5520  0.2933 -0.1406
27353SOL    HW294038   6.767   1.366   4.659  0.5746  0.3157 -0.1212
27354SOL     OW94039   7.399  10.172   0.484  0.2102 -0.2622 -0.0463
27354SOL    HW194040   7.316  10.208   0.517  0.5836 -0.9061  1.7266
27354SOL    HW294041   7.453  10.160   0.563  2.2193  0.6719 -1.2095
27355SOL     OW94042   3.318   9.947   0.913  0.0190  0.1781  0.1303
27355SOL    HW194043   3.266   9.974   0.837 -1.2699  1.1040  1.3100
27355SOL    HW294044   3.263   9.884   0.959  0.5533  0.0451  0.5987
27356SOL     OW94045   7.187   5.707   7.821  0.1985 -0.1480 -0.2314
27356SOL    HW194046   7.149   5.692   7.907  0.0950 -0.6030 -0.3535
27356SOL    HW294047   7.186   5.802   7.810 -0.8363 -0.1442 -0.2014
27357SOL     OW94048   3.193   6.131   1.634 -0.2283 -0.3163 -0.4750
27357SOL    HW194049   3.134   6.179   1.576  0.9803 -1.1704 -2.5518
27357SOL    HW294050   3.281   6.155   1.604  0.4232 -2.8461 -0.8298
27358SOL     OW94051   8.902   9.876   0.517  0.3612  0.0785 -0.3793
27358SOL    HW194052   8.855   9.949   0.558  0.3513 -2.2269  4.4602
27358SOL    HW294053   8.987   9.875   0.561  0.6567 -2.2835 -0.8914
27359SOL     OW94054  10.173   8.339   1.074 -0.5131 -0.1925  0.0656
27359SOL    HW194055  10.153   8.346   0.981 -2.0787 -1.3569  0.2820
27359SOL    HW294056  10.110   8.277   1.108  1.2758 -1.3111  1.5524
27360SOL     OW94057   4.356   2.015   8.494  0.4067 -0.5193  0.2517
27360SOL    HW194058   4.348   2.105   8.523  0.3927 -0.5255  0.2660
27360SOL    HW294059   4.273   1.974   8.516  0.8476 -0.8620  1.3514
27361SOL     OW94060   6.309   1.124   8.348 -0.0364  0.1236  0.0877
27361SOL    HW194061   6.402   1.123   8.370 -0.2370 -0.1254  1.0018
27361SOL    HW294062   6.267   1.076   8.420 -0.8743  0.2720 -0.2844
27362SOL     OW94063   8.792   9.659   0.412  0.1412  0.4394  0.4822
27362SOL    HW194064   8.848   9.656   0.334 -0.9758  0.5640 -0.3410
27362SOL    HW294065   8.827   9.732   0.463  0.5298  0.7359 -0.1874
27363SOL     OW94066   2.557   9.706   8.912  0.0766 -0.6558 -0.1168
27363SOL    HW194067   2.574   9.758   8.991 -2.5415  1.4162 -0.7895
27363SOL    HW294068   2.505   9.632   8.942  1.0525 -1.1768  0.3665
27364SOL     OW94069   0.328   2.006   7.749 -0.6998  0.3076 -0.5244
27364SOL    HW194070   0.246   2.048   7.772  0.1156  1.1383  0.9988
27364SOL    HW294071   0.337   1.934   7.812 -0.2878  0.2076 -0.6902
27365SOL     OW94072   0.891   0.763   9.416 -0.1352 -0.0442 -0.2013
27365SOL    HW194073   0.971   0.712   9.405  0.8466  1.4286 -0.1350
27365SOL    HW294074   0.907   0.817   9.494 -1.4214 -0.1373  0.1528
27366SOL     OW94075   2.013   9.503   4.311 -0.2008  0.0605  0.8571
27366SOL    HW194076   2.060   9.458   4.240  1.2374  0.7603  1.3330
27366SOL    HW294077   2.073   9.500   4.385 -0.8469  1.1484  1.4454
27367SOL     OW94078   4.719   9.493   1.855  0.3933  0.1130  0.0367
27367SOL    HW194079   4.718   9.427   1.786 -0.2266  0.1983 -0.0361
27367SOL    HW294080   4.807   9.486   1.894  0.1162 -1.1742  0.4500
27368SOL     OW94081   0.045   5.952   5.334 -0.9278 -0.2614  0.7174
27368SOL    HW194082  -0.045   5.984   5.333 -0.8510  0.0001  1.3301
27368SOL    HW294083   0.060   5.919   5.246 -0.6330  2.5110 -0.3823
27369SOL     OW94084   6.995   5.293   8.424  0.0186  0.1394 -0.2164
27369SOL    HW194085   6.906   5.282   8.389 -0.5019  0.2657  1.0155
27369SOL    HW294086   7.033   5.362   8.371 -0.0625 -0.9404 -1.7594
27370SOL     OW94087   3.873   0.261   1.654 -0.0648 -0.6010  0.3599
27370SOL    HW194088   3.896   0.290   1.742  0.7012 -1.6611  0.5189
27370SOL    HW294089   3.943   0.295   1.598 -0.7192  0.3537  0.0821
27371SOL     OW94090   4.428   9.329   1.688  0.3152  0.0158 -0.2732
27371SOL    HW194091   4.431   9.399   1.623  2.1808  1.7230  1.5191
27371SOL    HW294092   4.519   9.313   1.711 -0.1977 -1.6917  0.7481
27372SOL     OW94093   1.437   1.488   5.589 -0.2118 -0.6826 -0.2321
27372SOL    HW194094   1.410   1.458   5.676 -1.0029 -0.4779 -0.3991
27372SOL    HW294095   1.355   1.505   5.543  0.1972  1.0000 -0.4052
27373SOL     OW94096   2.391   7.613   0.413 -0.0259  0.3101 -0.1534
27373SOL    HW194097   2.400   7.687   0.352 -2.3465  0.9469  0.2012
27373SOL    HW294098   2.303   7.580   0.398  0.7645 -2.1163  0.0750
27374SOL     OW94099   8.919   4.061   9.226 -0.1747  0.1583 -0.3456
27374SOL    HW194100   8.855   4.120   9.184 -1.3383 -0.9001 -0.1183
27374SOL    HW294101   8.895   3.974   9.194  0.6987 -0.3443  0.3386
27375SOL     OW94102   1.754   7.578   7.448  0.0176  0.0853 -0.8051
27375SOL    HW194103   1.680   7.526   7.419 -0.7504  0.8959 -0.3400
27375SOL    HW294104   1.738   7.665   7.414  0.9466  0.1989 -0.9936
27376SOL     OW94105   9.752   9.440   5.819  0.8008  0.0303  0.2229
27376SOL    HW194106   9.659   9.440   5.798  0.6917  2.3959  0.4271
27376SOL    HW294107   9.755   9.421   5.913  0.4691  0.5500  0.3432
27377SOL     OW94108   7.813   2.317   6.047  0.5224 -0.2184 -0.2292
27377SOL    HW194109   7.897   2.285   6.079  2.0015  2.7975 -0.7059
27377SOL    HW294110   7.784   2.379   6.114 -0.6112 -0.1461 -0.7658
27378SOL     OW94111   8.442   9.317   0.631  0.0389 -0.0649  0.5949
27378SOL    HW194112   8.357   9.283   0.602 -0.9400  1.8098  1.1492
27378SOL    HW294113   8.474   9.370   0.558  0.4251 -0.2163  0.6487
27379SOL     OW94114   1.911   6.512   9.901 -0.4888  0.3865 -0.6860
27379SOL    HW194115   1.949   6.588   9.943 -0.8086  0.5654 -0.7178
27379SOL    HW294116   1.910   6.445   9.969 -0.1868  0.3999 -0.6655
27380SOL     OW94117   8.399   7.026   5.511 -0.0987 -0.2074 -0.1364
27380SOL    HW194118   8.351   7.047   5.592  0.3745 -0.3313  0.1846
27380SOL    HW294119   8.421   7.111   5.474 -1.8870 -0.1305 -1.1093
27381SOL     OW94120   5.796   1.893   6.019 -0.3023  0.3970  0.0034
27381SOL    HW194121   5.822   1.877   5.928 -0.7975 -0.5628  0.0217
27381SOL    HW294122   5.707   1.927   6.013  0.0492  1.3827  0.0838
27382SOL     OW94123   1.049   2.614   7.902 -0.1712 -0.2260  0.0423
27382SOL    HW194124   0.990   2.620   7.827 -1.1033  2.3096  0.8623
27382SOL    HW294125   1.120   2.676   7.881  1.2819 -1.8449 -0.0870
27383SOL     OW94126   8.761   2.290   5.856 -0.1281  0.2132  0.6500
27383SOL    HW194127   8.818   2.366   5.847  0.0006  0.0019 -0.4213
27383SOL    HW294128   8.684   2.323   5.902  0.7814  0.5315  1.9962
27384SOL     OW94129   4.233   7.676   5.362 -0.3810  0.4664 -0.2186
27384SOL    HW194130   4.139   7.693   5.369 -0.6829 -0.8214 -0.8185
27384SOL    HW294131   4.242   7.630   5.279  0.8732  1.1008 -0.4477
27385SOL     OW94132   2.886   7.582   8.084  0.7124 -0.5934  0.6365
27385SOL    HW194133   2.926   7.599   8.170  0.5850  0.8779  0.4433
27385SOL    HW294134   2.955   7.603   8.021 -0.4057  2.6306  0.2721
27386SOL     OW94135   6.522   4.159   0.227 -0.3396  0.0424 -0.3946
27386SOL    HW194136   6.615   4.173   0.211 -0.5507 -1.0654 -3.1098
27386SOL    HW294137   6.517   4.071   0.265 -0.2775  0.3244  0.2913
27387SOL     OW94138   7.230   9.773   0.417 -0.0447  0.2023 -0.3984
27387SOL    HW194139   7.154   9.739   0.369 -0.5822  1.6937 -0.6654
27387SOL    HW294140   7.305   9.747   0.364 -0.5390  0.6452 -1.3512
27388SOL     OW94141   7.941   5.124   8.082 -0.9413 -0.0904  0.2345
27388SOL    HW194142   7.969   5.190   8.019  1.3454  0.7415  1.9561
27388SOL    HW294143   7.897   5.174   8.151  1.3517 -0.1394  1.8591
27389SOL     OW94144   6.993   7.206   6.885 -0.3962  0.3401  0.2367
27389SOL    HW194145   7.033   7.223   6.970 -1.1405 -0.1220  0.6887
27389SOL    HW294146   6.938   7.282   6.869  2.0264  1.9401 -1.2828
27390SOL     OW94147   7.275   6.375   3.341 -0.1564 -0.1094  0.9356
27390SOL    HW194148   7.201   6.398   3.396 -1.0234  1.6967 -0.8299
27390SOL    HW294149   7.343   6.439   3.364  0.0582 -0.3578  1.0013
27391SOL     OW94150   0.253   5.135   5.266 -0.6647  0.0422  0.4525
27391SOL    HW194151   0.288   5.200   5.206  0.1513 -0.0383  0.8297
27391SOL    HW294152   0.218   5.067   5.209 -1.3109  0.6944  0.0609
27392SOL     OW94153   7.893  10.105   8.000  0.1383  0.3242 -0.0214
27392SOL    HW194154   7.911  10.156   7.921  1.0758  0.9626  0.5819
27392SOL    HW294155   7.844  10.165   8.056  3.0180  1.4182  1.5565
27393SOL     OW94156   6.576   5.808   7.359 -0.5417 -0.4089  0.4484
27393SOL    HW194157   6.668   5.798   7.383 -0.5565  1.2342  1.2910
27393SOL    HW294158   6.563   5.744   7.289  1.2270 -0.6678  0.3128
27394SOL     OW94159   8.965   3.230   7.955  0.4632 -0.5665  0.3881
27394SOL    HW194160   8.976   3.195   8.043  1.6788 -1.6764 -0.1751
27394SOL    HW294161   8.902   3.171   7.914 -2.8352  1.8837  1.4811
27395SOL     OW94162   1.227   3.730   0.787  0.3072  0.1206 -0.0668
27395SOL    HW194163   1.274   3.647   0.788  1.5062  0.7827  1.3298
27395SOL    HW294164   1.296   3.797   0.786 -0.6073  1.1129  0.6727
27396SOL     OW94165   8.998   1.721   8.256 -0.1219  0.0035 -0.0537
27396SOL    HW194166   8.929   1.726   8.189 -0.3801 -0.0596  0.2051
27396SOL    HW294167   9.076   1.697   8.207 -0.0822  0.9664 -0.4845
27397SOL     OW94168   5.483   9.597   5.764  0.1922 -0.3528  0.1417
27397SOL    HW194169   5.453   9.626   5.678  0.2804 -2.6518 -0.7290
27397SOL    HW294170   5.404   9.565   5.807  0.0962  1.0630  1.0802
27398SOL     OW94171   2.632   1.872   5.468  0.2381 -0.6554 -0.4031
27398SOL    HW194172   2.700   1.835   5.411  1.6909  1.0547  0.0815
27398SOL    HW294173   2.681   1.928   5.529 -1.6847  1.4154 -0.6415
27399SOL     OW94174   0.067   5.844   3.345 -0.0759  0.3194 -0.0051
27399SOL    HW194175   0.016   5.771   3.311  1.1915 -0.0988 -1.0782
27399SOL    HW294176   0.151   5.838   3.300  0.8926  1.0596  1.6133
27400SOL     OW94177   7.397   9.642   9.828 -0.0565 -0.1922  0.3261
27400SOL    HW194178   7.390   9.633   9.923 -0.3357  1.6221  0.5151
27400SOL    HW294179   7.480   9.688   9.815  0.6688 -1.6464 -0.4313
27401SOL     OW94180   9.857   1.386   9.757 -0.3794 -0.1371 -0.2061
27401SOL    HW194181   9.798   1.320   9.795 -0.7699  0.4631  0.2482
27401SOL    HW294182   9.802   1.433   9.694 -1.2045  2.1406  2.0401
27402SOL     OW94183   4.189   9.155   9.584  0.2231  0.2456 -0.3674
27402SOL    HW194184   4.152   9.232   9.628  2.2959 -0.5628  3.2116
27402SOL    HW294185   4.115   9.096   9.574 -0.7949  1.4276 -0.1062
27403SOL     OW94186   5.921   9.690   2.941  0.2506 -0.2797  0.1662
27403SOL    HW194187   5.870   9.624   2.895  1.1171 -0.9572  0.1378
27403SOL    HW294188   6.003   9.645   2.964 -0.1752 -0.0177  2.4539
27404SOL     OW94189   3.097   6.327   7.993 -0.4443  0.3178  0.7471
27404SOL    HW194190   3.026   6.355   7.935 -0.0322 -0.5240 -0.2058
27404SOL    HW294191   3.174   6.375   7.960  0.5344 -2.5752 -1.6612
27405SOL     OW94192   6.762   7.173   1.680 -0.1525 -0.1503  0.1188
27405SOL    HW194193   6.817   7.097   1.696 -0.3394 -0.3698 -0.2668
27405SOL    HW294194   6.816   7.248   1.707 -0.3006 -0.4704  1.3230
27406SOL     OW94195   2.341   0.170  10.281  0.3886 -0.2291  0.1587
27406SOL    HW194196   2.256   0.131  10.302  0.7360 -0.1883  1.8365
27406SOL    HW294197   2.375   0.117  10.209 -0.9339 -0.4064 -0.3602
27407SOL     OW94198   2.671   7.094   6.247  0.3760  0.2479 -0.5675
27407SOL    HW194199   2.690   7.006   6.278  0.0990  0.4580  0.2523
27407SOL    HW294200   2.747   7.146   6.274  0.0010  0.4936  0.0566
27408SOL     OW94201  10.265   5.537   2.021  0.1617  0.3369  0.2129
27408SOL    HW194202  10.304   5.580   1.944 -2.1531  0.5357 -0.9118
27408SOL    HW294203  10.292   5.445   2.013  2.5478  0.8824  0.9555
27409SOL     OW94204   3.998   5.282   8.164 -0.3273 -0.2154 -0.1407
27409SOL    HW194205   3.911   5.284   8.205  0.0231  1.4293  0.6207
27409SOL    HW294206   3.981   5.304   8.072 -0.9200 -2.0242 -0.4895
27410SOL     OW94207   8.635   2.139   9.865  0.3941  0.1820 -0.1026
27410SOL    HW194208   8.690   2.151   9.943  0.0471 -0.5240  0.2524
27410SOL    HW294209   8.551   2.178   9.888  0.0495 -0.7099  0.1548
27411SOL     OW94210   8.850   7.714   9.803  0.3300 -0.0322  0.3304
27411SOL    HW194211   8.795   7.636   9.811 -0.6579  0.7756  2.2569
27411SOL    HW294212   8.794   7.779   9.760  1.2263 -0.4002 -1.4823
27412SOL     OW94213   0.131   4.430   4.901 -0.2069 -0.2354 -0.1204
27412SOL    HW194214   0.101   4.427   4.810  1.1982 -1.3144 -0.5826
27412SOL    HW294215   0.122   4.340   4.932 -2.0282  0.3787  1.3120
27413SOL     OW94216   7.821   1.394   4.501 -0.2393  0.2416 -0.6394
27413SOL    HW194217   7.878   1.344   4.559 -1.1421  0.3456  0.3678
27413SOL    HW294218   7.870   1.402   4.419  0.6285 -0.7988 -0.2350
27414SOL     OW94219   2.634   6.756   7.569  0.3485 -0.0034 -0.2464
27414SOL    HW194220   2.567   6.810   7.610  0.2794 -0.5958  0.4506
27414SOL    HW294221   2.688   6.725   7.642  2.2800  1.6154 -0.9071
27415SOL     OW94222   9.165   3.172   7.736  0.4697  0.2811  0.1579
27415SOL    HW194223   9.258   3.188   7.756  0.4229  1.6548 -0.5816
27415SOL    HW294224   9.133   3.121   7.810  1.4867  0.9966  1.1283
27416SOL     OW94225   8.056   7.350   7.703 -0.5141 -0.0084 -0.0203
27416SOL    HW194226   8.075   7.270   7.752  3.1802 -0.0184 -1.1788
27416SOL    HW294227   8.082   7.421   7.762  0.4277  0.1188 -0.5715
27417SOL     OW94228   5.205   2.772   6.008  0.0628  0.0459  0.1793
27417SOL    HW194229   5.230   2.848   6.060 -2.4593  0.4984  0.8686
27417SOL    HW294230   5.240   2.789   5.920  2.2031  0.4679  1.0673
27418SOL     OW94231  10.221   0.741  10.252 -0.0752  0.5695  0.1933
27418SOL    HW194232  10.289   0.724  10.187 -0.7973 -1.0717 -0.1818
27418SOL    HW294233  10.251   0.819  10.298  2.3518 -0.4169  0.4336
27419SOL     OW94234   6.858   4.742   7.938 -0.1105  0.1566 -0.1945
27419SOL    HW194235   6.908   4.797   7.998  1.5209 -0.0240 -1.3179
27419SOL    HW294236   6.851   4.658   7.984 -1.2258  0.7910  0.8493
27420SOL     OW94237  10.101   3.719   3.575 -0.0654 -0.0752  0.5384
27420SOL    HW194238  10.178   3.767   3.607  0.2847 -1.2930  1.6022
27420SOL    HW294239  10.102   3.732   3.480  1.4327 -0.0408  0.5402
27421SOL     OW94240   6.862   5.752   9.266 -0.2470 -0.4983  0.1038
27421SOL    HW194241   6.869   5.826   9.325 -0.1484 -0.4937  0.0867
27421SOL    HW294242   6.857   5.791   9.179  1.6009 -0.5393 -0.0739
27422SOL     OW94243   5.405   2.230   3.892 -0.0349 -0.2230 -0.1049
27422SOL    HW194244   5.334   2.214   3.954 -0.0769 -2.5945 -0.6886
27422SOL    HW294245   5.470   2.163   3.913  1.0153  0.4614 -1.0832
27423SOL     OW94246   3.087   8.402   3.382 -0.0921 -0.3696 -0.5811
27423SOL    HW194247   3.149   8.330   3.391  0.9039  0.4442 -0.7212
27423SOL    HW294248   3.131   8.465   3.325 -0.9843  0.3149 -0.5491
27424SOL     OW94249   9.700   1.428   9.505 -0.2326 -0.2890 -0.4282
27424SOL    HW194250   9.631   1.374   9.468 -1.0870 -0.5864  1.4706
27424SOL    HW294251   9.660   1.515   9.516 -1.2397 -1.0062  2.8532
27425SOL     OW94252   3.800  10.169   1.760 -0.6293 -0.9209 -0.3680
27425SOL    HW194253   3.889  10.193   1.731 -0.6254 -3.0499 -2.3768
27425SOL    HW294254   3.806  10.168   1.855  1.4174 -0.6607 -0.4428
27426SOL     OW94255   0.995   7.953   1.996 -0.5115 -0.5617  0.6022
27426SOL    HW194256   0.984   8.044   2.024  0.7712 -0.7494  1.8092
27426SOL    HW294257   1.079   7.953   1.950  0.5100 -1.5026  2.3871
27427SOL     OW94258   2.752   2.875   2.111  0.1706 -0.0884 -0.0113
27427SOL    HW194259   2.711   2.960   2.094 -0.3425 -0.3813 -0.2731
27427SOL    HW294260   2.767   2.873   2.205 -0.8467 -0.1580  0.1621
27428SOL     OW94261   8.406   8.298   0.809 -0.5511  0.1058  0.1042
27428SOL    HW194262   8.416   8.204   0.790 -0.0130  0.0492  0.6428
27428SOL    HW294263   8.495   8.332   0.809 -0.7734  0.6986 -0.4584
27429SOL     OW94264   5.893   8.525   0.047 -0.3085  0.1996  0.3398
27429SOL    HW194265   5.863   8.459   0.110 -1.8938 -0.6937 -1.2502
27429SOL    HW294266   5.826   8.593   0.050 -1.1352 -0.4860 -1.2704
27430SOL     OW94267   6.417   9.140   0.211  0.1808 -0.7335  0.2223
27430SOL    HW194268   6.364   9.176   0.140  0.4730 -0.3005  0.2196
27430SOL    HW294269   6.508   9.155   0.184  0.3153 -1.7080  0.1040
27431SOL     OW94270   6.747   0.191   8.733 -0.4936 -0.1682  0.2232
27431SOL    HW194271   6.669   0.165   8.783 -0.7858  1.6022  0.7793
27431SOL    HW294272   6.821   0.165   8.789 -0.6689 -1.5455 -0.1504
27432SOL     OW94273   6.044  10.371   5.050  0.3620  0.0960  0.0197
27432SOL    HW194274   6.088  10.331   5.124  1.1894  0.2783 -0.3648
27432SOL    HW294275   6.028  10.298   4.989  1.6896  0.3000 -0.5929
27433SOL     OW94276   1.027   1.601   6.492 -0.3510  0.5580  0.1563
27433SOL    HW194277   1.089   1.644   6.433  0.4152 -0.8761 -0.1274
27433SOL    HW294278   1.061   1.618   6.580 -0.4950  1.1808  0.0969
27434SOL     OW94279   7.899   7.274   6.999 -0.7238  0.2583  0.1873
27434SOL    HW194280   7.917   7.346   7.060 -2.3047  1.1035 -0.2839
27434SOL    HW294281   7.846   7.314   6.930  0.8788 -0.7105 -1.6917
27435SOL     OW94282  10.286   8.971   8.044 -0.3244 -0.1455 -0.4842
27435SOL    HW194283  10.279   8.943   7.953 -0.6485  1.7701 -1.1138
27435SOL    HW294284  10.360   9.031   8.045 -0.5238  0.1000  0.4347
27436SOL     OW94285   0.536   7.464   6.453 -0.4892  0.0883 -0.3124
27436SOL    HW194286   0.523   7.551   6.417 -0.8917  0.6344  1.0816
27436SOL    HW294287   0.626   7.442   6.430 -0.2783  1.0048 -0.4128
27437SOL     OW94288   2.333   6.469   5.623  0.2909 -0.0577  0.0657
27437SOL    HW194289   2.348   6.411   5.549 -0.6379 -1.0962  0.6509
27437SOL    HW294290   2.287   6.544   5.586 -3.1230 -2.0012 -0.0283
27438SOL     OW94291   7.001   2.957   7.139  0.2894 -0.3065 -0.0864
27438SOL    HW194292   6.974   2.997   7.056  2.7581 -1.1050 -1.3498
27438SOL    HW294293   6.988   3.027   7.204 -0.3156  0.8222 -1.3693
27439SOL     OW94294   3.379   7.041   6.912 -0.1787  0.0792 -0.0072
27439SOL    HW194295   3.470   7.028   6.938  0.1088  0.9416 -0.5241
27439SOL    HW294296   3.367   7.136   6.913 -1.0754 -0.0242  0.0573
27440SOL     OW94297   8.893   7.710   5.673  0.0557  0.0161 -0.0602
27440SOL    HW194298   8.826   7.682   5.610  0.1956 -0.1449 -0.1379
27440SOL    HW294299   8.891   7.805   5.667 -0.0350  0.0074 -0.2016
27441SOL     OW94300   3.362   5.754   7.088  0.3225 -0.1911 -0.8103
27441SOL    HW194301   3.282   5.758   7.141  1.2112  0.2655  0.5432
27441SOL    HW294302   3.387   5.662   7.089  0.7744 -0.0612  0.2515
27442SOL     OW94303   5.119   0.757   1.815 -0.0827  0.2045 -0.2260
27442SOL    HW194304   5.162   0.797   1.891 -0.0385 -0.8275  0.2984
27442SOL    HW294305   5.084   0.674   1.847 -1.5496  0.5123 -0.9109
27443SOL     OW94306   9.387   5.944   7.882 -0.0558 -0.4099 -0.2384
27443SOL    HW194307   9.451   5.993   7.934  0.4317  1.1467 -2.1824
27443SOL    HW294308   9.419   5.951   7.793 -0.5408 -3.5016 -0.7514
27444SOL     OW94309   2.890  10.202   6.326 -0.1975  0.6572 -0.1673
27444SOL    HW194310   2.937  10.262   6.384  2.0531  0.5654 -1.7598
27444SOL    HW294311   2.813  10.251   6.298  1.2159  2.6120 -0.8787
27445SOL     OW94312   4.121   4.749   8.396 -0.1105 -0.3180  0.2950
27445SOL    HW194313   4.158   4.800   8.324  1.9436 -0.2703  1.3112
27445SOL    HW294314   4.147   4.659   8.378  2.4171 -0.0331  2.0376
27446SOL     OW94315   8.774   9.948  10.249  0.1555  0.6372 -0.0719
27446SOL    HW194316   8.745   9.901  10.170 -1.4498 -0.7882  1.2799
27446SOL    HW294317   8.866   9.923  10.259 -0.5968 -2.2908  0.5353
27447SOL     OW94318   1.140   9.166   7.638 -0.4104 -0.3549 -0.0251
27447SOL    HW194319   1.212   9.153   7.575 -0.7404 -0.9875 -0.2862
27447SOL    HW294320   1.083   9.230   7.597 -2.4460 -3.2128 -2.0555
27448SOL     OW94321   2.611   9.663   1.076 -0.5516 -0.0445  0.2219
27448SOL    HW194322   2.690   9.701   1.114 -0.1439  0.3376 -0.9648
27448SOL    HW294323   2.540   9.693   1.133 -0.2568  2.5555 -0.6450
27449SOL     OW94324   7.089   6.238   7.613  0.0945 -0.0187 -0.1345
27449SOL    HW194325   7.034   6.314   7.594 -0.9603 -0.7222  0.0801
27449SOL    HW294326   7.174   6.260   7.573 -0.2528  1.1746 -0.2593
27450SOL     OW94327   1.934   9.083   2.777 -0.2114 -0.5685  0.3621
27450SOL    HW194328   1.850   9.108   2.740  0.0895 -0.6120 -0.3682
27450SOL    HW294329   1.916   9.066   2.869 -0.9189 -0.1813  0.2974
27451SOL     OW94330   8.651   7.612   8.129 -0.1471  0.0061 -0.5925
27451SOL    HW194331   8.588   7.548   8.164 -1.1624  0.9664 -0.5987
27451SOL    HW294332   8.651   7.683   8.192  2.5896 -0.8566  0.5276
27452SOL     OW94333   1.100   2.408   5.202  0.0886 -0.4723 -0.3366
27452SOL    HW194334   1.193   2.429   5.194  0.2764 -0.3697  1.6712
27452SOL    HW294335   1.092   2.368   5.288 -1.9658  0.9269  0.1990
27453SOL     OW94336   4.040   8.199   2.131  0.0489  0.4973 -0.8518
27453SOL    HW194337   3.959   8.154   2.155 -0.9918  1.9263 -1.4983
27453SOL    HW294338   4.080   8.143   2.064 -0.6466  0.0141 -0.8684
27454SOL     OW94339   1.153   4.427   6.710 -0.9982 -0.2975 -0.1374
27454SOL    HW194340   1.242   4.458   6.689 -1.4472  1.6666  0.6272
27454SOL    HW294341   1.152   4.422   6.806 -2.1947  1.4201 -0.0180
27455SOL     OW94342   5.375   4.322   6.540  0.3974 -0.1668 -0.1017
27455SOL    HW194343   5.409   4.373   6.467 -0.5231  0.1612 -0.3035
27455SOL    HW294344   5.428   4.349   6.615 -0.8964  2.0728  0.0877
27456SOL     OW94345   0.992   4.710   1.591 -0.5603 -0.0099  0.4123
27456SOL    HW194346   0.902   4.709   1.559 -0.5700 -1.3671  0.4242
27456SOL    HW294347   0.999   4.632   1.646  0.8535 -0.4024 -0.2641
27457SOL     OW94348   8.431   9.625   9.384  0.0777  0.4773  0.1649
27457SOL    HW194349   8.476   9.709   9.386  0.2552  0.4268 -0.9222
27457SOL    HW294350   8.390   9.617   9.470 -0.6815  2.0813 -0.0218
27458SOL     OW94351   2.664   8.583   4.328 -0.4509 -0.0551  0.0850
27458SOL    HW194352   2.687   8.534   4.249 -0.4743 -1.0828  0.7008
27458SOL    HW294353   2.590   8.535   4.366 -1.8315  1.6200 -0.3754
27459SOL     OW94354   3.788   7.563   5.536  0.2095  0.5438  0.4866
27459SOL    HW194355   3.746   7.634   5.487  2.8297  1.3905 -0.7300
27459SOL    HW294356   3.866   7.603   5.575  0.5471 -1.1612  1.6981
27460SOL     OW94357   3.088   0.891   4.101 -0.2429 -0.5198  0.0994
27460SOL    HW194358   3.034   0.876   4.023  0.4964 -2.5701 -0.0632
27460SOL    HW294359   3.134   0.809   4.115  0.6423  0.2355  1.9575
27461SOL     OW94360   2.541   1.090   9.507  0.3002 -0.4649 -0.1983
27461SOL    HW194361   2.489   1.016   9.538 -1.0246  0.1141 -0.9662
27461SOL    HW294362   2.623   1.083   9.556  0.4448 -2.7453 -0.6479
27462SOL     OW94363   5.506   5.714   9.715 -0.1695 -0.4818  0.5942
27462SOL    HW194364   5.466   5.710   9.628 -1.8820  0.4613  1.3091
27462SOL    HW294365   5.526   5.623   9.735 -0.3184 -0.7827 -0.5244
27463SOL     OW94366   4.503  10.288   1.909 -0.1019 -0.2602 -0.0389
27463SOL    HW194367   4.598  10.282   1.914 -0.1337 -0.2622  0.6590
27463SOL    HW294368   4.477  10.215   1.852  0.3234 -0.1310 -0.4014
27464SOL     OW94369   9.694   6.174   0.427 -0.3313  0.1843 -0.0491
27464SOL    HW194370   9.621   6.230   0.454 -1.0983 -0.7029 -0.2166
27464SOL    HW294371   9.652   6.097   0.388  0.6848 -0.5234  0.1942
27465SOL     OW94372   5.618   2.747   8.997 -0.3015  0.3340 -0.9371
27465SOL    HW194373   5.563   2.706   9.064  0.4932  0.4429 -0.2084
27465SOL    HW294374   5.682   2.680   8.974 -0.6365  0.2629 -1.6686
27466SOL     OW94375   3.549   8.439   9.579 -0.6578  0.4102 -0.4198
27466SOL    HW194376   3.549   8.515   9.520 -0.2215  0.3140 -0.5433
27466SOL    HW294377   3.641   8.415   9.587 -0.7016  0.5136  0.4225
27467SOL     OW94378   5.462   5.937   4.793  0.6716  0.2203  0.4082
27467SOL    HW194379   5.482   5.853   4.752 -0.0518 -0.1925  0.8792
27467SOL    HW294380   5.408   5.915   4.869 -0.5667  1.2038 -0.1496
27468SOL     OW94381   6.375   4.741   2.223  0.2768 -0.1848  0.6321
27468SOL    HW194382   6.425   4.660   2.229  0.7977  0.1059  0.2534
27468SOL    HW294383   6.438   4.808   2.196  0.4127  0.9016  3.3618
27469SOL     OW94384   4.622   6.406   2.707  0.5062  0.2734  0.0315
27469SOL    HW194385   4.667   6.322   2.719  1.5254  0.7973 -0.0309
27469SOL    HW294386   4.545   6.384   2.655  0.0179 -0.8386  1.1609
27470SOL     OW94387  10.098   1.859   1.442  0.1740  0.0681  0.1954
27470SOL    HW194388  10.060   1.830   1.525  1.7912  0.4742  1.1191
27470SOL    HW294389  10.191   1.870   1.461  0.6581 -0.2740 -1.8120
27471SOL     OW94390   0.886   6.076   3.697 -0.1781 -0.1260  0.7448
27471SOL    HW194391   0.904   6.030   3.779  3.3931 -1.4487 -0.5782
27471SOL    HW294392   0.899   6.169   3.718  1.8409 -0.5339  1.4982
27472SOL     OW94393   6.392   6.577   7.187 -0.2079  0.0054  0.4122
27472SOL    HW194394   6.467   6.544   7.139  0.2972 -0.8258  1.7072
27472SOL    HW294395   6.366   6.505   7.245 -1.5318  0.5420  0.5363
27473SOL     OW94396  10.104   3.124   7.733 -0.1110 -0.0162  0.3844
27473SOL    HW194397  10.144   3.046   7.693 -1.3639 -0.2534 -0.4542
27473SOL    HW294398  10.011   3.103   7.737 -0.2331  0.7432  1.8154
27474SOL     OW94399   3.595   4.026   3.980  0.1373 -0.2495  0.1212
27474SOL    HW194400   3.672   4.016   3.924  0.1968  2.3239 -0.3538
27474SOL    HW294401   3.545   3.946   3.965  0.5719 -0.0595 -2.9669
27475SOL     OW94402   5.964   7.699   7.606 -0.3038 -0.6804 -0.1108
27475SOL    HW194403   6.051   7.728   7.581 -0.7847  1.3201  0.3435
27475SOL    HW294404   5.941   7.632   7.542  1.2123 -0.6069 -0.7545
27476SOL     OW94405  10.095   4.983   9.787  0.0647  0.8078 -0.0692
27476SOL    HW194406  10.014   4.943   9.756  0.0616  2.2528 -2.1250
27476SOL    HW294407  10.075   5.014   9.875 -0.3583 -2.2726  1.0477
27477SOL     OW94408   3.331   8.893   6.128  0.0753  0.2932 -0.0441
27477SOL    HW194409   3.293   8.838   6.197 -1.0510  0.6828 -0.3341
27477SOL    HW294410   3.344   8.978   6.169  0.2911  0.2639 -0.0513
27478SOL     OW94411   8.507   1.778   5.157 -0.0753 -0.3072  0.0339
27478SOL    HW194412   8.534   1.767   5.248 -1.7298  0.7927  0.7094
27478SOL    HW294413   8.512   1.872   5.142  0.8575 -0.5364 -1.2687
27479SOL     OW94414   1.008   9.234   8.498 -0.2588 -0.3307  0.5928
27479SOL    HW194415   1.017   9.173   8.571  1.0911  0.3708  1.0428
27479SOL    HW294416   1.094   9.276   8.491 -0.8637  0.8051 -0.3353
27480SOL     OW94417  10.013   0.551   0.804 -0.0381  0.0937 -0.1358
27480SOL    HW194418   9.965   0.470   0.787 -0.5629  0.1358  1.0741
27480SOL    HW294419  10.098   0.537   0.762  0.2434 -1.4774  0.8798
27481SOL     OW94420   3.735   6.328   6.047  0.1685  0.1065 -0.2766
27481SOL    HW194421   3.654   6.285   6.073 -0.1073  0.1938 -0.9720
27481SOL    HW294422   3.759   6.382   6.122 -0.0908 -0.3782  0.1667
27482SOL     OW94423   1.568   8.370   1.348  0.1451 -0.0681  0.0444
27482SOL    HW194424   1.491   8.405   1.303  0.7265  0.1078 -0.8274
27482SOL    HW294425   1.578   8.281   1.315 -0.7181 -0.7458  1.4941
27483SOL     OW94426   3.026   7.255   1.127  0.5025 -0.3177 -0.4523
27483SOL    HW194427   3.070   7.336   1.154 -2.5895  1.6137 -0.7563
27483SOL    HW294428   3.037   7.253   1.032 -0.8470  0.7629 -0.6697
27484SOL     OW94429   2.391   3.234   5.932 -0.3501  0.0239 -0.4290
27484SOL    HW194430   2.390   3.203   5.842 -1.0594  0.4372 -0.5741
27484SOL    HW294431   2.398   3.330   5.925  0.1581  0.0237 -0.0309
27485SOL     OW94432   3.223   8.602   4.752 -0.3747  0.5796  0.2271
27485SOL    HW194433   3.235   8.534   4.685 -1.0290  0.6259  0.0619
27485SOL    HW294434   3.235   8.685   4.705 -0.7891  0.6113  0.1796
27486SOL     OW94435   2.869   8.954   4.977 -0.5377  0.1970  0.3833
27486SOL    HW194436   2.926   8.877   4.988  0.2186  0.9009  1.5881
27486SOL    HW294437   2.804   8.926   4.913  1.5341 -0.4313 -1.5983
27487SOL     OW94438   3.541   6.986   5.459  0.6254 -0.0866 -0.5705
27487SOL    HW194439   3.592   7.058   5.421  1.3204  0.2033  0.8425
27487SOL    HW294440   3.600   6.948   5.525 -0.8170  0.0082  0.8407
27488SOL     OW94441   3.824   4.113   9.048  0.8458 -0.4841 -0.3420
27488SOL    HW194442   3.888   4.171   9.006  1.0336 -0.8985 -0.6439
27488SOL    HW294443   3.780   4.168   9.113  0.6184  0.1422 -1.0191
27489SOL     OW94444   8.905   2.090   7.581  0.8234 -0.6200 -0.5427
27489SOL    HW194445   8.814   2.061   7.573  0.2222  1.1898 -0.6115
27489SOL    HW294446   8.954   2.009   7.591 -0.6810 -1.7060 -1.4625
27490SOL     OW94447   8.021   3.926   4.248 -0.1952  0.0263 -0.6841
27490SOL    HW194448   8.016   4.008   4.199 -1.7831  0.9519  0.8949
27490SOL    HW294449   8.110   3.925   4.284 -0.9466  2.5197  1.5346
27491SOL     OW94450   0.380   9.314   7.708 -0.3845  0.0518  0.1136
27491SOL    HW194451   0.301   9.319   7.654 -1.3637 -0.0427  1.4856
27491SOL    HW294452   0.399   9.221   7.714 -0.8135 -0.0103  0.6475
27492SOL     OW94453  10.046   8.106   8.482 -0.1222  0.4841 -0.2023
27492SOL    HW194454  10.022   8.018   8.451  0.4886 -0.2453  1.2827
27492SOL    HW294455  10.102   8.090   8.558  1.0282  2.1682 -0.6433
27493SOL     OW94456   6.111   4.646   2.618  0.5022 -0.4200  0.0664
27493SOL    HW194457   6.047   4.575   2.618 -0.1371  0.0487  2.7016
27493SOL    HW294458   6.178   4.618   2.680  0.9596  0.6839  0.0895
27494SOL     OW94459   8.993   3.928   6.873 -0.4263  0.3093 -0.2089
27494SOL    HW194460   8.906   3.889   6.886 -0.1956 -1.6353 -3.5486
27494SOL    HW294461   8.994   3.955   6.782  2.0715  1.4634  0.0872
27495SOL     OW94462   2.627   5.873   7.326  0.3477  0.1252  0.2498
27495SOL    HW194463   2.584   5.842   7.246  1.2265 -0.2447 -0.0965
27495SOL    HW294464   2.614   5.967   7.326 -0.7412 -0.0159  0.3279
27496SOL     OW94465   2.623   8.198   1.704  0.6174  0.3050 -0.3600
27496SOL    HW194466   2.567   8.143   1.759  1.6659  0.1627  0.6143
27496SOL    HW294467   2.598   8.177   1.614 -2.5864  2.0017 -0.0124
27497SOL     OW94468   6.495   1.422   9.362 -0.1934  0.3305 -0.3112
27497SOL    HW194469   6.585   1.453   9.374 -0.2702  0.8113 -0.8985
27497SOL    HW294470   6.496   1.333   9.396  0.6067  0.1926 -0.6525
27498SOL     OW94471   3.549  10.041   0.167  0.2682  0.5804 -0.4023
27498SOL    HW194472   3.565   9.982   0.241  0.0375  1.9913  0.8342
27498SOL    HW294473   3.636  10.060   0.132  0.5161  1.0020  0.4197
27499SOL     OW94474   4.962   0.012   9.221  0.5127 -0.0021  0.0883
27499SOL    HW194475   4.872  -0.021   9.222 -0.1204  1.6475 -0.1871
27499SOL    HW294476   4.954   0.107   9.218  2.2621  0.1766 -0.6011
27500SOL     OW94477   0.806   0.734   2.026  0.4824 -0.1998  0.1864
27500SOL    HW194478   0.740   0.675   2.064 -0.5218  1.3329  0.9249
27500SOL    HW294479   0.864   0.754   2.099 -0.6611  1.6814  0.6409
27501SOL     OW94480   2.886   0.018   4.102  0.2663  0.2120 -0.7935
27501SOL    HW194481   2.855  -0.048   4.040  1.2776 -1.0810  0.0445
27501SOL    HW294482   2.928   0.085   4.047  0.2206 -0.3857 -1.5747
27502SOL     OW94483   0.846   9.214  10.247 -0.0762  0.5791 -0.7077
27502SOL    HW194484   0.921   9.238  10.192  0.5085  0.7801  0.1605
27502SOL    HW294485   0.770   9.223  10.189  0.6315 -0.2834 -1.7879
27503SOL     OW94486   8.794   9.331   2.264  0.7191  0.2485  0.1040
27503SOL    HW194487   8.863   9.393   2.287 -0.2877  2.1661 -1.7314
27503SOL    HW294488   8.835   9.270   2.203  0.7195  1.7052 -1.4037
27504SOL     OW94489   8.135   4.208   0.684  0.4405 -0.0929 -0.1544
27504SOL    HW194490   8.201   4.163   0.736  0.1530  0.2518  0.5122
27504SOL    HW294491   8.056   4.207   0.738 -0.0078 -0.1820 -0.7934
27505SOL     OW94492   5.570   5.452   5.534 -0.3557  0.4665  0.0040
27505SOL    HW194493   5.635   5.414   5.476 -1.5737  0.3059 -1.3127
27505SOL    HW294494   5.618   5.517   5.585  0.8421  0.2626 -0.8230
27506SOL     OW94495   6.921   4.897   3.419  0.2194 -0.1465  0.2121
27506SOL    HW194496   6.842   4.875   3.369  0.4564  0.9133 -0.6551
27506SOL    HW294497   6.993   4.864   3.366  0.5010  1.4326 -0.4337
27507SOL     OW94498   2.206   5.900   9.979 -0.1463 -0.3231  0.0291
27507SOL    HW194499   2.193   5.955  10.057 -1.3019  0.1602 -0.4824
27507SOL    HW294500   2.163   5.818  10.001  1.4443 -1.0163  0.7308
27508SOL     OW94501   4.400   7.867   5.459 -0.3829  0.2812  0.9585
27508SOL    HW194502   4.342   7.796   5.431  0.6984 -0.0172 -0.6690
27508SOL    HW294503   4.462   7.877   5.387  0.4209  1.8768  1.8184
27509SOL     OW94504  10.322   3.020   9.344  0.2039 -0.3532  0.6494
27509SOL    HW194505  10.356   3.046   9.430 -0.3852 -0.8251  1.0322
27509SOL    HW294506  10.380   2.950   9.315  0.2933 -0.3188  0.7454
27510SOL     OW94507   3.413   8.685   7.908 -0.5174 -0.0270 -0.0438
27510SOL    HW194508   3.505   8.661   7.897 -0.7330 -0.6438 -0.5349
27510SOL    HW294509   3.394   8.744   7.835 -0.8952 -1.0543 -0.8017
27511SOL     OW94510   6.925  10.110   2.831 -0.2122 -0.3038  0.0749
27511SOL    HW194511   6.981  10.172   2.785 -0.3090  0.2233  0.6489
27511SOL    HW294512   6.928  10.030   2.778 -0.8536  0.4870 -1.2154
27512SOL     OW94513   2.237   8.617   0.925 -0.3472  0.4973  0.0997
27512SOL    HW194514   2.277   8.530   0.927  0.2149  0.7617  0.9502
27512SOL    HW294515   2.143   8.600   0.918 -0.3495 -0.2062  1.6033
27513SOL     OW94516   4.715   7.671   4.991  0.1674 -0.5820  0.0510
27513SOL    HW194517   4.790   7.730   4.981  1.3952 -1.9580  0.6558
27513SOL    HW294518   4.745   7.605   5.054 -1.2636 -1.6598 -0.3373
27514SOL     OW94519   7.704   9.670   0.047 -0.3091 -0.6051  0.4088
27514SOL    HW194520   7.687   9.626   0.130 -0.5340 -1.9153 -0.2902
27514SOL    HW294521   7.786   9.630   0.016 -0.5113 -0.5348 -0.2389
27515SOL     OW94522  10.242   8.360   9.474 -0.4040  0.5262 -0.1271
27515SOL    HW194523  10.275   8.372   9.563  1.2721  1.2996 -0.8014
27515SOL    HW294524  10.161   8.310   9.485 -0.8032  1.4917  1.8908
27516SOL     OW94525   5.053   3.049   5.857 -0.0490 -0.4368 -0.2399
27516SOL    HW194526   5.004   3.126   5.887 -0.9357 -1.7322  1.8624
27516SOL    HW294527   5.137   3.085   5.829 -1.2783  1.5651 -1.7038
27517SOL     OW94528   2.462   1.213   4.259  0.0892 -0.2719 -0.4282
27517SOL    HW194529   2.420   1.263   4.330  0.4807 -1.6400  0.8199
27517SOL    HW294530   2.391   1.196   4.197 -1.0787 -1.7891  1.2223
27518SOL     OW94531   7.123   4.326   9.415  1.0114  0.0161 -0.4303
27518SOL    HW194532   7.075   4.244   9.401  1.7627 -0.4013 -0.6286
27518SOL    HW294533   7.056   4.390   9.438  0.0349 -0.0020 -2.8940
27519SOL     OW94534   4.566   9.674   7.986  0.4724 -0.2912 -0.1077
27519SOL    HW194535   4.564   9.598   7.929  0.0904 -0.5978  0.3102
27519SOL    HW294536   4.659   9.696   7.993  0.5230 -0.2435 -0.8475
27520SOL     OW94537   9.178   0.173   4.263  0.3382  0.1189 -0.3943
27520SOL    HW194538   9.164   0.131   4.178 -2.5558  1.7385 -0.8237
27520SOL    HW294539   9.265   0.212   4.256  1.4672 -2.3237 -1.3957
27521SOL     OW94540   1.453   6.310   0.942 -0.1535 -0.3629  0.3350
27521SOL    HW194541   1.455   6.214   0.945  1.5633 -0.3855 -0.5786
27521SOL    HW294542   1.425   6.330   0.852 -1.9589  0.0438  0.9372
27522SOL     OW94543   5.150   8.182   5.085  0.3377  0.1526  0.6034
27522SOL    HW194544   5.132   8.182   5.179 -0.2662  2.0254  0.5271
27522SOL    HW294545   5.064   8.192   5.045  0.7211  0.7257 -0.0953
27523SOL     OW94546   1.842   1.392   8.661 -0.4282 -0.0279 -0.4126
27523SOL    HW194547   1.807   1.415   8.575  0.3897  2.6558 -0.1095
27523SOL    HW294548   1.791   1.446   8.722 -0.1435 -0.9569  0.6698
27524SOL     OW94549  10.221   5.583   1.480  0.0879 -0.0061  0.4748
27524SOL    HW194550  10.166   5.542   1.413  2.3079 -0.3496 -1.2543
27524SOL    HW294551  10.187   5.672   1.487  0.6327  0.4927 -2.2059
27525SOL     OW94552   4.410   1.366   8.288 -0.1465  0.0560 -0.4326
27525SOL    HW194553   4.445   1.282   8.317  0.9291  0.7128  0.2244
27525SOL    HW294554   4.478   1.429   8.311 -1.1163  1.1609 -0.5384
27526SOL     OW94555   2.947   7.433   6.747 -0.6751 -0.2055  0.0079
27526SOL    HW194556   2.917   7.343   6.753 -1.9258  0.1387 -0.6754
27526SOL    HW294557   3.043   7.427   6.740 -0.6912 -1.4209  0.7071
27527SOL     OW94558   2.633   5.199   9.477 -0.2590 -0.6468  0.6696
27527SOL    HW194559   2.554   5.151   9.502  0.8718 -2.1403  1.5305
27527SOL    HW294560   2.699   5.132   9.463  0.8108  0.5529 -0.3187
27528SOL     OW94561   1.321   9.052   5.685  0.1966  0.3236  0.0930
27528SOL    HW194562   1.240   9.100   5.701  1.6197  2.4766  1.3615
27528SOL    HW294563   1.390   9.118   5.692  2.1272 -1.5069 -0.4623
27529SOL     OW94564   3.197   4.317   9.230 -0.2567  0.0141 -0.1358
27529SOL    HW194565   3.154   4.258   9.168  0.4282  0.1589 -0.7667
27529SOL    HW294566   3.261   4.262   9.275 -1.1448 -0.2266  0.8787
27530SOL     OW94567   9.674   0.169   7.699 -0.1469  0.0040  0.2536
27530SOL    HW194568   9.653   0.236   7.765 -0.0546 -0.3909  0.6897
27530SOL    HW294569   9.622   0.093   7.726  2.2859 -1.2450  1.7610
27531SOL     OW94570   2.616   8.637   4.029 -0.6540  0.4733 -0.0282
27531SOL    HW194571   2.604   8.719   3.980 -0.3815  1.0811  0.8999
27531SOL    HW294572   2.528   8.615   4.060 -0.9238 -0.1982 -1.1962
27532SOL     OW94573   3.778   0.726   6.411 -0.1952 -0.1679 -0.2948
27532SOL    HW194574   3.774   0.645   6.462  1.9554 -1.9550 -2.7015
27532SOL    HW294575   3.688   0.743   6.386 -0.6975 -1.8874  0.1867
27533SOL     OW94576   4.673   6.048   9.188 -0.1655  0.1875 -0.1741
27533SOL    HW194577   4.734   6.011   9.124 -0.7993 -1.2714  0.0273
27533SOL    HW294578   4.594   6.068   9.137  0.5622  2.4569 -0.5139
27534SOL     OW94579   9.645   3.550   9.224 -0.7807  0.3128 -0.6052
27534SOL    HW194580   9.675   3.598   9.147 -0.5070 -1.0714 -1.3999
27534SOL    HW294581   9.554   3.579   9.236 -1.2436 -0.3480 -2.2264
27535SOL     OW94582   5.097   5.109   5.447 -0.3861  0.2828 -0.0873
27535SOL    HW194583   5.140   5.179   5.397 -0.2909  0.8889  0.8302
27535SOL    HW294584   5.103   5.137   5.538 -2.9984  0.5420  0.0669
27536SOL     OW94585   3.990   4.511   8.150 -0.4861 -0.1204  0.2333
27536SOL    HW194586   3.946   4.543   8.072 -1.1740 -0.0121  0.6571
27536SOL    HW294587   4.075   4.555   8.149  0.0983 -1.2047 -1.1936
27537SOL     OW94588   0.697   2.048   0.156  0.2938 -0.4094 -0.3675
27537SOL    HW194589   0.710   2.095   0.074 -0.5022 -0.9353 -0.8067
27537SOL    HW294590   0.602   2.044   0.167  0.3412  2.0616  1.9997
27538SOL     OW94591   9.476   3.092   9.159  0.2173 -0.2361  0.2817
27538SOL    HW194592   9.510   3.163   9.214  1.4237 -0.5338 -0.0532
27538SOL    HW294593   9.537   3.019   9.174  1.2088 -0.0132 -2.2029
27539SOL     OW94594   6.351   8.788   1.970 -0.3902  0.0553  0.0385
27539SOL    HW194595   6.323   8.696   1.962 -0.9453  0.0822  1.4209
27539SOL    HW294596   6.273   8.839   1.951 -0.5216  0.1957  0.9195
27540SOL     OW94597   8.885   0.218   6.488  0.1966  0.0505  0.1902
27540SOL    HW194598   8.926   0.303   6.500  0.0218  0.3297 -1.0207
27540SOL    HW294599   8.951   0.166   6.443  0.5197 -0.6633  1.4452
27541SOL     OW94600  10.378   9.113   5.214  0.2947  0.3966 -0.5753
27541SOL    HW194601  10.340   9.167   5.145  1.4889  1.5369 -0.3655
27541SOL    HW294602  10.312   9.045   5.230 -0.8607  1.2781 -1.4408
27542SOL     OW94603   8.340   0.849   5.356 -0.4361  0.1735  0.2072
27542SOL    HW194604   8.294   0.844   5.272 -0.5800  2.4425  0.0954
27542SOL    HW294605   8.418   0.901   5.338  0.0230 -0.1101  1.2956
27543SOL     OW94606   8.344   4.495   6.822  0.4196  0.3273  0.0815
27543SOL    HW194607   8.355   4.587   6.799  1.7950  0.1155 -0.2080
27543SOL    HW294608   8.264   4.469   6.777 -0.0614  1.4025  0.2722
27544SOL     OW94609   6.427   7.750   2.735  0.1891 -0.8276  0.1738
27544SOL    HW194610   6.438   7.843   2.716  0.1815 -1.1411 -1.4547
27544SOL    HW294611   6.336   7.742   2.763 -0.2287 -0.5335 -1.0327
27545SOL     OW94612   6.086   9.052   6.157 -0.2703  0.2186  0.6007
27545SOL    HW194613   5.998   9.084   6.137 -0.3727  0.2509  1.0788
27545SOL    HW294614   6.092   9.059   6.252  0.4158  0.6405  0.5319
27546SOL     OW94615   3.766   4.978   1.697 -0.4277 -0.6108  0.0617
27546SOL    HW194616   3.758   5.060   1.650 -0.4214  0.3254  1.6225
27546SOL    HW294617   3.844   4.936   1.661  0.4301  0.7763  0.2621
27547SOL     OW94618   0.277   0.022   7.236 -0.2721  0.2636  0.0757
27547SOL    HW194619   0.186   0.052   7.246  0.7540  3.6652  0.3790
27547SOL    HW294620   0.329   0.088   7.283  2.3928 -1.5095 -0.2054
27548SOL     OW94621   2.997  10.294   4.324  0.3886  0.5592  0.2938
27548SOL    HW194622   3.075  10.263   4.277 -0.7202 -2.4025  0.1873
27548SOL    HW294623   2.942  10.333   4.256  0.6642  0.2697 -0.0998
27549SOL     OW94624   9.880  10.325   1.718 -0.0080  0.5006  0.2006
27549SOL    HW194625   9.790  10.318   1.748 -0.1177  0.5148 -0.1211
27549SOL    HW294626   9.919  10.392   1.774 -0.5400  1.3845 -0.4774
27550SOL     OW94627   4.919   6.318   8.584 -0.0405 -0.3232 -0.4346
27550SOL    HW194628   4.928   6.362   8.668 -1.5051 -0.7126 -0.0578
27550SOL    HW294629   4.884   6.385   8.525 -0.8963 -0.5788 -0.2247
27551SOL     OW94630   0.344   1.813   7.960  0.3092 -0.0562 -0.7053
27551SOL    HW194631   0.254   1.826   7.989  0.8226  0.2787  0.8107
27551SOL    HW294632   0.396   1.872   8.014  1.5022 -0.5974 -1.2213
27552SOL     OW94633   8.326   2.665   3.753  0.4886 -0.0615 -0.3644
27552SOL    HW194634   8.420   2.683   3.764  0.4980  0.1618 -0.8151
27552SOL    HW294635   8.321   2.569   3.750  0.3101 -0.3315  3.3012
27553SOL     OW94636   9.834   8.917   9.441 -0.4293  0.5834  0.0320
27553SOL    HW194637   9.911   8.881   9.398 -1.0040  0.5173 -0.9628
27553SOL    HW294638   9.846   9.012   9.439 -0.8579  0.6235 -1.0675
27554SOL     OW94639  10.371   0.183   5.109 -0.0388 -0.6107 -0.1758
27554SOL    HW194640  10.367   0.146   5.020  0.7382 -0.3411 -0.3286
27554SOL    HW294641  10.390   0.108   5.165  0.9981 -0.5432 -0.4233
27555SOL     OW94642   1.871   6.273   4.627  0.1707  0.1085  0.5005
27555SOL    HW194643   1.908   6.184   4.623 -1.7981 -0.7095 -0.5147
27555SOL    HW294644   1.947   6.330   4.616  1.2913 -1.4780 -0.4981
27556SOL     OW94645   6.512   3.098   0.510  0.4696  0.6453  0.0753
27556SOL    HW194646   6.495   3.019   0.459  1.4698  1.5066 -1.6689
27556SOL    HW294647   6.527   3.066   0.599 -2.7632 -0.7811  0.2581
27557SOL     OW94648   7.340   8.077   1.286  0.5317  0.1488 -0.1777
27557SOL    HW194649   7.307   8.165   1.302 -1.7747 -0.4500 -1.2261
27557SOL    HW294650   7.406   8.088   1.217 -0.1355  1.0148 -0.7024
27558SOL     OW94651   8.836   5.020   2.052 -0.1247 -0.2363 -0.1271
27558SOL    HW194652   8.843   5.114   2.035  1.5363 -0.3583 -0.2457
27558SOL    HW294653   8.925   4.993   2.076 -0.4800 -1.8695 -0.5511
27559SOL     OW94654   0.467   5.891   5.540  0.3656  0.2430  0.5614
27559SOL    HW194655   0.489   5.845   5.459 -1.5330 -0.7876  0.5683
27559SOL    HW294656   0.467   5.823   5.607  1.4181  0.9947  1.3557
27560SOL     OW94657   1.173   0.298   3.778 -0.5146 -0.3840 -0.1186
27560SOL    HW194658   1.198   0.219   3.731 -0.2523 -0.7417  0.6051
27560SOL    HW294659   1.089   0.323   3.740  0.3228  0.1379 -1.7535
27561SOL     OW94660   0.494   1.783   5.378  0.3523  0.2560 -0.1236
27561SOL    HW194661   0.518   1.812   5.466  1.5240 -0.2526 -0.2543
27561SOL    HW294662   0.578   1.768   5.334 -0.1843  1.4547 -1.6591
27562SOL     OW94663   2.483   4.169   1.324  0.4637  0.6784 -0.1184
27562SOL    HW194664   2.437   4.130   1.398 -0.8811  0.6355 -0.9409
27562SOL    HW294665   2.514   4.094   1.273  0.2267  0.6868 -0.2801
27563SOL     OW94666   6.815   7.327   6.155  0.3281  0.3226  0.0531
27563SOL    HW194667   6.812   7.333   6.060  1.1610 -0.5766 -0.0478
27563SOL    HW294668   6.817   7.233   6.173 -0.8892  0.4563  1.0122
27564SOL     OW94669   0.507   0.374   1.786 -0.3375 -0.4808  0.7710
27564SOL    HW194670   0.487   0.446   1.846 -0.0313 -1.1012  1.6335
27564SOL    HW294671   0.459   0.299   1.820  0.7371 -1.1294  0.9074
27565SOL     OW94672   6.099   2.523   8.826  0.7324  0.2596 -0.2866
27565SOL    HW194673   6.111   2.434   8.792  0.2701  0.8353 -2.0435
27565SOL    HW294674   6.122   2.580   8.753 -1.0506  1.5639  0.1070
27566SOL     OW94675   6.695   6.411   8.707  0.1698 -0.4676 -0.3477
27566SOL    HW194676   6.658   6.467   8.639  0.5664 -0.8177 -0.8671
27566SOL    HW294677   6.747   6.347   8.659  1.6041  0.1253  0.3512
27567SOL     OW94678   4.991   9.192   6.554 -0.0701 -0.2589  0.1254
27567SOL    HW194679   4.969   9.283   6.536 -1.0595 -0.6821 -0.9773
27567SOL    HW294680   4.990   9.184   6.649  1.1564  1.1236  0.2913
27568SOL     OW94681   9.483   0.894   2.131  0.0394 -0.4998 -0.2430
27568SOL    HW194682   9.572   0.922   2.111 -0.1214 -0.3625 -0.7839
27568SOL    HW294683   9.433   0.975   2.138 -0.5200 -0.6096 -2.2404
27569SOL     OW94684   9.830   4.120   5.866  0.2508  0.4333 -0.0739
27569SOL    HW194685   9.840   4.176   5.943  0.7592  1.0697 -0.5939
27569SOL    HW294686   9.866   4.171   5.794  0.4709 -0.4596 -0.6107
27570SOL     OW94687   7.639   7.939   7.325  0.1153  0.0249  0.3852
27570SOL    HW194688   7.632   7.910   7.234 -0.6240 -1.2473  0.8222
27570SOL    HW294689   7.698   7.876   7.366  1.4611  1.3204  0.5218
27571SOL     OW94690   5.307   8.962  10.022  0.5143 -0.3558 -0.0958
27571SOL    HW194691   5.276   9.051  10.042 -0.4052  0.1656 -3.3054
27571SOL    HW294692   5.402   8.970  10.019  0.4404  0.5383 -0.3669
27572SOL     OW94693   9.752   4.672   6.151  0.5720  0.0584 -0.0004
27572SOL    HW194694   9.724   4.631   6.069 -0.4608 -0.8991  0.8015
27572SOL    HW294695   9.841   4.701   6.134  0.5604 -0.5884 -1.2971
27573SOL     OW94696   7.085   8.189   5.551  0.2360 -0.7968  0.0894
27573SOL    HW194697   7.167   8.173   5.504 -0.1350 -1.2730 -0.4203
27573SOL    HW294698   7.018   8.149   5.495 -0.6247  1.5290 -0.6614
27574SOL     OW94699   1.408   7.980   3.297  0.2717  0.9079  0.0143
27574SOL    HW194700   1.343   8.036   3.339 -0.9731 -0.8978  0.5963
27574SOL    HW294701   1.435   7.919   3.366  0.2074 -0.3865 -1.0598
27575SOL     OW94702   0.648   2.903   0.576  0.2778  0.0644  0.0250
27575SOL    HW194703   0.675   2.901   0.668  0.6899  2.2226 -0.0031
27575SOL    HW294704   0.719   2.857   0.530  0.7610  0.1894  0.6309
27576SOL     OW94705   1.279   7.257   9.998 -0.3414 -0.5634  0.0508
27576SOL    HW194706   1.312   7.254   9.909  0.4355 -1.8227  0.3566
27576SOL    HW294707   1.188   7.288   9.989  0.3494  1.3390 -0.9480
27577SOL     OW94708   6.182   3.792   5.969 -0.2642 -0.3513 -0.1724
27577SOL    HW194709   6.266   3.750   5.948 -0.8029 -1.1569 -0.7529
27577SOL    HW294710   6.128   3.722   6.005 -1.5444 -0.4677 -2.1761
27578SOL     OW94711   7.794   5.725   5.093  0.5836 -0.2642  0.6986
27578SOL    HW194712   7.769   5.815   5.115  0.6331  0.5427 -2.1734
27578SOL    HW294713   7.881   5.714   5.133  1.6226  1.8377 -0.7710
27579SOL     OW94714   0.524   5.000   0.053  0.2372  0.3622 -0.4599
27579SOL    HW194715   0.442   5.050   0.057  0.8934  1.3975  0.6831
27579SOL    HW294716   0.582   5.045   0.114  1.3127 -0.9999 -0.4445
27580SOL     OW94717   7.423   2.095   8.757  0.4991  0.5139  0.3713
27580SOL    HW194718   7.339   2.134   8.782 -0.2962 -0.0325 -1.2877
27580SOL    HW294719   7.488   2.162   8.777 -0.5755  1.7946 -0.2495
27581SOL     OW94720   3.356   5.285   0.898  0.3560 -0.1106 -0.1852
27581SOL    HW194721   3.427   5.274   0.962  2.1489 -0.4880 -2.1373
27581SOL    HW294722   3.295   5.213   0.918  2.0625 -1.6716 -0.3411
27582SOL     OW94723   3.197   8.717   9.244  0.3877 -0.6918 -0.1995
27582SOL    HW194724   3.183   8.637   9.193 -1.4516  0.3406 -1.3863
27582SOL    HW294725   3.112   8.738   9.280  0.7551  0.9417 -0.2171
27583SOL     OW94726   6.547   0.867  10.323 -0.0312 -0.2540 -0.2081
27583SOL    HW194727   6.465   0.913  10.336  0.5962  1.2747 -1.3292
27583SOL    HW294728   6.527   0.801  10.256 -0.5812 -0.6078  0.2978
27584SOL     OW94729   9.337   8.502   9.024 -0.2786 -0.5253  0.3564
27584SOL    HW194730   9.423   8.517   8.985 -0.6651 -0.7240 -0.6003
27584SOL    HW294731   9.320   8.581   9.075  0.3716 -0.3903  0.3796
27585SOL     OW94732   4.358   0.519   3.343  0.1041  0.1216 -0.2212
27585SOL    HW194733   4.399   0.536   3.428 -1.1155 -0.4029  0.4985
27585SOL    HW294734   4.373   0.599   3.293  0.4311  0.6297  0.6609
27586SOL     OW94735   8.469   3.924   7.185  0.0556  0.2531  0.4775
27586SOL    HW194736   8.435   3.836   7.167 -1.5854  0.2220  3.2206
27586SOL    HW294737   8.539   3.910   7.248  2.2204  0.7252 -1.6790
27587SOL     OW94738   6.662   2.384   6.951  0.1691  0.4973 -0.4732
27587SOL    HW194739   6.601   2.331   6.900  1.3916 -0.4979 -0.9686
27587SOL    HW294740   6.610   2.418   7.024 -1.6835  2.1146 -2.4234
27588SOL     OW94741   5.848   5.794   6.427  0.0819 -0.3713  0.1203
27588SOL    HW194742   5.836   5.797   6.522  1.1699  1.2680  0.2464
27588SOL    HW294743   5.820   5.880   6.397  0.0619 -0.7639 -1.0144
27589SOL     OW94744   3.010   2.047  10.236 -0.3069  0.3618 -0.1654
27589SOL    HW194745   3.038   2.115  10.175 -2.2663  0.6703 -0.7667
27589SOL    HW294746   2.944   1.998  10.189 -0.0576 -0.9838  0.8394
27590SOL     OW94747   0.453  10.139   5.062 -0.4690 -0.0418 -0.0259
27590SOL    HW194748   0.405  10.138   4.979 -1.1547  1.4266  0.3175
27590SOL    HW294749   0.545  10.149   5.037 -0.7465  1.1957 -0.6104
27591SOL     OW94750   2.320   9.553   3.791  0.3887 -0.4130  0.3284
27591SOL    HW194751   2.331   9.487   3.859 -1.3015 -1.8344 -0.7173
27591SOL    HW294752   2.241   9.528   3.744 -1.0586  3.0275  0.6092
27592SOL     OW94753   1.352   9.975   6.678  0.0734 -0.5074  0.2969
27592SOL    HW194754   1.389   9.887   6.670  0.2962 -0.4026  0.1897
27592SOL    HW294755   1.425  10.034   6.659 -0.6233 -0.3013 -2.0062
27593SOL     OW94756   6.964   4.011   8.363  0.2725 -0.2076 -0.1649
27593SOL    HW194757   7.014   4.092   8.361  0.8471 -0.5655 -1.2763
27593SOL    HW294758   6.891   4.026   8.304 -0.4103 -0.0311  0.7003
27594SOL     OW94759   0.883   1.629   1.613  0.6475  0.1252 -0.3519
27594SOL    HW194760   0.948   1.569   1.578  0.1157  0.1857 -1.5049
27594SOL    HW294761   0.838   1.579   1.681 -0.0668 -0.9596 -1.5694
27595SOL     OW94762   7.770   2.464   6.267 -0.1122  0.4223 -0.0306
27595SOL    HW194763   7.676   2.479   6.255  0.0225  1.4092  0.0847
27595SOL    HW294764   7.807   2.551   6.279  0.4107 -0.1278  3.1716
27596SOL     OW94765   0.726   9.719   0.467 -0.7161 -0.2007  0.0979
27596SOL    HW194766   0.678   9.698   0.387 -3.3948  2.2745  0.8545
27596SOL    HW294767   0.817   9.700   0.446 -1.5054 -1.2998 -2.9183
27597SOL     OW94768   2.307   8.332   9.896 -0.2473  0.1463 -0.3478
27597SOL    HW194769   2.219   8.309   9.927 -0.9017  1.2654 -1.2750
27597SOL    HW294770   2.291   8.395   9.825  1.3136  0.4208 -0.4799
27598SOL     OW94771   7.774   8.703   0.955  0.3948 -0.3812  0.1587
27598SOL    HW194772   7.849   8.722   0.898  0.6347  0.5033  0.7364
27598SOL    HW294773   7.737   8.789   0.974 -1.1707 -0.8576 -0.6315
27599SOL     OW94774   9.623   8.797   5.152  1.0656 -0.2415  0.4118
27599SOL    HW194775   9.665   8.718   5.118  0.1017 -0.0850 -1.2444
27599SOL    HW294776   9.538   8.800   5.108  0.3481  0.7941  1.7704
27600SOL     OW94777  10.221   8.627   4.160  0.6245  0.4330  0.4940
27600SOL    HW194778  10.244   8.551   4.107  1.7365  0.6121  0.6986
27600SOL    HW294779  10.295   8.687   4.150  0.4290  0.8665  1.4991
27601SOL     OW94780   1.596   3.093   8.861 -0.6412 -0.0886 -0.0771
27601SOL    HW194781   1.504   3.107   8.883 -0.4081  1.6294 -0.0810
27601SOL    HW294782   1.609   2.998   8.871 -2.7433 -0.5699 -1.4852
27602SOL     OW94783   7.538   8.221   6.339  0.3068  0.8763 -0.0243
27602SOL    HW194784   7.459   8.170   6.357  0.2029  0.7187 -0.8696
27602SOL    HW294785   7.607   8.157   6.327  0.4385  0.9895  0.1221
27603SOL     OW94786   0.392   8.198   5.056 -0.5152 -0.5882 -0.4706
27603SOL    HW194787   0.299   8.220   5.051 -0.5501 -0.5382  0.3231
27603SOL    HW294788   0.431   8.241   4.980 -0.9689  0.2672 -0.2310
27604SOL     OW94789   0.001   0.074   2.787 -0.1330  0.0752  0.6636
27604SOL    HW194790  -0.007   0.142   2.720 -2.4679 -0.0210  0.7866
27604SOL    HW294791   0.012  -0.007   2.737  0.6224  0.2804  0.4773
27605SOL     OW94792   3.848   1.108   6.822  0.2183 -0.2388 -0.4981
27605SOL    HW194793   3.766   1.124   6.777  0.1128 -0.6965 -0.4746
27605SOL    HW294794   3.849   1.172   6.894 -0.0927 -0.2001 -0.5270
27606SOL     OW94795   2.714   5.956   3.133  0.1069 -0.0946 -0.1964
27606SOL    HW194796   2.701   5.941   3.227  1.8598  0.8189  0.2410
27606SOL    HW294797   2.759   5.878   3.102  0.9444  0.2521  0.0970
27607SOL     OW94798   6.170   8.713   6.252 -0.2460 -0.7448 -0.4204
27607SOL    HW194799   6.116   8.745   6.180  0.7534  0.6604 -0.5891
27607SOL    HW294800   6.260   8.723   6.221  0.2469  0.5245  1.2469
27608SOL     OW94801   2.079   7.544   0.777 -0.3638  0.0704  0.1177
27608SOL    HW194802   2.054   7.514   0.689 -0.5507 -0.2424  0.2746
27608SOL    HW294803   2.126   7.470   0.815 -0.8580 -0.0398  0.5217
27609SOL     OW94804   2.447   8.423   7.076 -0.0137 -0.1377  0.1841
27609SOL    HW194805   2.513   8.487   7.053  0.6956 -0.3139  1.6245
27609SOL    HW294806   2.455   8.412   7.171 -0.9355 -1.4492  0.1505
27610SOL     OW94807   3.342   8.513   6.551 -0.7681  0.2749 -0.4467
27610SOL    HW194808   3.422   8.504   6.499 -0.1767 -0.8931  0.6073
27610SOL    HW294809   3.285   8.443   6.519 -1.6789  1.4987 -1.6438
27611SOL     OW94810   2.221   1.089   0.703 -0.8549  0.1615  0.3329
27611SOL    HW194811   2.248   1.179   0.684 -1.6525  0.1409 -1.0551
27611SOL    HW294812   2.225   1.082   0.798  1.9567  0.7860  0.3604
27612SOL     OW94813   3.823   3.909   8.447 -0.4328  0.3081  0.7212
27612SOL    HW194814   3.744   3.879   8.402  0.2815  0.2760 -0.5513
27612SOL    HW294815   3.889   3.843   8.426  0.9086  2.1806 -1.3465
27613SOL     OW94816   2.668   4.096   5.145 -0.4570 -0.7929 -0.2698
27613SOL    HW194817   2.664   4.122   5.052 -0.2872 -0.0480 -0.0741
27613SOL    HW294818   2.657   4.178   5.193  3.5363 -0.4469  0.3835
27614SOL     OW94819   8.831   7.916   4.228  0.3723  0.7994  0.0798
27614SOL    HW194820   8.927   7.913   4.218  0.3389 -0.0591 -0.1112
27614SOL    HW294821   8.798   7.914   4.138  0.1583 -1.2933  0.1371
27615SOL     OW94822  10.248  10.197   6.132  0.1152  0.6581  0.3590
27615SOL    HW194823  10.225  10.198   6.039  2.2342  0.7769 -0.2315
27615SOL    HW294824  10.200  10.122   6.168  1.2149 -1.0008 -1.4364
27616SOL     OW94825   4.564   3.427   8.319  0.0184  0.3982  0.3198
27616SOL    HW194826   4.539   3.442   8.227  2.5426 -1.2081 -0.7623
27616SOL    HW294827   4.649   3.469   8.328 -0.4306  0.9870  2.1292
27617SOL     OW94828   0.193   1.681   8.805  0.0654  0.1654 -0.1751
27617SOL    HW194829   0.148   1.731   8.737  1.4175  1.8812  0.1037
27617SOL    HW294830   0.261   1.741   8.837  0.6468 -1.2664  1.4063
27618SOL     OW94831  10.125   3.544   3.865 -0.1174  0.3729 -0.3870
27618SOL    HW194832  10.106   3.498   3.783 -1.6126 -1.1859  0.7817
27618SOL    HW294833  10.075   3.626   3.858 -0.9430 -0.1403 -0.7006
27619SOL     OW94834   2.237   4.049   8.494 -0.1811 -0.1171 -0.4152
27619SOL    HW194835   2.210   4.067   8.404 -0.0533  0.2761 -0.3774
27619SOL    HW294836   2.328   4.023   8.487  0.1540  0.9890 -0.2923
27620SOL     OW94837   7.080   8.247   3.043 -0.3160  0.3401 -0.1795
27620SOL    HW194838   7.110   8.162   3.074 -1.2791 -1.0842 -2.8849
27620SOL    HW294839   7.156   8.286   3.001  0.2057  1.0039  1.3184
27621SOL     OW94840   3.145   7.229   8.841  0.3786 -0.2928  0.6184
27621SOL    HW194841   3.221   7.198   8.891  0.2366  0.0860  1.0739
27621SOL    HW294842   3.071   7.184   8.880  0.3990 -0.8573  0.0041
27622SOL     OW94843   0.526   2.623   1.709  1.3459  0.9513  0.5257
27622SOL    HW194844   0.612   2.665   1.704  2.0016 -0.4882 -1.0063
27622SOL    HW294845   0.502   2.606   1.618  0.0117  0.1653  0.9993
27623SOL     OW94846   9.608   0.114   8.654 -0.0202 -0.3766 -0.3018
27623SOL    HW194847   9.587   0.136   8.745  0.3786 -1.3668  0.0416
27623SOL    HW294848   9.703   0.117   8.649 -0.0527 -0.0216 -0.7712
27624SOL     OW94849   1.258   9.888  10.170 -0.3638 -0.7090  0.3385
27624SOL    HW194850   1.188   9.946  10.139  0.0127 -0.4384 -0.0061
27624SOL    HW294851   1.230   9.800  10.144 -1.0553 -0.7238  1.0765
27625SOL     OW94852   0.330   5.706  10.358  0.3434  0.2061  0.0548
27625SOL    HW194853   0.403   5.727  10.416 -1.2666  1.4227  1.7868
27625SOL    HW294854   0.366   5.644  10.295  2.4179 -0.5851  1.8878
27626SOL     OW94855   5.040   2.835   5.672  0.4102 -0.6040  0.2802
27626SOL    HW194856   5.135   2.829   5.678  0.7590  2.6641 -0.0009
27626SOL    HW294857   5.014   2.887   5.748 -1.0818 -0.9360  0.0380
27627SOL     OW94858   5.130   8.962   5.881 -0.9099  0.7567  0.2582
27627SOL    HW194859   5.098   8.880   5.842  0.8507  0.2127 -0.1587
27627SOL    HW294860   5.091   9.031   5.827  0.1014  0.0615 -1.4365
27628SOL     OW94861   0.351   4.434   8.269  0.0732  0.5677 -0.2690
27628SOL    HW194862   0.429   4.399   8.311 -1.7852  0.1035  3.2195
27628SOL    HW294863   0.293   4.358   8.258 -1.1440  1.3439  0.4644
27629SOL     OW94864   4.243   4.044   9.341  0.0697  0.6879  0.2364
27629SOL    HW194865   4.247   3.974   9.405  1.2174  1.4246  1.0104
27629SOL    HW294866   4.162   4.029   9.293 -0.3412 -0.4076  1.2475
27630SOL     OW94867   9.032   8.066   7.884 -0.0656  0.0013 -0.0125
27630SOL    HW194868   9.103   8.071   7.947 -0.3228  1.0713  0.2225
27630SOL    HW294869   8.966   8.128   7.917 -0.5462 -0.0173 -0.8960
27631SOL     OW94870   2.234   7.359   4.774 -0.3520  0.7389 -0.1249
27631SOL    HW194871   2.204   7.433   4.720 -0.1355  0.9611  0.0552
27631SOL    HW294872   2.325   7.380   4.794  0.1269 -0.2473 -1.2011
27632SOL     OW94873   7.643   0.256   2.377 -0.0820  0.2937 -0.3195
27632SOL    HW194874   7.562   0.235   2.330 -0.7067  0.3415  0.7151
27632SOL    HW294875   7.657   0.181   2.435 -0.4169  1.1164  0.8645
27633SOL     OW94876   3.703   8.363   7.972 -0.1748 -0.0174 -0.1641
27633SOL    HW194877   3.798   8.351   7.973  0.3182  2.9920 -1.1160
27633SOL    HW294878   3.668   8.277   7.997  2.7850 -0.8382  1.7041
27634SOL     OW94879   0.925   9.755   7.605  0.4335  0.3340  0.5951
27634SOL    HW194880   0.919   9.797   7.690 -2.0083 -0.2354  0.7781
27634SOL    HW294881   0.850   9.790   7.556  1.4379  0.1858 -1.1009
27635SOL     OW94882   6.881   7.185   9.236  0.4427  0.1647  0.0795
27635SOL    HW194883   6.888   7.193   9.331  0.1418 -0.1821  0.1332
27635SOL    HW294884   6.921   7.100   9.216 -0.7281 -0.4034  0.0555
27636SOL     OW94885   3.427   9.665   6.751  0.0382 -0.2546 -0.2348
27636SOL    HW194886   3.370   9.666   6.828  0.0022  0.7210 -0.2548
27636SOL    HW294887   3.408   9.748   6.707 -0.6719 -1.2107 -1.8396
27637SOL     OW94888   9.084   6.311   3.008 -0.0832  0.0971 -0.1736
27637SOL    HW194889   9.078   6.343   2.918 -1.8010 -1.3875 -0.6433
27637SOL    HW294890   9.173   6.276   3.015  0.1198  0.3591 -1.2492
27638SOL     OW94891   5.162   9.541   4.553 -0.3753  0.4965  0.0590
27638SOL    HW194892   5.196   9.552   4.642 -0.5511 -0.1321  0.2109
27638SOL    HW294893   5.104   9.616   4.540  0.8507  1.4506 -0.1088
27639SOL     OW94894   6.541   4.142   7.740 -0.4902  0.0266  0.9504
27639SOL    HW194895   6.547   4.098   7.655 -0.9088  0.1248  0.8714
27639SOL    HW294896   6.485   4.218   7.724  1.2534  1.3334  0.7707
27640SOL     OW94897   2.915   7.518   9.791  0.2504  0.0172 -0.1577
27640SOL    HW194898   2.898   7.523   9.885  1.5177 -0.8032  0.1493
27640SOL    HW294899   2.902   7.607   9.759 -0.9507  0.1467  0.6460
27641SOL     OW94900  10.371   7.656   9.948  0.0730 -0.1135 -0.4734
27641SOL    HW194901  10.379   7.688   9.858  1.3780  0.4698 -0.1701
27641SOL    HW294902  10.458   7.669   9.986 -0.5136 -0.1543  0.9419
27642SOL     OW94903   0.295   2.119   1.650  0.0375 -0.0064 -0.4030
27642SOL    HW194904   0.379   2.082   1.625 -0.6380 -1.0292 -1.1878
27642SOL    HW294905   0.232   2.049   1.636 -0.7810  0.2831  1.4893
27643SOL     OW94906   7.426   9.407   1.945  0.0949 -0.3078 -0.2635
27643SOL    HW194907   7.474   9.380   2.024  0.6996  2.6690  0.5018
27643SOL    HW294908   7.494   9.419   1.879 -0.1168 -0.3359 -0.4884
27644SOL     OW94909   6.107   3.652   1.075 -0.0062  0.9169 -0.1823
27644SOL    HW194910   6.059   3.612   1.003  0.9189 -0.6407  0.0277
27644SOL    HW294911   6.068   3.739   1.084 -1.0018  0.6670 -1.7035
27645SOL     OW94912   9.614   0.755   2.630 -0.0199  0.1415 -0.1037
27645SOL    HW194913   9.568   0.741   2.547 -1.9832  1.8271  0.6011
27645SOL    HW294914   9.634   0.668   2.662  0.1061 -0.5600 -1.9829
27646SOL     OW94915   9.297   0.463   5.053  0.6540  0.1717 -0.1298
27646SOL    HW194916   9.217   0.510   5.074 -0.1272 -1.3030  0.2957
27646SOL    HW294917   9.329   0.505   4.973  0.4273  1.9229  0.6607
27647SOL     OW94918   1.267   8.724   1.382  0.5079 -0.2520  0.1488
27647SOL    HW194919   1.289   8.785   1.452  1.8620 -0.8140  0.2309
27647SOL    HW294920   1.347   8.715   1.331 -0.6807  0.9069 -2.1167
27648SOL     OW94921   7.290   1.759   4.260  0.3753  0.2314  0.9252
27648SOL    HW194922   7.331   1.799   4.336 -0.3322 -0.6876  1.8182
27648SOL    HW294923   7.352   1.691   4.233  1.7136  2.0111 -0.7666
27649SOL     OW94924   6.349   1.080   0.220  0.1033 -0.1496  0.0850
27649SOL    HW194925   6.332   1.016   0.151  0.1649  0.5043 -0.5458
27649SOL    HW294926   6.406   1.145   0.179 -1.1731  1.1244  0.2611
27650SOL     OW94927   8.416   8.406   3.675 -0.0445  0.2058  0.4039
27650SOL    HW194928   8.463   8.476   3.630 -0.4809 -0.3130 -0.9045
27650SOL    HW294929   8.475   8.331   3.671 -0.3908 -0.0569 -0.0233
27651SOL     OW94930   4.149   3.040   7.702 -0.0630  0.4350 -0.3034
27651SOL    HW194931   4.174   3.060   7.792  0.0920 -1.6081  0.1559
27651SOL    HW294932   4.217   3.081   7.648 -0.3621  1.9937  0.4523
27652SOL     OW94933   1.391   3.488   0.835 -0.1179 -0.3223  0.0107
27652SOL    HW194934   1.410   3.395   0.842 -4.7189 -1.5878 -1.0756
27652SOL    HW294935   1.398   3.521   0.925  1.4710 -1.6355  0.4226
27653SOL     OW94936   7.779   7.752   4.278 -0.2933  0.0790  0.2652
27653SOL    HW194937   7.863   7.738   4.234  0.1185  2.0041  0.3291
27653SOL    HW294938   7.750   7.838   4.247 -0.9979  0.5882  2.1746
27654SOL     OW94939   1.017   3.174   2.003  0.0067  0.8254  0.4537
27654SOL    HW194940   0.938   3.154   2.053 -0.2561  0.1100 -0.2340
27654SOL    HW294941   1.088   3.136   2.054 -0.4432 -1.7994 -0.6828
27655SOL     OW94942   8.618   1.835   6.508  0.0003 -0.2367  0.2454
27655SOL    HW194943   8.647   1.844   6.599  1.1929 -0.6360 -0.0771
27655SOL    HW294944   8.632   1.743   6.487  0.4797  0.0143 -0.5788
27656SOL     OW94945   0.482   0.341   5.436  0.2516 -0.1463  0.0590
27656SOL    HW194946   0.483   0.278   5.508  0.2275  1.2170  1.2930
27656SOL    HW294947   0.541   0.412   5.465  1.4799 -0.2714 -1.9394
27657SOL     OW94948   2.123   3.434   7.476 -0.5284 -0.1162  0.4985
27657SOL    HW194949   2.200   3.402   7.429 -0.7844  1.0407 -0.7906
27657SOL    HW294950   2.146   3.427   7.568  0.7407 -0.6995  0.1567
27658SOL     OW94951   6.941   4.421   5.911 -0.0202 -0.7658 -0.4523
27658SOL    HW194952   6.964   4.450   5.999 -1.0554  1.2194 -0.7900
27658SOL    HW294953   7.018   4.372   5.881  0.1734 -1.8739  1.6807
27659SOL     OW94954   7.601   2.773   3.029  0.0516 -0.1624 -0.4304
27659SOL    HW194955   7.654   2.693   3.029 -0.8552 -0.7729 -0.2708
27659SOL    HW294956   7.564   2.777   3.117  1.0719  1.1086 -0.0370
27660SOL     OW94957   4.949   3.890   7.256 -0.2266 -0.1684  0.0928
27660SOL    HW194958   5.009   3.930   7.193 -0.3500 -0.3020 -0.1078
27660SOL    HW294959   4.862   3.913   7.225 -0.3702 -1.9325 -0.9397
27661SOL     OW94960   0.398   6.046   5.058 -0.4973 -0.4864 -0.1546
27661SOL    HW194961   0.486   6.020   5.030 -0.0122  1.2216 -0.3273
27661SOL    HW294962   0.383   5.995   5.138 -0.4483 -2.7567 -1.5123
27662SOL     OW94963   7.721   0.474   4.391 -0.1782  0.2396  0.1148
27662SOL    HW194964   7.807   0.486   4.349  1.0909 -2.8433  1.5468
27662SOL    HW294965   7.662   0.453   4.318  1.6317 -3.4541 -0.4881
27663SOL     OW94966   8.801   6.707   8.610  0.7890 -0.3195 -0.1396
27663SOL    HW194967   8.830   6.754   8.532 -0.4207  0.5303 -0.1083
27663SOL    HW294968   8.749   6.772   8.659 -0.9006 -1.6459 -0.0795
27664SOL     OW94969   3.708   5.792   8.045 -0.2423 -0.5107 -0.1608
27664SOL    HW194970   3.670   5.863   8.097 -0.4919 -1.1224  0.5158
27664SOL    HW294971   3.635   5.759   7.992  0.2013  0.6652 -1.5757
27665SOL     OW94972   4.368   6.239   5.660  0.3704  0.3156  0.8271
27665SOL    HW194973   4.330   6.151   5.659 -2.1627  1.3009  0.0532
27665SOL    HW294974   4.438   6.235   5.724 -0.2133 -2.0561  1.4050
27666SOL     OW94975   0.196   6.279   4.214 -0.0199  0.2862 -0.1582
27666SOL    HW194976   0.182   6.207   4.152 -0.3222  1.3979 -1.4291
27666SOL    HW294977   0.259   6.336   4.170 -0.7555  1.4397  0.2527
27667SOL     OW94978   0.378   2.652   7.572 -0.1217  0.1841 -0.4319
27667SOL    HW194979   0.416   2.639   7.658 -1.7939 -1.0026  0.1903
27667SOL    HW294980   0.372   2.563   7.535 -0.1957  0.5870 -1.4318
27668SOL     OW94981   3.560   7.580   1.055  0.1373 -0.1433  0.6252
27668SOL    HW194982   3.529   7.589   0.965  1.5297 -1.8472 -0.0930
27668SOL    HW294983   3.620   7.654   1.066  1.2456 -0.8316 -0.4751
27669SOL     OW94984   6.703   8.114   8.903  0.3857 -0.4067 -0.0883
27669SOL    HW194985   6.749   8.038   8.868  0.5506 -0.3699  0.0514
27669SOL    HW294986   6.766   8.156   8.961  0.7386  0.5490 -1.1265
27670SOL     OW94987   2.413   0.984   5.487 -0.3236  0.5376  0.3836
27670SOL    HW194988   2.385   0.904   5.531  2.8829 -0.6225  0.5339
27670SOL    HW294989   2.356   0.990   5.410 -0.2202 -2.2953 -0.0101
27671SOL     OW94990   7.893   6.549   6.968 -1.1283 -0.2969 -0.4915
27671SOL    HW194991   7.974   6.549   7.019  0.3081 -1.6575 -2.5963
27671SOL    HW294992   7.862   6.459   6.970 -0.5213 -0.6251 -2.6456
27672SOL     OW94993   3.085   2.283   6.026 -0.3385  0.1911 -0.3170
27672SOL    HW194994   3.126   2.244   6.103 -0.5850 -0.5553 -0.5503
27672SOL    HW294995   2.998   2.242   6.022 -0.2859  0.1250 -1.0492
27673SOL     OW94996   0.395   6.285   0.716  0.2401  0.3542 -0.1425
27673SOL    HW194997   0.410   6.252   0.627  1.2645 -0.6398  0.3725
27673SOL    HW294998   0.482   6.289   0.756 -0.3440 -1.3821  1.5194
27674SOL     OW94999   1.217   2.256   4.593  0.1223 -0.6295  0.4064
27674SOL    HW195000   1.219   2.220   4.682  1.1961  0.4806  0.8542
27674SOL    HW295001   1.144   2.317   4.594  0.2268 -0.5078  0.5640
27675SOL     OW95002   3.238   9.164   1.172 -0.4068 -0.2611 -0.1326
27675SOL    HW195003   3.243   9.216   1.091 -0.6862  0.4343  0.2825
27675SOL    HW295004   3.158   9.113   1.163  0.4825 -1.5321 -1.0647
27676SOL     OW95005   3.517   6.798   6.710 -0.7493 -0.2927  0.0549
27676SOL    HW195006   3.609   6.803   6.735 -0.1120 -0.1952 -2.0808
27676SOL    HW295007   3.470   6.790   6.793  1.1780 -0.4905  1.1981
27677SOL     OW95008   2.085   0.590   6.251 -0.3059  0.1787  0.6457
27677SOL    HW195009   2.053   0.530   6.319 -1.3992  0.0238  0.0130
27677SOL    HW295010   2.111   0.669   6.299 -3.0373  0.8885  1.1001
27678SOL     OW95011   3.728   0.983   2.620 -0.7946  0.2922 -0.5398
27678SOL    HW195012   3.700   0.918   2.556 -0.6455 -0.2825 -0.0335
27678SOL    HW295013   3.761   0.932   2.693  1.2646  0.9151 -0.9564
27679SOL     OW95014   9.394   4.177   9.467  0.3627  0.5482 -0.3000
27679SOL    HW195015   9.474   4.126   9.457  0.1805 -0.1801  1.5069
27679SOL    HW295016   9.383   4.222   9.383  1.9797 -0.2956 -1.0075
27680SOL     OW95017   6.335   1.209   1.929 -0.1982  0.3050 -0.4057
27680SOL    HW195018   6.280   1.132   1.936 -0.1244  0.0951 -1.8070
27680SOL    HW295019   6.402   1.198   1.996 -0.4671 -0.6110 -0.2845
27681SOL     OW95020   0.463   4.132  10.294  0.4530 -0.6495  0.3641
27681SOL    HW195021   0.392   4.134  10.357  1.3162  0.2661  1.3430
27681SOL    HW295022   0.437   4.195  10.226  0.3807 -0.2157  0.7889
27682SOL     OW95023   2.998   4.980   9.093  0.3729  0.1604  0.1599
27682SOL    HW195024   3.077   4.977   9.040  0.8428  0.3448  0.8348
27682SOL    HW295025   3.025   5.022   9.175 -0.9340  2.3593 -0.4605
27683SOL     OW95026   9.961   9.459   8.935  0.9396 -0.2175 -0.0890
27683SOL    HW195027   9.885   9.458   8.877 -0.1293  0.4956  1.2334
27683SOL    HW295028   9.925   9.443   9.022  2.3244  0.0601  0.5670
27684SOL     OW95029   1.116   2.367   2.024  0.2793 -0.0972 -0.1903
27684SOL    HW195030   1.089   2.282   1.989 -0.7890  0.8139 -1.6760
27684SOL    HW295031   1.208   2.375   2.000  0.1552 -0.4650 -0.7941
27685SOL     OW95032   8.866   8.606   5.196  0.6726 -0.7310  0.5677
27685SOL    HW195033   8.864   8.523   5.149  0.3749  0.0607 -0.8543
27685SOL    HW295034   8.863   8.673   5.128 -0.5231  0.4623  1.7428
27686SOL     OW95035   6.366   2.118   9.290  0.1681 -0.1580 -0.2861
27686SOL    HW195036   6.365   2.162   9.205 -1.7492  0.8323  0.1977
27686SOL    HW295037   6.416   2.177   9.347 -1.0215  0.6610 -0.0448
27687SOL     OW95038   2.341   9.185   8.056 -0.3270 -0.0479  0.8520
27687SOL    HW195039   2.403   9.208   7.987 -1.7777 -0.5955 -0.7011
27687SOL    HW295040   2.378   9.105   8.095  0.6286  0.3994  0.8936
27688SOL     OW95041   1.635   2.628   5.739 -0.7918 -0.0825 -0.0321
27688SOL    HW195042   1.590   2.712   5.746 -1.1258 -0.1343 -1.4549
27688SOL    HW295043   1.573   2.564   5.774  0.0714  0.3942  2.6354
27689SOL     OW95044   0.954   8.671   2.919 -0.2234  0.2849 -0.3043
27689SOL    HW195045   0.868   8.700   2.951  0.3635  1.7089  0.0146
27689SOL    HW295046   0.989   8.619   2.991 -0.6448  0.0213 -0.2816
27690SOL     OW95047   7.991   0.325   9.836  0.3155 -0.4459  0.3478
27690SOL    HW195048   8.056   0.255   9.845  0.5640 -0.2278  0.2914
27690SOL    HW295049   7.962   0.343   9.925  1.1669  0.2272  0.4976
27691SOL     OW95050   4.772   3.724   6.726 -0.4510 -0.2295  0.2616
27691SOL    HW195051   4.712   3.650   6.733  0.1274 -0.7990 -0.6779
27691SOL    HW295052   4.818   3.726   6.811  0.7128 -2.0061 -0.2630
27692SOL     OW95053  10.312   2.622   3.544 -0.1931  0.3565 -0.1281
27692SOL    HW195054  10.380   2.674   3.503 -1.0314  0.7772 -1.0317
27692SOL    HW295055  10.359   2.557   3.596  0.8944  2.0523  1.1321
27693SOL     OW95056   2.480   0.483   0.926 -0.2563  0.5023 -0.3591
27693SOL    HW195057   2.422   0.407   0.926  0.5617 -0.1443 -0.5124
27693SOL    HW295058   2.436   0.547   0.870 -0.0945 -0.5627 -1.7620
27694SOL     OW95059   2.939   3.258   1.283  0.2407  0.0078  0.3626
27694SOL    HW195060   2.977   3.176   1.254  1.3938  1.3294 -2.2154
27694SOL    HW295061   2.916   3.243   1.374  0.2553 -3.1808 -0.0400
27695SOL     OW95062   3.580   8.067   6.719 -0.1661 -0.2705  0.8492
27695SOL    HW195063   3.632   8.050   6.798 -1.7376 -0.7609  1.8359
27695SOL    HW295064   3.571   7.981   6.678  1.3334  0.1052 -0.3684
27696SOL     OW95065  10.017   9.184   3.318  0.2793  0.3594  0.2132
27696SOL    HW195066   9.943   9.164   3.261  0.0994  1.0978  0.1779
27696SOL    HW295067   9.980   9.183   3.406  0.1711  0.9600  0.1780
27697SOL     OW95068   4.793   4.246   0.670  0.0699  0.2629  0.3715
27697SOL    HW195069   4.733   4.285   0.733  1.2748  2.2604  0.3637
27697SOL    HW295070   4.772   4.289   0.587 -1.0556 -1.8659 -0.5282
27698SOL     OW95071   1.004   8.246   9.686 -0.0813  0.4113  0.8491
27698SOL    HW195072   1.095   8.223   9.667 -0.1918  1.5106 -1.2741
27698SOL    HW295073   0.991   8.329   9.641 -2.7177 -0.7045 -0.6181
27699SOL     OW95074   7.797   4.480   7.525 -0.3003 -0.0700  0.1599
27699SOL    HW195075   7.818   4.446   7.439 -1.2669 -0.4330  0.0520
27699SOL    HW295076   7.766   4.569   7.509 -2.2052 -0.7406 -0.0970
27700SOL     OW95077   3.050   9.048   1.880  0.0083 -0.0454 -0.4053
27700SOL    HW195078   3.047   8.994   1.800  1.5481  1.4069 -1.5206
27700SOL    HW295079   2.995   9.001   1.942  0.3747 -2.3179 -1.6553
27701SOL     OW95080   9.896   6.428   7.274  0.1141  0.1911  0.3636
27701SOL    HW195081   9.982   6.437   7.316 -1.3635  1.1635  3.3886
27701SOL    HW295082   9.894   6.336   7.245  1.6465 -0.2263  1.4384
27702SOL     OW95083   2.882   7.435   6.140 -0.9945  0.6761  0.2561
27702SOL    HW195084   2.940   7.499   6.099 -1.0386 -0.9896 -2.7140
27702SOL    HW295085   2.796   7.478   6.140 -1.4603  0.1316 -3.5617
27703SOL     OW95086   1.730   9.949   8.835  1.1412 -0.2852  0.2432
27703SOL    HW195087   1.706   9.983   8.748  0.7222  0.1143  0.5097
27703SOL    HW295088   1.659   9.977   8.892  1.9993  0.4947  0.9582
27704SOL     OW95089   3.293   2.390   9.744 -0.0973 -0.5218  0.0138
27704SOL    HW195090   3.353   2.438   9.801  0.5596 -1.5066  0.1852
27704SOL    HW295091   3.264   2.454   9.679 -0.2615  0.4236  0.9834
27705SOL     OW95092   9.708   4.067   1.927 -0.0628  0.7601  0.3796
27705SOL    HW195093   9.670   4.003   1.988 -0.1086  0.3876 -0.0356
27705SOL    HW295094   9.756   4.014   1.864  1.0990  1.2299  0.8565
27706SOL     OW95095   0.822   6.719   7.425 -0.2391 -0.4171 -0.3203
27706SOL    HW195096   0.752   6.655   7.412 -1.4424  0.9420 -0.9178
27706SOL    HW295097   0.830   6.728   7.520 -1.4721 -0.0013 -0.2407
27707SOL     OW95098   9.414   8.642   1.296  0.0790 -0.6680 -1.1304
27707SOL    HW195099   9.485   8.671   1.354 -1.2324  1.9362 -0.6694
27707SOL    HW295100   9.359   8.587   1.352  0.1592 -0.2490 -0.6313
27708SOL     OW95101   2.138   2.564   8.873  0.5484 -0.2166  0.2778
27708SOL    HW195102   2.167   2.484   8.828  0.8889  0.2457 -0.3385
27708SOL    HW295103   2.055   2.585   8.832  1.2812  0.7070 -0.8005
27709SOL     OW95104   9.650   5.172   7.257  0.1760  0.0033  0.5333
27709SOL    HW195105   9.606   5.091   7.283  1.8424 -1.0148  0.3515
27709SOL    HW295106   9.602   5.203   7.181 -1.5527  0.1618  1.6331
27710SOL     OW95107   1.403   5.338   1.468  0.2371  0.3112 -0.2239
27710SOL    HW195108   1.494   5.366   1.456 -0.6058  2.4331 -2.7376
27710SOL    HW295109   1.371   5.390   1.542  1.1068 -0.7317  0.9268
27711SOL     OW95110   4.474   8.224   5.941 -0.0676 -0.7055 -0.4804
27711SOL    HW195111   4.555   8.257   5.901  1.4699 -1.1865  2.0401
27711SOL    HW295112   4.477   8.130   5.928 -1.0130 -0.5928 -1.6720
27712SOL     OW95113   1.290   2.931   1.414  0.7789 -0.2213  0.4281
27712SOL    HW195114   1.233   3.008   1.417 -0.3422 -1.0211  0.4514
27712SOL    HW295115   1.247   2.868   1.473  0.5486 -1.5872 -1.1444
27713SOL     OW95116   4.346   1.665   5.514 -0.0667 -0.1796 -0.1871
27713SOL    HW195117   4.348   1.589   5.572  0.1849  0.9411  1.3215
27713SOL    HW295118   4.409   1.643   5.445  0.7375 -0.9545  0.7565
27714SOL     OW95119   8.235   0.208   0.409  0.8807  0.4122 -0.1645
27714SOL    HW195120   8.246   0.220   0.503 -3.1539  3.1405  0.2312
27714SOL    HW295121   8.170   0.138   0.401 -1.8022  2.7991 -0.5425
27715SOL     OW95122   3.524   4.805   5.684 -0.0511 -0.4176 -0.0170
27715SOL    HW195123   3.480   4.889   5.675 -0.0804 -0.3543  0.6417
27715SOL    HW295124   3.574   4.794   5.603  1.9131  1.3782  0.8454
27716SOL     OW95125   1.679   4.050   0.354  0.1933  0.2116 -0.1543
27716SOL    HW195126   1.588   4.068   0.378 -0.0819 -0.9618 -0.2846
27716SOL    HW295127   1.692   4.099   0.273  0.0463  1.3266  0.4752
27717SOL     OW95128   2.427   8.795   3.163  0.0005  0.0389 -0.7808
27717SOL    HW195129   2.406   8.714   3.116  1.1451  0.0462 -1.3536
27717SOL    HW295130   2.395   8.865   3.106 -0.2072  0.0106 -0.6999
27718SOL     OW95131   6.163   0.702   1.843 -0.5952 -0.5863  0.0495
27718SOL    HW195132   6.130   0.657   1.922  0.0309 -1.5554 -0.2236
27718SOL    HW295133   6.245   0.742   1.871  0.1359 -1.7548 -0.3225
27719SOL     OW95134  10.214   4.241   4.518 -0.1491  0.4089  0.2789
27719SOL    HW195135  10.281   4.206   4.576  0.9396  0.0806 -1.1253
27719SOL    HW295136  10.258   4.311   4.470 -0.2086 -0.9553 -1.9341
27720SOL     OW95137   5.614   5.551   6.752 -0.3425  0.0583  0.0150
27720SOL    HW195138   5.704   5.530   6.777 -0.6469 -1.0519  0.2641
27720SOL    HW295139   5.563   5.529   6.830 -0.8956  0.0513 -0.3474
27721SOL     OW95140   9.004  10.297   7.495  0.1439  0.5871 -0.0800
27721SOL    HW195141   8.975  10.345   7.572  0.1181  1.2234 -0.4724
27721SOL    HW295142   9.037  10.214   7.528 -1.6991  0.0303  0.4240
27722SOL     OW95143   9.573   6.388   6.502 -0.0298  1.0303  0.4410
27722SOL    HW195144   9.528   6.448   6.561 -0.2689  2.8292 -1.4348
27722SOL    HW295145   9.660   6.378   6.540 -0.2678  1.8883  1.2598
27723SOL     OW95146   9.157   4.038   6.051  0.7339  0.2121 -0.3285
27723SOL    HW195147   9.208   3.957   6.039  0.9437  0.1439  0.8991
27723SOL    HW295148   9.120   4.030   6.139 -0.0929  0.9993 -0.5910
27724SOL     OW95149   8.228   4.168   6.618 -0.2234  0.0708  0.2361
27724SOL    HW195150   8.240   4.184   6.712  1.0148  0.8962 -0.0529
27724SOL    HW295151   8.285   4.093   6.599 -1.5128 -0.9987  0.3845
27725SOL     OW95152   5.314   2.680   3.412  0.1463  0.2628 -0.4627
27725SOL    HW195153   5.348   2.591   3.423  0.9546  0.5053 -0.9386
27725SOL    HW295154   5.221   2.667   3.395 -0.2922 -0.3421  2.0231
27726SOL     OW95155   9.971   3.686   5.912  0.1390 -0.3243 -0.0581
27726SOL    HW195156   9.896   3.653   5.862  0.7194 -0.9595 -0.5327
27726SOL    HW295157  10.036   3.708   5.846  0.4770 -0.0451  0.3661
27727SOL     OW95158   7.167   9.112   7.469  0.0949  0.2779 -0.3397
27727SOL    HW195159   7.241   9.156   7.511 -0.6073 -0.1136  1.4011
27727SOL    HW295160   7.150   9.035   7.524 -0.7586 -0.3857 -1.4775
27728SOL     OW95161   9.112   5.674   4.140 -0.2450  0.5213 -0.5952
27728SOL    HW195162   9.208   5.677   4.141 -0.2453  0.9855 -1.1554
27728SOL    HW295163   9.087   5.681   4.232  0.2327  2.0662 -0.5556
27729SOL     OW95164   1.383  10.093   4.077 -0.0533 -0.3232  0.0451
27729SOL    HW195165   1.408  10.017   4.024 -2.0874 -1.0313 -0.0042
27729SOL    HW295166   1.334  10.055   4.151 -0.9010  0.9215  0.1418
27730SOL     OW95167   9.855   9.238   8.600 -0.3190 -0.1854 -0.5432
27730SOL    HW195168   9.761   9.240   8.616 -0.3149  0.6014 -0.5780
27730SOL    HW295169   9.865   9.251   8.506 -0.1266  1.9321 -0.2820
27731SOL     OW95170   8.887   8.505   5.629  0.6371 -0.1710 -0.4187
27731SOL    HW195171   8.956   8.505   5.696  0.1280 -0.2567  0.1093
27731SOL    HW295172   8.819   8.561   5.664  0.6700  0.3761 -1.1987
27732SOL     OW95173   6.379   6.710   6.586  0.2187  0.1962  0.3422
27732SOL    HW195174   6.411   6.755   6.664 -0.3731 -0.2761  0.8600
27732SOL    HW295175   6.457   6.667   6.550  0.2974 -0.4838  1.2813
27733SOL     OW95176   2.737   7.422   0.635 -0.2282  0.0485  0.4846
27733SOL    HW195177   2.730   7.373   0.554 -0.7774  0.1890  0.4423
27733SOL    HW295178   2.704   7.363   0.702  1.3227 -0.5025  0.7933
27734SOL     OW95179  10.189   3.515   2.517 -0.3564  0.4280  0.1057
27734SOL    HW195180  10.266   3.469   2.552  0.4667  1.7501  0.1355
27734SOL    HW295181  10.225   3.575   2.452 -1.4753  0.5397 -0.4336
27735SOL     OW95182   8.063   7.026   5.671 -0.2739 -0.0843  0.7353
27735SOL    HW195183   8.012   6.997   5.747 -0.2196 -0.9524  0.4543
27735SOL    HW295184   8.135   7.077   5.709 -1.9957  2.2439  1.0696
27736SOL     OW95185   0.020   8.632   3.894 -0.6410 -0.4301 -0.8091
27736SOL    HW195186   0.094   8.654   3.951 -1.3978 -0.6997  0.3148
27736SOL    HW295187  -0.016   8.716   3.867 -1.4734 -0.2419  0.7413
27737SOL     OW95188   9.863   0.983   2.882 -0.2266 -0.2900 -0.1140
27737SOL    HW195189   9.926   1.006   2.813 -1.9331 -1.0250 -2.0211
27737SOL    HW295190   9.901   1.020   2.962  2.2357 -0.0702 -1.2761
27738SOL     OW95191   2.770   8.875   6.334  0.1635  0.4173 -0.1996
27738SOL    HW195192   2.731   8.796   6.372  1.1790 -0.2353 -0.4905
27738SOL    HW295193   2.697   8.918   6.289 -0.1419 -1.0229 -1.1361
27739SOL     OW95194   7.748   4.757   0.691 -0.1251 -0.5956 -0.2065
27739SOL    HW195195   7.708   4.782   0.608  0.8024  0.4134 -0.3609
27739SOL    HW295196   7.793   4.836   0.721 -0.4834 -0.9174  1.2862
27740SOL     OW95197   7.194   1.769   1.922  0.0263 -0.2575  0.2544
27740SOL    HW195198   7.123   1.718   1.882  0.4140 -0.8699  0.3383
27740SOL    HW295199   7.263   1.769   1.855 -0.2148  0.7284 -0.0139
27741SOL     OW95200   3.803   9.152   2.659 -0.2095  0.2769  0.2345
27741SOL    HW195201   3.857   9.074   2.669  0.6083  1.0238  2.0947
27741SOL    HW295202   3.777   9.174   2.748 -1.5036  1.4099 -0.3858
27742SOL     OW95203   8.101   9.064   1.235  0.2015 -0.0644 -0.2721
27742SOL    HW195204   8.179   9.008   1.241  0.3809  0.2446  0.4742
27742SOL    HW295205   8.070   9.069   1.326  0.1043  0.9254 -0.3572
27743SOL     OW95206   6.667   3.910   0.722 -0.0037 -0.3908  0.5680
27743SOL    HW195207   6.673   3.932   0.629 -2.1497 -2.8480 -0.2612
27743SOL    HW295208   6.755   3.927   0.756  1.0679 -0.1734 -2.0772
27744SOL     OW95209   5.405   8.127   1.709  0.0642  0.3167  0.5850
27744SOL    HW195210   5.373   8.084   1.788 -0.0275  0.2183  0.4938
27744SOL    HW295211   5.491   8.088   1.694  0.3170  0.7244  0.9419
27745SOL     OW95212   7.545   9.602   5.112  0.6591 -0.3229  0.1046
27745SOL    HW195213   7.496   9.589   5.193 -0.0714  0.2621 -0.2382
27745SOL    HW295214   7.593   9.520   5.100  0.5112 -0.5445  0.9397
27746SOL     OW95215  10.050   8.464   6.235  0.1303 -0.0510 -0.2145
27746SOL    HW195216  10.141   8.440   6.218  0.3205  0.3046  0.2699
27746SOL    HW295217  10.038   8.548   6.189  0.5059  0.6710  0.9656
27747SOL     OW95218   3.989   9.115   6.062  0.6046 -0.7120 -0.0183
27747SOL    HW195219   4.044   9.156   5.996  0.3518 -0.7218 -0.2345
27747SOL    HW295220   3.911   9.171   6.067  0.1785 -1.2596 -0.4408
27748SOL     OW95221  10.387   0.680   8.798 -0.0701  0.0048 -0.2217
27748SOL    HW195222  10.454   0.711   8.859  1.4679 -1.0985 -1.2640
27748SOL    HW295223  10.368   0.591   8.826  0.5693 -0.4760 -1.2498
27749SOL     OW95224   1.690   9.637  10.354  0.9225  0.0441  0.3536
27749SOL    HW195225   1.775   9.623  10.313  0.3245  3.2303 -2.4690
27749SOL    HW295226   1.631   9.579  10.307  1.0455  0.0262  0.2194
27750SOL     OW95227   0.041   0.032   3.080 -0.6044 -0.1499  0.1218
27750SOL    HW195228   0.101   0.044   3.154  0.0983  0.7426 -0.5901
27750SOL    HW295229   0.097   0.020   3.004 -1.2958  1.3736 -0.6740
27751SOL     OW95230   9.721   7.181   4.432 -0.0706 -0.3032 -0.0116
27751SOL    HW195231   9.651   7.189   4.368 -1.0557 -1.6373  0.8480
27751SOL    HW295232   9.762   7.268   4.433 -2.5854  0.9743  0.4613
27752SOL     OW95233   5.390   8.206   2.312  0.4103 -0.6499 -0.0511
27752SOL    HW195234   5.447   8.270   2.355 -0.6514  1.3879 -1.5047
27752SOL    HW295235   5.434   8.186   2.229  0.6150 -1.6616  0.2888
27753SOL     OW95236   8.480   3.119   6.256 -0.1514  0.0951  0.1960
27753SOL    HW195237   8.442   3.036   6.229 -0.9496  0.1787  1.0215
27753SOL    HW295238   8.474   3.118   6.352  1.7518  0.1960  0.3619
27754SOL     OW95239   9.139   8.865   4.264 -0.5746  0.5909 -0.1227
27754SOL    HW195240   9.218   8.892   4.309 -1.0443  0.1566  0.9963
27754SOL    HW295241   9.118   8.938   4.206  1.0901  0.3681 -1.0846
27755SOL     OW95242   5.193   3.388   2.332 -0.1450  0.3561 -0.7850
27755SOL    HW195243   5.250   3.337   2.390 -3.0913  0.2224  2.3235
27755SOL    HW295244   5.219   3.479   2.348 -0.8442  0.3168  0.8497
27756SOL     OW95245   2.231   2.176   4.014 -0.0369 -0.1356 -0.0956
27756SOL    HW195246   2.267   2.091   3.989 -1.1449 -0.9849  1.0843
27756SOL    HW295247   2.300   2.239   3.991 -0.4977 -0.8645 -4.2096
27757SOL     OW95248   0.089   9.436   4.350  0.1116  0.4850 -0.4702
27757SOL    HW195249   0.070   9.380   4.276  0.9489  0.9714 -1.0678
27757SOL    HW295250   0.083   9.378   4.426  0.4092 -0.2816 -1.0208
27758SOL     OW95251   2.164   9.289   6.685 -0.6415  0.3261 -0.1723
27758SOL    HW195252   2.247   9.334   6.700 -0.3240  0.1671 -1.3750
27758SOL    HW295253   2.179   9.200   6.716 -1.2198  0.9416  2.0639
27759SOL     OW95254   4.069   9.849   1.195  0.6305  0.6496 -0.1439
27759SOL    HW195255   3.988   9.884   1.158 -0.5101  0.8401  2.3362
27759SOL    HW295256   4.042   9.768   1.238  1.7917  0.5965  0.5128
27760SOL     OW95257   8.970   6.484   3.726 -0.2058  0.0355  0.1696
27760SOL    HW195258   8.984   6.429   3.802  0.7276  1.6454  1.2109
27760SOL    HW295259   9.052   6.532   3.715 -1.1955  1.7286 -0.2448
27761SOL     OW95260   2.165   1.252   8.305  0.8078 -0.6125  0.9743
27761SOL    HW195261   2.156   1.175   8.249 -1.6692  0.3207 -0.0601
27761SOL    HW295262   2.085   1.251   8.359  1.4518  0.4560  1.9979
27762SOL     OW95263   3.900   1.805   8.703  0.4057  0.6906 -0.1124
27762SOL    HW195264   3.845   1.882   8.718  1.0515  1.2234 -0.4482
27762SOL    HW295265   3.863   1.764   8.625  0.5803  1.1452 -0.4409
27763SOL     OW95266   8.765   0.391   2.478  0.0492  0.3959 -0.0833
27763SOL    HW195267   8.822   0.461   2.446 -0.0795  0.5561  0.0403
27763SOL    HW295268   8.791   0.378   2.569  0.4872 -0.1339 -0.2740
27764SOL     OW95269   3.649   3.110   5.364 -0.6763 -0.2097 -0.3255
27764SOL    HW195270   3.643   3.198   5.326  2.4298 -0.6314 -2.1346
27764SOL    HW295271   3.598   3.054   5.306  0.5793 -0.1544 -1.5440
27765SOL     OW95272   6.761   9.569   6.361 -0.2820 -0.0838  0.1340
27765SOL    HW195273   6.843   9.534   6.397 -0.2151 -0.0045  0.0582
27765SOL    HW295274   6.744   9.647   6.413 -0.3427 -0.1338  0.1906
27766SOL     OW95275   8.397   5.394   0.294  0.4692  0.0237  0.4439
27766SOL    HW195276   8.426   5.368   0.207 -0.5260 -0.2903  0.1999
27766SOL    HW295277   8.446   5.474   0.312  0.9899 -0.1347 -0.2298
27767SOL     OW95278  10.116   6.947   3.115  0.5576  0.4027  0.2475
27767SOL    HW195279  10.183   6.921   3.051 -1.2806 -0.3641 -1.4639
27767SOL    HW295280  10.117   6.877   3.181  0.1918 -0.5869 -0.7697
27768SOL     OW95281   8.584   9.251   7.682  0.3229 -0.0573  0.0254
27768SOL    HW195282   8.509   9.203   7.647 -0.9016  0.4370  1.8708
27768SOL    HW295283   8.606   9.314   7.613 -1.2878  0.1373 -0.3442
27769SOL     OW95284   8.148   7.379   5.383 -0.0715  0.3586  0.2937
27769SOL    HW195285   8.077   7.347   5.327  0.4236 -1.3891  0.6193
27769SOL    HW295286   8.201   7.434   5.325  0.1686 -1.0321 -0.8742
27770SOL     OW95287   5.319   6.513   9.170  0.1259 -0.1124  0.5278
27770SOL    HW195288   5.395   6.552   9.214  0.0387 -1.3004  1.7898
27770SOL    HW295289   5.246   6.530   9.230 -0.5211  0.5374 -0.4191
27771SOL     OW95290   7.870   3.750   8.243 -0.6903  0.1127  0.8974
27771SOL    HW195291   7.827   3.808   8.179  0.1357  1.1107  1.2264
27771SOL    HW295292   7.943   3.712   8.195  1.0868  2.3048  1.6885
27772SOL     OW95293   3.069   4.580   8.754  0.2175  0.3004  0.3574
27772SOL    HW195294   3.159   4.597   8.727 -0.5554  0.3775 -2.4376
27772SOL    HW295295   3.037   4.665   8.787  1.2256  0.1760  1.7379
27773SOL     OW95296   4.067   7.024   8.357 -0.2123  0.6378  0.0385
27773SOL    HW195297   4.055   7.015   8.263  0.5848 -1.0324  0.0661
27773SOL    HW295298   3.979   7.041   8.391 -0.6536  0.3069 -0.9056
27774SOL     OW95299   1.559   2.505   9.297 -0.4816 -0.2599 -0.1277
27774SOL    HW195300   1.502   2.432   9.322 -0.8854 -0.2360 -0.9410
27774SOL    HW295301   1.500   2.572   9.265  0.0038 -0.2844 -1.1098
27775SOL     OW95302   0.087   0.296   9.847 -0.0594 -0.6103  0.4160
27775SOL    HW195303   0.004   0.322   9.807 -0.4516 -0.5436  1.2387
27775SOL    HW295304   0.153   0.309   9.779 -0.4120  1.3811  0.4109
27776SOL     OW95305   9.307   4.877   0.175 -0.2289 -0.1202  0.0230
27776SOL    HW195306   9.229   4.909   0.220  0.2512  1.2536 -0.0740
27776SOL    HW295307   9.379   4.897   0.235  0.1067 -0.9521 -0.0909
27777SOL     OW95308   3.414   1.279   6.517 -0.1602  0.6091 -0.0997
27777SOL    HW195309   3.329   1.322   6.504  0.4882  1.7873 -0.6009
27777SOL    HW295310   3.454   1.325   6.590 -0.4674 -0.8053  1.0059
27778SOL     OW95311   0.035   5.900   2.207 -0.0905  0.1657  0.3212
27778SOL    HW195312   0.029   5.972   2.144  1.4611 -0.5230 -0.6814
27778SOL    HW295313   0.029   5.943   2.292 -0.2826  1.3566 -0.2706
27779SOL     OW95314   9.047   0.049   6.874  0.1127  0.3151 -0.8393
27779SOL    HW195315   9.055   0.106   6.950 -1.9872 -1.1330  0.5904
27779SOL    HW295316   8.994   0.099   6.812 -2.0003 -0.0764  0.5320
27780SOL     OW95317   8.368   0.478   0.343  0.2365 -0.3614  0.1020
27780SOL    HW195318   8.305   0.550   0.347 -1.4581 -1.7951  0.4378
27780SOL    HW295319   8.318   0.400   0.369  1.6776 -1.8770 -1.3998
27781SOL     OW95320   5.520   0.811   9.571 -0.0895  0.5929  0.7643
27781SOL    HW195321   5.456   0.806   9.500 -0.6265 -2.7571  1.3158
27781SOL    HW295322   5.589   0.751   9.545 -0.4369 -0.9445  3.1458
27782SOL     OW95323   8.378   7.144  10.092 -0.5595  0.2491 -0.0026
27782SOL    HW195324   8.392   7.093  10.172  0.4839  1.4260  0.5922
27782SOL    HW295325   8.446   7.212  10.094 -0.0191 -0.1338 -2.2711
27783SOL     OW95326   5.567   9.671  10.143 -0.5798 -0.3587 -0.0705
27783SOL    HW195327   5.472   9.660  10.150 -0.6992  0.4776 -0.2651
27783SOL    HW295328   5.593   9.615  10.070 -0.6636 -1.8983  1.0134
27784SOL     OW95329   2.125   7.676   6.326 -0.8782 -0.2121 -0.1943
27784SOL    HW195330   2.057   7.707   6.385 -0.0797  0.4807  0.3977
27784SOL    HW295331   2.104   7.715   6.241 -1.5685 -0.5357 -0.1741
27785SOL     OW95332   7.602   7.877   9.790  0.2715 -0.4324 -0.0337
27785SOL    HW195333   7.555   7.942   9.842  1.6934  0.3787  0.2996
27785SOL    HW295334   7.605   7.800   9.847 -1.2105 -0.7347 -0.3335
27786SOL     OW95335  10.172   0.437   4.366 -0.2386 -0.3135 -0.3345
27786SOL    HW195336  10.090   0.448   4.415  1.3681 -0.1646  2.4874
27786SOL    HW295337  10.158   0.357   4.315 -1.2325 -1.9238  2.2364
27787SOL     OW95338   2.062   9.924   3.438  0.0108  0.7514  0.9292
27787SOL    HW195339   2.115   9.845   3.431  0.6838  1.1627  1.3562
27787SOL    HW295340   1.981   9.903   3.390  0.1972 -0.1767  1.0163
27788SOL     OW95341   0.864   5.079   1.818 -0.6255  0.2351  0.0779
27788SOL    HW195342   0.797   5.030   1.770 -0.0764  0.3405 -0.8215
27788SOL    HW295343   0.942   5.071   1.764 -0.7337  2.8750 -0.6093
27789SOL     OW95344   5.222   9.951   5.640  0.1713  0.2203 -0.2391
27789SOL    HW195345   5.292   9.984   5.696 -1.0782  1.0910  0.8698
27789SOL    HW295346   5.263   9.882   5.589  2.0472  1.2608 -0.2324
27790SOL     OW95347   0.058   1.890   2.135  0.7272 -0.0321 -0.3549
27790SOL    HW195348  -0.005   1.947   2.180 -0.6649  0.4299 -2.7518
27790SOL    HW295349   0.029   1.801   2.155  0.5068  0.1416  0.1196
27791SOL     OW95350   1.378  10.013   3.429 -0.1213  0.2948 -0.4151
27791SOL    HW195351   1.417  10.028   3.515 -0.9897 -1.6652  0.3744
27791SOL    HW295352   1.303  10.072   3.426  1.0439  1.8263 -0.6897
27792SOL     OW95353   3.431   2.240   9.574 -0.0358 -0.0849 -0.2080
27792SOL    HW195354   3.373   2.287   9.635  0.3155  0.4515 -0.2829
27792SOL    HW295355   3.404   2.148   9.582  0.6965 -0.1983  1.5640
27793SOL     OW95356   0.054   1.347   5.253 -0.0040  0.6033 -0.0091
27793SOL    HW195357   0.148   1.342   5.235 -0.0606  0.1780 -0.2151
27793SOL    HW295358   0.015   1.287   5.189 -0.0407 -2.9168  2.9766
27794SOL     OW95359   4.344   9.063   6.734  0.3589  0.1961 -0.2673
27794SOL    HW195360   4.311   9.098   6.816  0.1269 -2.1906  0.7476
27794SOL    HW295361   4.298   9.112   6.666 -1.5336  0.3530  1.0645
27795SOL     OW95362   4.925   7.482   7.221  0.3650  0.0438 -0.3068
27795SOL    HW195363   4.913   7.568   7.261 -0.9917 -0.3943  0.3104
27795SOL    HW295364   4.999   7.444   7.268 -1.6760 -0.7757  2.5286
27796SOL     OW95365   1.325   3.507   8.303 -0.1582  0.0060 -0.0635
27796SOL    HW195366   1.395   3.568   8.280 -0.3437  0.8545  1.5261
27796SOL    HW295367   1.253   3.531   8.246  0.6854 -0.6255 -1.4519
27797SOL     OW95368   2.300   4.040   1.931  0.2509 -0.8116  0.5469
27797SOL    HW195369   2.341   4.005   2.010 -0.3197 -1.1804  0.6854
27797SOL    HW295370   2.264   3.963   1.887 -1.2101 -0.3967  0.9564
27798SOL     OW95371  10.327   1.205   5.066  0.6083  0.5209  0.1330
27798SOL    HW195372  10.319   1.227   4.973 -1.1351  1.3589  0.4304
27798SOL    HW295373  10.241   1.168   5.089  1.2640 -0.3731  1.2455
27799SOL     OW95374   4.083   5.918   5.493  0.8944 -0.0878 -0.4410
27799SOL    HW195375   4.018   5.904   5.424  1.2043  1.4865 -1.0937
27799SOL    HW295376   4.047   5.987   5.547  1.6418  0.2041 -0.3057
27800SOL     OW95377   9.233   8.113   9.305 -0.0086  0.5003  0.4750
27800SOL    HW195378   9.326   8.093   9.317  0.1790  1.3171  0.4294
27800SOL    HW295379   9.221   8.196   9.351 -0.1532  1.6886 -1.6128
27801SOL     OW95380   0.638   7.701   5.381  0.2482  0.3685  0.2136
27801SOL    HW195381   0.581   7.624   5.376  0.7524 -0.1420  1.8789
27801SOL    HW295382   0.662   7.718   5.290 -0.4215 -1.0181 -0.2607
27802SOL     OW95383   6.030   8.028   7.580  0.0287 -0.5265 -0.7658
27802SOL    HW195384   5.949   8.013   7.531  0.4722 -1.4624 -1.2403
27802SOL    HW295385   6.001   8.071   7.661 -0.9302 -0.7834 -0.9531
27803SOL     OW95386   9.327   1.299   8.834 -0.1207 -0.1760 -0.7319
27803SOL    HW195387   9.312   1.339   8.748  0.4953 -1.2753 -1.3811
27803SOL    HW295388   9.375   1.218   8.814  0.8519  0.0108  0.7192
27804SOL     OW95389   3.777   3.272   6.842 -0.4086 -0.4955  0.2430
27804SOL    HW195390   3.865   3.310   6.847 -0.5529 -0.1054 -0.1319
27804SOL    HW295391   3.738   3.292   6.927 -0.5336  0.3254 -0.0016
27805SOL     OW95392   9.317   5.402   8.089 -0.1826  0.0470 -0.4102
27805SOL    HW195393   9.361   5.487   8.079 -0.3604  0.4377  1.7298
27805SOL    HW295394   9.243   5.406   8.027  0.6068  0.8752 -1.3316
27806SOL     OW95395   4.814   1.166   5.868  0.1219 -0.4067 -0.2233
27806SOL    HW195396   4.801   1.171   5.962 -0.7648 -0.5626 -0.3221
27806SOL    HW295397   4.840   1.075   5.852 -0.4009 -0.5681 -0.1901
27807SOL     OW95398   2.181   7.320   6.485 -0.2549  0.1263 -0.0522
27807SOL    HW195399   2.129   7.352   6.411  0.7657 -1.3422 -1.4792
27807SOL    HW295400   2.217   7.400   6.524  0.0177  0.9232 -1.8077
27808SOL     OW95401   6.701   1.505   2.125  0.1528  0.5223 -0.5544
27808SOL    HW195402   6.752   1.524   2.204 -0.4980  0.5468 -0.1318
27808SOL    HW295403   6.615   1.544   2.143 -0.1586  0.0736 -1.0604
27809SOL     OW95404   7.266   7.388   8.166  0.6127 -0.1615 -0.3057
27809SOL    HW195405   7.292   7.468   8.212 -0.3832  0.0219 -0.0496
27809SOL    HW295406   7.338   7.327   8.183  1.5644  0.7794 -0.8165
27810SOL     OW95407   7.254   1.535   4.470 -0.4403 -0.0354 -0.2721
27810SOL    HW195408   7.325   1.540   4.535 -1.2763  2.5858  0.5827
27810SOL    HW295409   7.295   1.558   4.387 -0.0673  0.3596  0.0186
27811SOL     OW95410   2.784   2.366   8.579 -0.7482 -0.2136 -0.6099
27811SOL    HW195411   2.761   2.352   8.487 -2.0395 -1.1289 -0.1676
27811SOL    HW295412   2.858   2.307   8.595 -0.4578  0.0160 -1.0606
27812SOL     OW95413   1.829   8.012   9.227 -0.1837 -0.6803  0.5205
27812SOL    HW195414   1.883   8.017   9.306 -0.9656  0.5465  1.0203
27812SOL    HW295415   1.792   8.100   9.218 -0.4250 -0.9050 -0.9963
27813SOL     OW95416   0.006   7.103   4.630  0.4614 -0.2620 -0.2224
27813SOL    HW195417   0.084   7.067   4.672 -0.4489  1.0896  2.8836
27813SOL    HW295418   0.040   7.171   4.571  1.7429 -1.6879 -1.2058
27814SOL     OW95419   1.161  10.387   9.754 -0.1525 -0.2836 -0.6526
27814SOL    HW195420   1.102  10.442   9.703  0.7694 -0.0708 -1.5066
27814SOL    HW295421   1.156  10.424   9.843 -1.2024 -0.2043 -0.7244
27815SOL     OW95422   9.477   1.039   2.636 -0.1798  0.1218  0.3132
27815SOL    HW195423   9.514   1.065   2.721  0.7824  1.2006 -0.4219
27815SOL    HW295424   9.507   0.949   2.624 -0.8691 -0.2802  1.4024
27816SOL     OW95425   9.271  10.196   0.157 -0.1548 -0.0051 -0.2993
27816SOL    HW195426   9.359  10.169   0.184 -0.5433 -1.0571 -0.0514
27816SOL    HW295427   9.287  10.264   0.091  0.8253  1.1620  1.0603
27817SOL     OW95428   4.306   9.624   3.529 -0.3837 -0.1101 -0.3022
27817SOL    HW195429   4.265   9.540   3.508  0.9497 -0.6698 -0.8309
27817SOL    HW295430   4.392   9.619   3.486 -0.2416  1.4830 -0.2391
27818SOL     OW95431   6.701   4.116   2.024 -0.2180 -0.3295 -0.7502
27818SOL    HW195432   6.629   4.070   2.067 -0.3834  0.2488 -0.4001
27818SOL    HW295433   6.659   4.167   1.954 -0.3436  1.1031  0.3381
27819SOL     OW95434  10.180   4.631   3.532 -0.1974  0.1004  0.1246
27819SOL    HW195435  10.118   4.683   3.583 -1.6030  0.0031 -1.3819
27819SOL    HW295436  10.156   4.649   3.441  0.6014 -1.6195 -0.4656
27820SOL     OW95437  10.039   2.436   5.497 -0.1583 -0.2013 -0.1508
27820SOL    HW195438   9.981   2.481   5.437  1.6004 -0.6066 -2.2774
27820SOL    HW295439  10.045   2.346   5.464 -0.3755 -0.9031  1.5845
27821SOL     OW95440   5.063   4.689   2.793  0.1151 -0.3298  0.0727
27821SOL    HW195441   5.097   4.771   2.758  2.2206 -1.2724 -0.2822
27821SOL    HW295442   5.043   4.708   2.885  0.5810  0.5723 -0.0003
27822SOL     OW95443   6.354   1.026   5.738 -0.5625 -0.0653  0.3217
27822SOL    HW195444   6.394   0.971   5.805  1.1058  0.2972 -0.3187
27822SOL    HW295445   6.407   1.106   5.738 -1.3507  0.4801 -0.5372
27823SOL     OW95446   0.233   0.430   0.902 -0.0553 -0.1930  0.3419
27823SOL    HW195447   0.155   0.385   0.868 -1.2156  0.5350  1.9409
27823SOL    HW295448   0.232   0.516   0.858 -0.1626 -0.1696  0.3914
27824SOL     OW95449   2.416   9.282   7.202  0.2222 -0.1080 -0.2125
27824SOL    HW195450   2.421   9.194   7.238 -2.6090 -0.6557 -0.9481
27824SOL    HW295451   2.405   9.339   7.279 -1.8208 -0.8556  0.1174
27825SOL     OW95452   5.392   8.261   0.791 -0.2423 -0.4761 -0.3728
27825SOL    HW195453   5.433   8.333   0.743  0.2518 -0.5766 -0.1171
27825SOL    HW295454   5.446   8.252   0.870  0.0516 -1.5019 -0.6728
27826SOL     OW95455   2.426   4.177   6.487  0.4515 -0.2415  0.0970
27826SOL    HW195456   2.433   4.117   6.561  1.5383 -0.4659 -0.1715
27826SOL    HW295457   2.339   4.215   6.495 -0.0174 -1.3844  0.6383
27827SOL     OW95458   5.179  10.349   7.841 -0.5965 -1.1489  0.1081
27827SOL    HW195459   5.161  10.292   7.917  1.2564 -1.2211  0.5332
27827SOL    HW295460   5.266  10.322   7.811  0.1649  1.1765  0.0526
27828SOL     OW95461   6.414   1.481   4.749  0.1691 -0.1603  0.1090
27828SOL    HW195462   6.393   1.492   4.842  0.0385  2.3811 -0.1655
27828SOL    HW295463   6.410   1.386   4.736 -2.9969 -0.4649  1.9609
27829SOL     OW95464   4.081   9.845   6.600  0.7258  0.1632  0.6024
27829SOL    HW195465   3.994   9.855   6.638  0.7438  0.2293  0.6249
27829SOL    HW295466   4.076   9.762   6.552 -0.4422  1.7281 -2.2682
27830SOL     OW95467   0.626   6.296   0.860 -0.1048 -0.1182 -0.0190
27830SOL    HW195468   0.565   6.290   0.934  2.5371 -1.9567  2.2468
27830SOL    HW295469   0.700   6.347   0.894 -0.0606  1.6333 -2.4930
27831SOL     OW95470   6.420   6.027  10.098  0.3757  0.6586  0.3963
27831SOL    HW195471   6.413   5.945  10.145  1.5183  0.2902 -0.0407
27831SOL    HW295472   6.330   6.050  10.075  0.1714 -2.0789 -2.1704
27832SOL     OW95473   0.605   9.868   6.312  0.4862  0.5683 -0.6058
27832SOL    HW195474   0.696   9.841   6.327 -0.0229 -1.3527 -0.8184
27832SOL    HW295475   0.559   9.788   6.289 -1.5859  1.2660  0.8233
27833SOL     OW95476   5.571   5.390   8.430 -0.2333  0.0911 -0.3740
27833SOL    HW195477   5.610   5.437   8.503 -0.5901 -0.2521  0.0450
27833SOL    HW295478   5.488   5.435   8.413 -0.6122 -0.4084  0.0764
27834SOL     OW95479   0.886   6.865   9.047 -0.1923 -0.1679  0.4302
27834SOL    HW195480   0.871   6.861   9.141  1.9652 -1.3505  0.7952
27834SOL    HW295481   0.957   6.803   9.031 -0.0965  0.4253 -1.9023
27835SOL     OW95482   6.891   7.836   9.454  0.3227 -0.4168  0.3488
27835SOL    HW195483   6.843   7.875   9.527  1.6598 -1.7522  2.0265
27835SOL    HW295484   6.849   7.750   9.441  2.0699 -1.5659  1.7866
27836SOL     OW95485   7.861   0.328   6.383 -0.2627  0.3327  0.5534
27836SOL    HW195486   7.851   0.384   6.307 -0.7513  1.4051  1.3785
27836SOL    HW295487   7.941   0.278   6.366  0.3289  1.4659 -0.0833
27837SOL     OW95488   9.918   6.041   7.947 -0.0594  0.0649  0.5227
27837SOL    HW195489   9.889   6.117   7.898 -0.0492 -0.8703 -0.9999
27837SOL    HW295490  10.000   6.014   7.905 -0.5420 -1.3289  0.4167
27838SOL     OW95491   0.853   0.958   1.497 -0.1961  0.0516  0.0412
27838SOL    HW195492   0.858   0.903   1.420  1.5565  0.5119 -0.2180
27838SOL    HW295493   0.836   0.898   1.570  0.7186 -0.7120 -0.3646
27839SOL     OW95494   7.589   8.700   8.284  0.8072 -0.3692 -0.1253
27839SOL    HW195495   7.548   8.627   8.330 -1.1541  1.1311  0.7065
27839SOL    HW295496   7.559   8.691   8.193 -0.9545  0.3447  0.3434
27840SOL     OW95497   3.083   6.439   5.667 -0.2388  0.4925 -0.0142
27840SOL    HW195498   3.029   6.409   5.740  1.5659  0.2731  1.3027
27840SOL    HW295499   3.033   6.416   5.589 -3.2091  2.5457  1.0954
27841SOL     OW95500   0.300   2.022   3.766 -0.6865  0.7359  0.0491
27841SOL    HW195501   0.209   1.996   3.777 -0.8699  0.0490 -2.3667
27841SOL    HW295502   0.332   1.966   3.695  1.1638  2.0180 -0.2075
27842SOL     OW95503   2.154   7.761   5.825  0.0567  0.1391 -0.2305
27842SOL    HW195504   2.071   7.740   5.783  0.4253 -0.5725 -0.6301
27842SOL    HW295505   2.203   7.811   5.758 -0.3563  1.2793  0.2952
27843SOL     OW95506   8.012   6.511   6.699 -0.4264  0.1325 -0.0415
27843SOL    HW195507   8.011   6.596   6.655 -0.8645  0.8521  1.3036
27843SOL    HW295508   7.960   6.524   6.778 -0.7216 -1.4666  0.0704
27844SOL     OW95509   5.256   0.479   6.993  0.1393  0.2323 -0.3094
27844SOL    HW195510   5.174   0.436   6.968 -0.8881  0.5621  2.1234
27844SOL    HW295511   5.316   0.461   6.921 -1.6249 -1.3001 -1.5017
27845SOL     OW95512   2.192   3.653   7.939  0.6537  0.3433 -0.4145
27845SOL    HW195513   2.188   3.607   8.023 -0.2300 -0.3893 -0.8286
27845SOL    HW295514   2.229   3.738   7.959  0.2631  0.2527  0.7550
27846SOL     OW95515   4.964  10.341   7.007  0.1502 -0.4091 -0.3782
27846SOL    HW195516   4.964  10.287   6.929  0.3340 -0.6283 -0.2268
27846SOL    HW295517   5.056  10.367   7.018  0.2868 -1.1581  0.3018
27847SOL     OW95518   3.408   6.948   2.730 -0.5181 -0.3156  0.1315
27847SOL    HW195519   3.354   6.997   2.793 -1.2000 -0.5292 -0.2736
27847SOL    HW295520   3.362   6.865   2.719 -2.2372  0.8344 -2.9871
27848SOL     OW95521   3.557   2.615   6.626  0.1486  0.3659 -0.2968
27848SOL    HW195522   3.589   2.645   6.712  0.0821  2.2870 -0.8990
27848SOL    HW295523   3.620   2.547   6.600  0.8420  0.5726  0.7556
27849SOL     OW95524   4.271   9.920   1.867 -0.7419 -0.6478  0.0180
27849SOL    HW195525   4.210   9.962   1.928  0.1326 -0.2145  0.6148
27849SOL    HW295526   4.299   9.990   1.808 -0.9699 -0.8910 -0.3881
27850SOL     OW95527   1.224   5.348   9.859  0.7311 -0.0088 -0.1931
27850SOL    HW195528   1.153   5.354   9.923  0.8321 -0.9719  0.0298
27850SOL    HW295529   1.201   5.412   9.792  0.7251  1.1447  0.8911
27851SOL     OW95530   9.563   5.662   8.425  0.2430 -0.7547  0.1242
27851SOL    HW195531   9.650   5.664   8.464  0.8375  1.2959 -1.1061
27851SOL    HW295532   9.571   5.600   8.353  0.6303 -0.7752  0.1803
27852SOL     OW95533   6.920   2.054   7.490  0.1411 -0.4580  0.0993
27852SOL    HW195534   6.829   2.044   7.462  0.4960  0.6483 -1.6450
27852SOL    HW295535   6.918   2.048   7.585 -1.7018 -0.7833  0.0589
27853SOL     OW95536   3.445   1.177   4.627  0.3286 -0.2234 -0.3071
27853SOL    HW195537   3.372   1.193   4.567  0.4474 -0.6214 -0.5579
27853SOL    HW295538   3.510   1.243   4.604  0.6956 -0.8639 -1.1385
27854SOL     OW95539   2.815   4.670   5.163  0.1443  0.1677  0.4277
27854SOL    HW195540   2.874   4.600   5.136 -0.7506 -0.0107 -1.2197
27854SOL    HW295541   2.728   4.631   5.161 -0.3725  1.3056 -0.5340
27855SOL     OW95542   1.136   7.207   4.360 -0.4283  0.2391 -0.0576
27855SOL    HW195543   1.155   7.234   4.270  0.7424 -0.9685 -0.2049
27855SOL    HW295544   1.052   7.162   4.356 -0.3042  0.0533 -0.5817
27856SOL     OW95545   7.606   7.188   0.353  0.3825 -0.3059 -0.4970
27856SOL    HW195546   7.564   7.114   0.397  0.9808  0.2460  1.0891
27856SOL    HW295547   7.597   7.261   0.415  1.4033  0.4801 -1.2350
27857SOL     OW95548   8.789   7.054   3.457  0.0293  0.2345 -0.6251
27857SOL    HW195549   8.745   7.082   3.537 -0.0376  0.4208 -0.7257
27857SOL    HW295550   8.881   7.046   3.481 -0.1033 -0.5250 -0.3127
27858SOL     OW95551   8.092   3.658   9.210  0.4365 -0.3584 -0.0051
27858SOL    HW195552   8.062   3.703   9.289  0.1068  3.2697 -1.9436
27858SOL    HW295553   8.186   3.676   9.206  0.8734 -2.2734  0.4831
27859SOL     OW95554   2.543   3.805   2.428  1.1272 -0.3750 -0.1217
27859SOL    HW195555   2.463   3.812   2.481  1.8022 -2.0959  1.2293
27859SOL    HW295556   2.526   3.861   2.352 -0.2946  1.3975  1.4020
27860SOL     OW95557   7.465   2.039   6.896  0.4915  0.1262 -0.2488
27860SOL    HW195558   7.531   1.997   6.840  1.1834  1.1397 -0.2113
27860SOL    HW295559   7.401   2.075   6.835  0.4092 -0.1437 -0.3214
27861SOL     OW95560   8.740   0.693   3.565 -0.1497 -0.1327  0.3021
27861SOL    HW195561   8.784   0.609   3.582 -0.1681 -0.2135 -0.0333
27861SOL    HW295562   8.769   0.718   3.477 -1.1515 -0.4380 -0.1361
27862SOL     OW95563   4.500  10.303   2.699 -0.8486 -0.5746  0.1581
27862SOL    HW195564   4.483  10.221   2.743  1.5733 -1.0116  0.4440
27862SOL    HW295565   4.596  10.312   2.701 -1.0621  3.4491  2.3454
27863SOL     OW95566   2.150   1.397   7.672  0.4048  0.0790 -0.0162
27863SOL    HW195567   2.217   1.438   7.617  2.4102 -2.3581  0.4279
27863SOL    HW295568   2.109   1.332   7.615  0.0707 -0.0760  0.3981
27864SOL     OW95569   7.258   6.463   8.250 -0.3700  0.8258  0.6272
27864SOL    HW195570   7.230   6.529   8.186 -0.2220 -0.5319 -0.9314
27864SOL    HW295571   7.188   6.461   8.315 -1.5024  0.9413 -0.5452
27865SOL     OW95572   8.063   7.895   4.640 -0.1980  0.1586 -0.1213
27865SOL    HW195573   8.117   7.962   4.681 -1.2730  0.8325  0.2540
27865SOL    HW295574   8.041   7.931   4.554 -2.6043  1.3755  0.9020
27866SOL     OW95575   1.750   1.055   7.718 -0.2407 -0.1165  0.0938
27866SOL    HW195576   1.746   1.149   7.703  0.0844  0.0765  1.1290
27866SOL    HW295577   1.748   1.016   7.630 -0.2688  0.8504 -0.3445
27867SOL     OW95578   2.757   8.269   4.367  0.2383 -0.0549 -0.2674
27867SOL    HW195579   2.747   8.288   4.461 -0.3660 -0.2874 -0.2794
27867SOL    HW295580   2.668   8.251   4.337  0.2773  1.1463 -1.1454
27868SOL     OW95581   5.005   3.333   8.609 -0.1532  0.5161  0.1060
27868SOL    HW195582   4.929   3.390   8.597 -0.6275 -0.1598 -0.1974
27868SOL    HW295583   4.995   3.298   8.698  0.1455  0.9112  0.2972
27869SOL     OW95584   7.294   5.061   3.426  0.2884 -0.0329 -0.3478
27869SOL    HW195585   7.223   5.123   3.409  0.5257  0.7851  1.3902
27869SOL    HW295586   7.374   5.112   3.409  0.4746 -0.0436  0.4531
27870SOL     OW95587   5.114   7.298   7.072  0.4444 -0.2496 -0.5799
27870SOL    HW195588   5.058   7.305   7.149 -0.8548  0.5433 -1.5471
27870SOL    HW295589   5.155   7.384   7.065  1.9058 -0.8482  0.1653
27871SOL     OW95590   1.915   1.791   0.485  0.5495  0.6967  0.6178
27871SOL    HW195591   1.890   1.866   0.430  0.5931  1.1423  1.1930
27871SOL    HW295592   1.832   1.759   0.521  0.3935 -0.3087 -0.5895
27872SOL     OW95593   9.724   8.955   5.911  0.3032  0.0090 -0.1973
27872SOL    HW195594   9.804   8.977   5.865  0.2618 -0.5573 -0.5504
27872SOL    HW295595   9.662   8.932   5.842 -1.2190  3.4878 -0.2345
27873SOL     OW95596   4.397   8.095   4.580  0.5645 -0.0641  0.4870
27873SOL    HW195597   4.368   8.170   4.632  0.3007  0.3513 -0.2305
27873SOL    HW295598   4.388   8.020   4.638 -2.8309 -0.1164  0.1230
27874SOL     OW95599   5.222   5.566   4.210 -0.4546  0.2681  0.5449
27874SOL    HW195600   5.260   5.580   4.296  0.4871  0.2663  0.1362
27874SOL    HW295601   5.278   5.501   4.168 -1.8595 -0.9968  0.5299
27875SOL     OW95602   4.497   7.215   7.353 -0.1725  0.2637 -0.4964
27875SOL    HW195603   4.574   7.263   7.382 -0.7635  0.0039  1.6342
27875SOL    HW295604   4.439   7.282   7.315  0.6211  0.6136 -1.1166
27876SOL     OW95605   4.531   7.714   9.917 -0.0957 -0.1815 -0.3535
27876SOL    HW195606   4.626   7.711   9.907  0.4682  2.0561  2.7464
27876SOL    HW295607   4.505   7.793   9.870  0.0981  0.8869  1.2537
27877SOL     OW95608   4.818   3.179   2.910  0.4764  0.0506 -0.7077
27877SOL    HW195609   4.819   3.123   2.833  2.0485  0.0321 -0.7014
27877SOL    HW295610   4.879   3.250   2.890 -1.1700  1.5879 -0.5620
27878SOL     OW95611   4.037   2.304   6.988  0.1958  0.0547 -0.4658
27878SOL    HW195612   4.113   2.357   6.965  0.0441  1.5301  2.0403
27878SOL    HW295613   3.964   2.345   6.941  0.4403  0.7279 -0.2628
27879SOL     OW95614   4.786   9.077  10.293 -0.1093  0.2058  0.0320
27879SOL    HW195615   4.797   9.157  10.241 -1.3847  0.2461 -0.2031
27879SOL    HW295616   4.694   9.077  10.318 -0.5898 -2.0176 -1.3794
27880SOL     OW95617   5.326   1.521   5.736 -0.0126 -0.0942 -0.2034
27880SOL    HW195618   5.235   1.536   5.709 -0.3890 -1.1659  0.3956
27880SOL    HW295619   5.338   1.426   5.729  1.1087  0.0459 -0.3964
27881SOL     OW95620   9.811   0.465   8.224 -0.4142 -0.4125  0.5700
27881SOL    HW195621   9.780   0.471   8.314 -0.4646 -0.4091  0.5526
27881SOL    HW295622   9.783   0.548   8.184  0.4542  0.0004  0.8085
27882SOL     OW95623   7.777   1.237   4.092 -0.1328  0.2952  0.2352
27882SOL    HW195624   7.691   1.203   4.114  0.1739 -1.2829 -0.8539
27882SOL    HW295625   7.837   1.188   4.147  0.2064  0.0970 -0.3056
27883SOL     OW95626   1.018   4.128   3.658 -0.3659 -0.3590 -0.0103
27883SOL    HW195627   0.972   4.212   3.663 -0.6717 -0.5009 -0.4360
27883SOL    HW295628   1.098   4.147   3.609  0.5666  0.1184  1.6235
27884SOL     OW95629   0.199   6.529   3.938 -1.3045 -0.1257  0.0320
27884SOL    HW195630   0.158   6.597   3.884 -2.1590 -0.9658 -0.3930
27884SOL    HW295631   0.227   6.462   3.876  1.7341  0.8625  0.1689
27885SOL     OW95632   3.392   6.606  10.280  0.0190  0.1609  0.0583
27885SOL    HW195633   3.376   6.593  10.187 -2.0059  1.9376  0.0829
27885SOL    HW295634   3.468   6.664  10.284 -0.5156  0.9155 -0.5376
27886SOL     OW95635   5.711   1.291   3.204  0.7776 -0.0378 -0.1431
27886SOL    HW195636   5.790   1.249   3.169 -0.5249 -1.9403 -1.0245
27886SOL    HW295637   5.703   1.256   3.293  2.0408  1.8626  0.7864
27887SOL     OW95638   0.752   2.199   0.566  1.1021  0.8565 -0.4874
27887SOL    HW195639   0.664   2.235   0.570 -0.0701 -1.8524  0.3370
27887SOL    HW295640   0.772   2.195   0.472 -0.2432  0.2514 -0.7747
27888SOL     OW95641   1.425   6.480   4.925 -0.1825 -0.4326  0.5939
27888SOL    HW195642   1.361   6.548   4.907 -1.3526 -1.6117  0.0934
27888SOL    HW295643   1.400   6.447   5.012 -0.2907 -0.9159  0.3835
27889SOL     OW95644  10.140   3.930   1.152 -0.5671 -0.2376 -0.0866
27889SOL    HW195645  10.196   3.879   1.210 -0.8124  0.5367  0.8796
27889SOL    HW295646  10.051   3.902   1.174 -0.8014  1.4573  1.4080
27890SOL     OW95647   5.453   9.424   9.374 -0.3760 -0.2514  0.2007
27890SOL    HW195648   5.373   9.393   9.332 -0.6951  1.6693 -0.7491
27890SOL    HW295649   5.523   9.404   9.312 -0.5750  0.7873 -0.3885
27891SOL     OW95650   6.657   7.347  10.252  0.2708 -0.3742  0.2046
27891SOL    HW195651   6.582   7.326  10.309  0.3130 -0.6383  0.1651
27891SOL    HW295652   6.626   7.326  10.164  0.3708 -0.4254  0.1817
27892SOL     OW95653   5.596   0.034   7.946 -0.0161  0.2404 -0.0914
27892SOL    HW195654   5.557  -0.030   7.886  1.0125 -0.3745 -0.1311
27892SOL    HW295655   5.521   0.082   7.981 -0.7692 -0.5530 -0.5476
27893SOL     OW95656   2.649   1.700  10.119  0.2546  0.0886 -0.1172
27893SOL    HW195657   2.621   1.706  10.028  1.3499  2.4271 -0.3833
27893SOL    HW295658   2.585   1.642  10.161 -1.8367  1.0672 -1.7908
27894SOL     OW95659   7.138   8.038   8.312  0.6312  0.1782  0.4702
27894SOL    HW195660   7.186   7.991   8.243  2.1941  2.8616 -0.4019
27894SOL    HW295661   7.051   8.052   8.274  0.9883  0.2884 -0.3344
27895SOL     OW95662   4.502   1.228   5.858 -0.1373  0.3168  0.0446
27895SOL    HW195663   4.437   1.168   5.895  0.6830  0.6439  2.1298
27895SOL    HW295664   4.574   1.172   5.829 -0.0620  0.1756  0.5052
27896SOL     OW95665   3.365   8.743   8.197  0.4294  0.0405  0.0992
27896SOL    HW195666   3.387   8.723   8.106  1.5327 -0.9977  0.5708
27896SOL    HW295667   3.407   8.828   8.213  0.4348  0.1140 -0.2807
27897SOL     OW95668   6.208   0.887   1.375  0.8591  0.1156 -0.4461
27897SOL    HW195669   6.189   0.894   1.282 -0.1270  0.8505 -0.2174
27897SOL    HW295670   6.266   0.812   1.383  1.0178  0.0938 -1.6591
27898SOL     OW95671   8.697   6.814   9.666 -0.1567 -0.3887 -0.2780
27898SOL    HW195672   8.685   6.764   9.747  1.6099 -1.3276 -0.5350
27898SOL    HW295673   8.610   6.846   9.645 -0.7720 -0.6292  1.6653
27899SOL     OW95674   6.607   8.191   7.107 -0.4049  0.1854  0.2082
27899SOL    HW195675   6.674   8.209   7.042  1.0258 -0.8916  1.3156
27899SOL    HW295676   6.534   8.249   7.084  0.3681  0.4140 -1.8267
27900SOL     OW95677   9.547   3.521   5.146 -0.0046  0.1976  0.0034
27900SOL    HW195678   9.627   3.543   5.194  0.7794 -2.0786 -0.1511
27900SOL    HW295679   9.497   3.466   5.207  0.2615 -1.3877 -1.1488
27901SOL     OW95680   8.335   2.208   9.599 -0.1618  0.0053 -0.0106
27901SOL    HW195681   8.309   2.200   9.691 -0.0843 -0.4459 -0.0231
27901SOL    HW295682   8.339   2.117   9.568 -0.4958  0.1731 -0.5490
27902SOL     OW95683   8.096   0.265   4.985  0.4592 -0.4989  0.0370
27902SOL    HW195684   8.179   0.254   4.939  0.3274  0.3837 -0.4192
27902SOL    HW295685   8.077   0.358   4.980  0.5389 -0.3264  2.0666
27903SOL     OW95686   9.920   8.163   3.787 -0.4551 -0.1912  0.5359
27903SOL    HW195687   9.839   8.156   3.837 -1.4918 -0.3477 -1.0828
27903SOL    HW295688   9.962   8.243   3.820 -0.1976 -1.1769  2.8109
27904SOL     OW95689   3.552   7.564   0.757 -0.6055 -0.6668 -0.0988
27904SOL    HW195690   3.466   7.540   0.793 -0.8148 -0.8846 -0.7383
27904SOL    HW295691   3.548   7.537   0.666 -0.2076  0.2067 -0.3854
27905SOL     OW95692   6.869   3.909   5.238  0.2338  0.6812  0.0501
27905SOL    HW195693   6.851   3.872   5.325  0.3599 -0.5255 -0.4271
27905SOL    HW295694   6.962   3.930   5.240 -0.0616  2.0391  0.7008
27906SOL     OW95695   2.736   5.634   6.280 -0.1151  0.1153 -0.3644
27906SOL    HW195696   2.727   5.610   6.372 -1.6210  0.5602 -0.3623
27906SOL    HW295697   2.657   5.599   6.239  1.5344 -1.9929 -1.9593
27907SOL     OW95698   0.524   1.041   0.731 -0.0136  0.5813  0.2238
27907SOL    HW195699   0.480   0.968   0.687 -2.3157  0.7430  2.0638
27907SOL    HW295700   0.555   1.004   0.813  2.7634  0.6970 -0.6383
27908SOL     OW95701   3.904   4.020   7.215 -0.1957 -0.5289 -0.2384
27908SOL    HW195702   3.946   3.973   7.287 -0.9103 -0.9232 -0.0653
27908SOL    HW295703   3.944   4.107   7.216 -1.3482  0.0397  1.7130
27909SOL     OW95704  10.154   5.508   5.974  0.0554  0.1830 -0.2513
27909SOL    HW195705  10.165   5.430   6.029  2.3493 -0.9418 -2.1104
27909SOL    HW295706  10.148   5.474   5.885 -2.0315  2.0249 -0.9129
27910SOL     OW95707   4.805   0.321   7.747 -0.3717 -0.2899  0.0418
27910SOL    HW195708   4.844   0.233   7.746  0.7276  0.1792  0.4397
27910SOL    HW295709   4.738   0.317   7.679  1.5275 -0.6409 -1.9479
27911SOL     OW95710   0.321   1.441   8.846 -0.4806 -0.5730 -0.0430
27911SOL    HW195711   0.360   1.486   8.920 -0.4699  0.0399 -0.4162
27911SOL    HW295712   0.263   1.505   8.806  0.6529 -0.3661 -1.4633
27912SOL     OW95713   3.243   8.452   7.943  0.0241  0.0307 -0.1573
27912SOL    HW195714   3.277   8.383   7.886  0.0777  0.5542 -0.7755
27912SOL    HW295715   3.280   8.533   7.908 -1.3283  0.5515 -0.4594
27913SOL     OW95716   0.008   4.389   0.174 -0.5530 -0.2250 -0.2736
27913SOL    HW195717   0.021   4.353   0.262  0.3961  0.9738  0.1064
27913SOL    HW295718  -0.067   4.447   0.182  0.0048  0.4877 -0.0358
27914SOL     OW95719   6.656   0.837   2.860  0.4809  0.1762 -0.2485
27914SOL    HW195720   6.670   0.893   2.937  0.5669 -0.6805  0.3739
27914SOL    HW295721   6.567   0.804   2.871  0.3306  0.4112 -0.7595
27915SOL     OW95722   8.607   5.256   3.031 -0.2056  0.3212  0.1391
27915SOL    HW195723   8.570   5.168   3.025  0.1500  0.1899 -0.1536
27915SOL    HW295724   8.554   5.299   3.098 -0.0831 -0.2629  0.6228
27916SOL     OW95725   4.625   5.413   4.582 -0.0359 -0.1185  0.2775
27916SOL    HW195726   4.633   5.445   4.671  1.3455 -0.2755  0.2294
27916SOL    HW295727   4.550   5.354   4.584 -0.5615  0.5663  1.1194
27917SOL     OW95728   2.870   5.681   9.266 -0.3101 -0.4813  0.5115
27917SOL    HW195729   2.798   5.657   9.324  1.0799  1.2739  3.1778
27917SOL    HW295730   2.900   5.766   9.298  1.0445  0.2805 -2.4112
27918SOL     OW95731   3.837   6.138   7.348 -0.4803 -0.6175  0.0984
27918SOL    HW195732   3.815   6.138   7.255  0.1809 -0.5900 -0.0691
27918SOL    HW295733   3.919   6.089   7.353  1.3463  2.2046  0.1833
27919SOL     OW95734   9.977   1.998   7.118 -0.5987 -0.2498 -0.0742
27919SOL    HW195735   9.953   2.067   7.057  0.2718 -0.1559 -0.3254
27919SOL    HW295736   9.918   2.010   7.192 -0.7826  0.4607 -0.3286
27920SOL     OW95737   3.488   6.433   5.398  0.1257  0.0434 -0.7688
27920SOL    HW195738   3.470   6.519   5.435  1.0233 -0.2237  0.3825
27920SOL    HW295739   3.406   6.384   5.410  0.7215 -0.4362  2.2070
27921SOL     OW95740   1.563  10.156   6.718 -0.0535  0.1580  0.0578
27921SOL    HW195741   1.555  10.229   6.656 -0.1535 -1.4168 -1.9048
27921SOL    HW295742   1.658  10.146   6.730 -0.0515  0.9504  0.8049
27922SOL     OW95743   9.128  10.384   4.462 -0.5547 -0.2534  0.1632
27922SOL    HW195744   9.140  10.468   4.417  0.2312 -0.1359  0.5741
27922SOL    HW295745   9.048  10.348   4.425 -1.6440  1.2911  0.9029
27923SOL     OW95746   0.093   0.015   0.300 -0.1504 -0.3364  0.5501
27923SOL    HW195747   0.089  -0.015   0.209 -2.1301 -0.0414  0.4888
27923SOL    HW295748   0.007   0.055   0.316  0.6295  0.8109  2.1543
27924SOL     OW95749   9.794   6.549   8.058  0.1130  0.0465  0.1056
27924SOL    HW195750   9.884   6.582   8.049  0.4167 -0.4553  1.1560
27924SOL    HW295751   9.781   6.541   8.153 -1.5587  1.4840  0.0462
27925SOL     OW95752   1.266   8.166   1.150  0.7647 -0.6868 -0.0983
27925SOL    HW195753   1.224   8.230   1.208  0.1160 -0.9513 -0.2727
27925SOL    HW295754   1.353   8.203   1.133  0.3206  0.2673 -0.3751
27926SOL     OW95755   5.610   8.501   9.956  0.4416 -0.0064 -0.4246
27926SOL    HW195756   5.637   8.464  10.040 -0.5194  0.5903  0.1728
27926SOL    HW295757   5.674   8.571   9.939  1.5060 -1.0793 -0.9314
27927SOL     OW95758   7.617   4.944   2.216 -0.2216 -0.6422 -0.3403
27927SOL    HW195759   7.615   5.037   2.236  1.4302 -0.8572  1.0724
27927SOL    HW295760   7.539   4.908   2.258  0.6406 -0.2967  1.6941
27928SOL     OW95761   2.497   7.541   2.101  0.6358  0.1079 -0.0935
27928SOL    HW195762   2.549   7.620   2.084  0.7169  0.3274  1.1047
27928SOL    HW295763   2.430   7.542   2.032  0.5900  1.2653 -0.0592
27929SOL     OW95764   0.467   1.566   9.075  0.1744 -0.4019  0.0856
27929SOL    HW195765   0.475   1.655   9.109  1.2427 -0.4342 -0.0396
27929SOL    HW295766   0.540   1.518   9.115  1.0562 -0.6088 -1.6603
27930SOL     OW95767   0.303  10.242   0.868 -0.0123 -0.3130  0.0333
27930SOL    HW195768   0.282  10.332   0.844 -1.0559 -0.2887  0.9458
27930SOL    HW295769   0.365  10.213   0.800  1.2179  1.4290  0.3445
27931SOL     OW95770   8.810   8.161   2.961 -0.1531 -0.1708 -0.0035
27931SOL    HW195771   8.902   8.138   2.978 -0.2447 -1.0050 -0.5580
27931SOL    HW295772   8.811   8.198   2.873 -0.1797  0.9982  0.4645
27932SOL     OW95773   8.040   4.438   4.517 -0.1174  0.0509  0.3946
27932SOL    HW195774   7.984   4.378   4.469  0.0855  0.2797 -0.1379
27932SOL    HW295775   7.985   4.513   4.536  0.4360  1.0497 -1.6510
27933SOL     OW95776   8.569   7.192   1.959  0.9170  0.0140  0.4724
27933SOL    HW195777   8.587   7.218   1.868 -0.2228 -0.4919  0.0826
27933SOL    HW295778   8.482   7.152   1.955  1.4972 -1.4108  1.5226
27934SOL     OW95779   3.148   0.443   5.673 -0.8167  0.0655 -0.0172
27934SOL    HW195780   3.169   0.352   5.693 -1.5708 -0.0218  0.4319
27934SOL    HW295781   3.052   0.446   5.669 -0.9247  1.1887  1.8921
27935SOL     OW95782   5.459  10.054   6.373  0.2015 -0.0122  0.6369
27935SOL    HW195783   5.401  10.120   6.412  0.6997  2.5368 -2.4920
27935SOL    HW295784   5.405  10.013   6.306  1.2504  0.6811 -0.6744
27936SOL     OW95785   0.366   2.055   4.463  0.6060 -0.0287  0.2332
27936SOL    HW195786   0.450   2.017   4.438  0.9406  0.6296  0.3543
27936SOL    HW295787   0.301   2.000   4.418  1.0534 -1.0372  0.7876
27937SOL     OW95788   9.052   3.964   2.957  0.5249  0.0648 -0.1090
27937SOL    HW195789   9.074   3.971   2.865  0.3431 -2.0467 -0.3561
27937SOL    HW295790   8.995   4.039   2.974  2.4716  1.8515 -1.0599
27938SOL     OW95791   2.939   4.803  10.381  0.2907 -0.1244 -0.2901
27938SOL    HW195792   2.913   4.771  10.295 -0.2092 -0.8077  0.1043
27938SOL    HW295793   2.878   4.761  10.441 -1.7377  3.0558  0.1162
27939SOL     OW95794   2.157   5.344   4.326 -0.0432 -0.3716  0.4327
27939SOL    HW195795   2.200   5.385   4.402  2.0175 -1.4055 -0.0963
27939SOL    HW295796   2.173   5.406   4.254 -0.7626 -0.0698  0.5189
27940SOL     OW95797   1.927   7.335   1.734  0.0743  0.3543 -0.0764
27940SOL    HW195798   1.989   7.324   1.806 -0.9674  3.2746  1.3964
27940SOL    HW295799   1.967   7.287   1.661  1.6938 -1.8093  2.0834
27941SOL     OW95800   0.456   3.660  10.342 -0.5773 -0.2174 -0.0888
27941SOL    HW195801   0.379   3.686  10.291 -1.5021 -2.1803  0.2480
27941SOL    HW295802   0.427   3.584  10.392  0.9581  0.3366  1.7231
27942SOL     OW95803   2.305   0.942   7.364  0.1345  0.5784 -0.1133
27942SOL    HW195804   2.226   0.900   7.332  0.4468 -2.0046  2.1319
27942SOL    HW295805   2.284   0.965   7.455  1.8836 -0.0375  0.4835
27943SOL     OW95806   7.053   4.532   2.169  0.4967 -0.5205 -0.0495
27943SOL    HW195807   6.990   4.461   2.183 -1.2547  0.7259 -1.0860
27943SOL    HW295808   7.056   4.542   2.074 -1.2027  2.3035  0.0901
27944SOL     OW95809   7.849   2.506   9.183 -0.1416 -0.2147  0.2428
27944SOL    HW195810   7.901   2.509   9.263  1.4699  0.3877 -0.7757
27944SOL    HW295811   7.781   2.441   9.201  0.3260 -0.2728  1.9970
27945SOL     OW95812   6.995   4.787   0.197  0.7307  0.1245  0.0895
27945SOL    HW195813   6.979   4.816   0.107 -0.7808  1.0987  0.6295
27945SOL    HW295814   6.973   4.694   0.196  0.3666  0.2114 -0.4830
27946SOL     OW95815   2.399   4.669   5.375  0.6293 -0.7824  0.3605
27946SOL    HW195816   2.373   4.582   5.404  0.6084 -0.9519 -0.1667
27946SOL    HW295817   2.318   4.720   5.375  0.4697 -1.0260 -0.2625
27947SOL     OW95818   4.416   5.187   2.835 -0.6795  0.1488 -0.2934
27947SOL    HW195819   4.463   5.104   2.828 -2.2750 -0.9322  1.0949
27947SOL    HW295820   4.438   5.233   2.754 -1.4103 -2.5322 -2.1823
27948SOL     OW95821   3.453   3.067   9.871 -0.3109 -0.5648  0.5291
27948SOL    HW195822   3.540   3.027   9.867  0.2207  0.4859  0.9990
27948SOL    HW295823   3.434   3.091   9.781 -0.2075 -0.9923  0.3909
27949SOL     OW95824   5.420   3.765   9.001  0.6047  0.2095 -0.0536
27949SOL    HW195825   5.441   3.812   9.081 -1.0451  0.9573 -0.0333
27949SOL    HW295826   5.452   3.821   8.931  0.2903  0.4943  0.0287
27950SOL     OW95827   7.190  10.323   1.337 -0.5691  0.1102  0.0205
27950SOL    HW195828   7.128  10.334   1.409 -0.6197 -0.3811  0.0555
27950SOL    HW295829   7.139  10.343   1.258 -1.3389 -2.1255 -0.1288
27951SOL     OW95830   6.202   8.869  10.110  0.1948 -0.1712 -0.0185
27951SOL    HW195831   6.249   8.862  10.193 -0.3540  1.9692  0.5319
27951SOL    HW295832   6.267   8.903  10.048  0.1683 -0.1783 -0.0505
27952SOL     OW95833   8.211   9.500   5.009  0.1991  0.2973 -0.0834
27952SOL    HW195834   8.176   9.564   5.071  0.3484 -0.0435  0.3619
27952SOL    HW295835   8.289   9.542   4.973  0.8706 -0.0208  0.9523
27953SOL     OW95836   7.503   7.460   9.524  0.4196 -0.0204  0.7097
27953SOL    HW195837   7.499   7.365   9.516 -0.3777  0.0148  0.5918
27953SOL    HW295838   7.453   7.492   9.450  3.6126  0.5995 -1.3621
27954SOL     OW95839   0.859   3.169   0.278 -0.6797  0.3368  0.0570
27954SOL    HW195840   0.919   3.109   0.234 -1.6279  0.4895 -1.5151
27954SOL    HW295841   0.913   3.246   0.298 -0.3339  0.4967 -1.3756
27955SOL     OW95842   5.975   4.441   4.270  0.1792 -0.5500 -0.1058
27955SOL    HW195843   5.905   4.449   4.204  0.6809 -0.0274 -0.5819
27955SOL    HW295844   5.931   4.458   4.353 -1.0392 -3.7246  0.0395
27956SOL     OW95845   4.196   0.958   9.985  0.2103 -0.4426 -0.1236
27956SOL    HW195846   4.253   0.881   9.977  0.9773  0.1941 -1.0716
27956SOL    HW295847   4.252   1.025  10.024 -0.3962 -0.3024  0.5184
27957SOL     OW95848   8.262   6.580   3.992 -0.2327  0.1535  0.7529
27957SOL    HW195849   8.214   6.636   4.053 -1.6977  1.0449 -1.1014
27957SOL    HW295850   8.289   6.639   3.922  0.4752 -1.0157  0.0020
27958SOL     OW95851   6.157   7.592   8.717 -0.1436 -0.5590  0.0908
27958SOL    HW195852   6.129   7.506   8.751 -0.0171 -0.1603  1.2509
27958SOL    HW295853   6.092   7.653   8.751  0.2104 -0.0919 -0.0723
27959SOL     OW95854   9.563   3.422   3.490 -0.4626  0.5767  0.1404
27959SOL    HW195855   9.638   3.377   3.528 -1.4787 -0.7574  0.6404
27959SOL    HW295856   9.598   3.507   3.461  1.5161 -0.4938 -0.8211
27960SOL     OW95857   4.646   4.183   6.408 -0.1846 -0.3978 -0.8473
27960SOL    HW195858   4.589   4.217   6.477  0.0816 -0.4784 -0.5855
27960SOL    HW295859   4.616   4.227   6.328  0.3601  0.7174 -0.4609
27961SOL     OW95860   6.207   4.314   4.774  0.5571 -0.4455 -0.2451
27961SOL    HW195861   6.220   4.345   4.684  0.6271  0.7635  0.1670
27961SOL    HW295862   6.266   4.239   4.782  1.0774 -0.1283 -0.9878
27962SOL     OW95863  10.296   6.781   8.716  0.5584 -0.0207  0.8084
27962SOL    HW195864  10.266   6.846   8.652 -0.2859 -0.4861  0.7089
27962SOL    HW295865  10.348   6.720   8.665  0.1664 -0.2038  0.6204
27963SOL     OW95866   1.916   0.523   3.416  0.0949  0.2851  0.1056
27963SOL    HW195867   1.949   0.434   3.426  0.4546  0.4985  0.9767
27963SOL    HW295868   1.828   0.521   3.453 -0.5858 -0.0919 -1.4580
27964SOL     OW95869   8.106   2.513   7.123  0.0613 -0.3453  0.1792
27964SOL    HW195870   8.167   2.460   7.173 -1.0833  0.1040  2.1583
27964SOL    HW295871   8.020   2.473   7.139 -0.6506  1.2784  0.6717
27965SOL     OW95872   6.250   5.523   5.633 -0.2773 -0.0428  0.1165
27965SOL    HW195873   6.252   5.617   5.651  0.8509 -0.2021  0.9479
27965SOL    HW295874   6.297   5.514   5.550  1.4684 -0.0525  1.0687
27966SOL     OW95875   2.930   8.601   8.963  0.1420  0.4805 -0.0215
27966SOL    HW195876   2.881   8.547   9.026  0.5297  1.1736  0.8985
27966SOL    HW295877   3.021   8.580   8.980  0.2295  0.2016 -0.8033
27967SOL     OW95878   9.008   6.117   9.106  0.3020  0.4697 -0.1665
27967SOL    HW195879   9.054   6.142   9.025 -0.7409  0.2898 -0.8281
27967SOL    HW295880   9.004   6.021   9.103 -0.0606  0.4819 -0.0755
27968SOL     OW95881   3.546   6.438   2.555 -0.0450 -0.6271 -0.4202
27968SOL    HW195882   3.551   6.510   2.492  2.0858 -1.1475 -0.9266
27968SOL    HW295883   3.455   6.409   2.552 -0.2300  0.0213 -2.5309
27969SOL     OW95884   3.590   1.672   5.070  0.0363 -1.0581 -0.2085
27969SOL    HW195885   3.600   1.580   5.096  0.0971 -1.6371 -2.1682
27969SOL    HW295886   3.542   1.712   5.143 -0.5642 -2.7888  0.3943
27970SOL     OW95887  10.262   1.966   9.833 -0.2202 -0.3554  0.1201
27970SOL    HW195888  10.313   1.971   9.753 -0.5128  0.1173 -0.0438
27970SOL    HW295889  10.240   2.057   9.854  0.4430 -0.4091  1.1273
27971SOL     OW95890   3.263   8.214   1.810 -0.4340 -0.0487  0.2773
27971SOL    HW195891   3.188   8.158   1.832  0.4973 -1.1657  0.7423
27971SOL    HW295892   3.226   8.301   1.801 -2.2986 -0.9916 -2.4739
27972SOL     OW95893   3.582   1.227   9.885  0.1290 -0.4663 -0.4211
27972SOL    HW195894   3.551   1.315   9.865 -1.7483 -0.9248  0.2906
27972SOL    HW295895   3.674   1.227   9.857  0.1620  1.6900 -0.4574
27973SOL     OW95896   3.158  10.054   9.020  0.1930 -0.0976 -0.1479
27973SOL    HW195897   3.111  10.085   8.943  0.6182  1.5872  0.2415
27973SOL    HW295898   3.197   9.971   8.992 -0.2822  0.1117 -1.4993
27974SOL     OW95899   6.677   3.861   6.267  0.1032 -0.0998  0.0280
27974SOL    HW195900   6.683   3.768   6.245  0.1321 -0.1252  0.1433
27974SOL    HW295901   6.583   3.879   6.272  0.0955 -0.0546 -0.2822
27975SOL     OW95902   7.423   4.395   6.327 -0.3672  0.2050  0.2890
27975SOL    HW195903   7.401   4.333   6.257  2.2056 -0.6445  0.1559
27975SOL    HW295904   7.373   4.474   6.304 -2.0999 -1.0855 -0.6826
27976SOL     OW95905   3.304   8.111   2.077  0.0922  0.1687 -0.4566
27976SOL    HW195906   3.334   8.162   2.002  0.6072  1.3650  0.5296
27976SOL    HW295907   3.357   8.142   2.150 -0.4190 -0.9424  0.4139
27977SOL     OW95908   0.649   4.357   3.814  0.5629  0.8317  0.5206
27977SOL    HW195909   0.714   4.381   3.747 -1.4591 -0.7889 -2.2559
27977SOL    HW295910   0.569   4.403   3.787 -1.4368 -2.9843 -0.8008
27978SOL     OW95911   8.492   2.863   3.443 -0.0385 -0.2867 -0.1438
27978SOL    HW195912   8.513   2.815   3.524 -2.0969  0.0576  0.6559
27978SOL    HW295913   8.578   2.885   3.405  0.9656 -1.5772  1.2673
27979SOL     OW95914   6.942   1.443   5.733 -0.1632 -0.0638 -0.1732
27979SOL    HW195915   6.926   1.492   5.814 -0.7360  0.7967 -0.8005
27979SOL    HW295916   7.030   1.408   5.744 -0.8958 -1.5262  1.6196
27980SOL     OW95917   2.111   4.604   6.890  0.3697 -0.0862 -0.5548
27980SOL    HW195918   2.020   4.620   6.916  0.9166  1.3535  0.5935
27980SOL    HW295919   2.140   4.533   6.948 -0.2423 -1.1683 -1.5178
27981SOL     OW95920   3.059   0.155   0.794 -0.6956  0.2461 -0.0340
27981SOL    HW195921   3.098   0.075   0.758 -0.1481  0.0995  0.8431
27981SOL    HW295922   3.064   0.218   0.723 -2.7649 -0.9649 -1.3654
27982SOL     OW95923   8.260   6.353   2.490 -0.2776  0.0547  0.3661
27982SOL    HW195924   8.266   6.448   2.493  0.6291  0.0030  0.3544
27982SOL    HW295925   8.168   6.335   2.473 -0.5410  0.9191  0.8428
27983SOL     OW95926  10.376   0.856   5.165 -0.1963 -0.4109 -0.1714
27983SOL    HW195927  10.377   0.938   5.117 -2.8877 -0.0437  0.2082
27983SOL    HW295928  10.363   0.789   5.097 -1.8183 -0.0945 -0.2296
27984SOL     OW95929   0.235   6.232   8.432 -0.0903 -0.7187 -0.2346
27984SOL    HW195930   0.276   6.167   8.375  0.1708  0.1393 -1.0574
27984SOL    HW295931   0.305   6.258   8.493 -0.4433 -1.8254  0.6726
27985SOL     OW95932   2.411  10.240   5.986 -0.1523 -0.1443  0.3103
27985SOL    HW195933   2.478  10.309   5.990 -0.2757  0.1737 -1.7463
27985SOL    HW295934   2.328  10.287   5.979 -0.4476 -0.5344  1.0579
27986SOL     OW95935   0.598   5.369   5.483  0.2653  0.1262  0.2145
27986SOL    HW195936   0.517   5.342   5.527  1.6189 -2.8271  1.1619
27986SOL    HW295937   0.568   5.411   5.402 -2.2125  0.1443  1.0473
27987SOL     OW95938   3.521   7.037   7.359 -0.4421  0.7593 -0.8750
27987SOL    HW195939   3.486   7.123   7.382 -2.1602 -0.6420  2.5814
27987SOL    HW295940   3.615   7.045   7.371 -0.8276  1.2653  4.0553
27988SOL     OW95941   9.485   2.244  10.013 -0.4226 -0.6628  0.7849
27988SOL    HW195942   9.534   2.324   9.995 -0.6486 -0.9481 -1.2772
27988SOL    HW295943   9.460   2.252  10.106 -0.7134  1.7884  0.5614
27989SOL     OW95944   4.001   0.760   0.301 -0.8626 -0.8658  0.2894
27989SOL    HW195945   3.928   0.737   0.358 -1.3631  0.9228  0.4386
27989SOL    HW295946   3.960   0.778   0.216 -0.2496 -2.4587 -0.3816
27990SOL     OW95947   2.478   4.706   0.732 -0.6864  0.3767  0.5230
27990SOL    HW195948   2.514   4.712   0.820  0.7853 -0.6963  0.0331
27990SOL    HW295949   2.445   4.617   0.725 -3.1148  1.1788  0.7792
27991SOL     OW95950   9.040   6.212   7.905  0.0096 -0.1883 -0.1153
27991SOL    HW195951   8.945   6.219   7.891 -0.0411  2.0537  0.8998
27991SOL    HW295952   9.078   6.222   7.818 -0.6507  0.7641 -0.3058
27992SOL     OW95953   3.411   5.220   6.279 -0.0283  0.1694 -0.5921
27992SOL    HW195954   3.319   5.241   6.260  0.3232  0.3525 -2.2442
27992SOL    HW295955   3.410   5.127   6.302 -0.6500  0.2234 -0.3598
27993SOL     OW95956   1.501   7.983   6.908 -0.5756 -0.6607  0.4468
27993SOL    HW195957   1.498   7.983   7.004  1.7737  0.7149  0.5999
27993SOL    HW295958   1.433   8.045   6.882 -0.1142  0.2605  1.3488
27994SOL     OW95959   4.074   2.694   5.203  0.3212 -0.5130  0.3453
27994SOL    HW195960   4.069   2.658   5.291 -1.4608  0.5561  0.7244
27994SOL    HW295961   4.108   2.622   5.149 -1.5336 -2.2194  1.3511
27995SOL     OW95962   2.618   0.694   0.553  0.5897 -0.5988 -0.2980
27995SOL    HW195963   2.622   0.645   0.471  0.6927 -0.7479 -0.2036
27995SOL    HW295964   2.677   0.648   0.611  2.5324  0.9783 -0.9220
27996SOL     OW95965   8.639   2.523   6.675  0.3680 -0.5908  0.2718
27996SOL    HW195966   8.584   2.449   6.704  1.6371 -1.2177  1.1794
27996SOL    HW295967   8.639   2.583   6.750  0.1197 -0.1243 -0.1016
27997SOL     OW95968   5.311   9.791   7.504 -0.1755  0.2342 -0.4014
27997SOL    HW195969   5.257   9.797   7.583  0.5848  2.2487 -0.0062
27997SOL    HW295970   5.332   9.697   7.497 -2.5315 -0.4061  0.2031
27998SOL     OW95971   7.976   5.547   9.557  0.2991 -0.3078  0.4114
27998SOL    HW195972   8.049   5.594   9.597  0.8084  0.1205 -0.9755
27998SOL    HW295973   8.017   5.473   9.511 -0.1983 -0.3936  0.0994
27999SOL     OW95974   2.766   7.104   7.399 -0.0747 -0.3653  0.1349
27999SOL    HW195975   2.746   7.181   7.452  1.2684  0.9197 -1.1686
27999SOL    HW295976   2.835   7.058   7.448  1.8640  1.3339 -0.8811
28000SOL     OW95977   3.216   4.645   1.987  0.2913 -0.1204 -0.1664
28000SOL    HW195978   3.236   4.556   2.014 -1.8358 -0.8187 -0.7403
28000SOL    HW295979   3.202   4.692   2.070  1.6219 -0.2244  0.1430
28001SOL     OW95980   3.477   9.504   6.196 -0.4356  0.2277 -0.2987
28001SOL    HW195981   3.558   9.530   6.152 -0.1220  0.5730  0.4602
28001SOL    HW295982   3.421   9.472   6.125  0.4566 -0.2691 -0.8074
28002SOL     OW95983   7.137   1.521   2.787 -0.0860  0.1809  0.0288
28002SOL    HW195984   7.043   1.521   2.769  0.2159 -2.0302 -2.1815
28002SOL    HW295985   7.162   1.428   2.780  2.3751  0.8018 -0.3238
28003SOL     OW95986   9.761   1.668   8.361 -0.2488 -0.0857 -0.3219
28003SOL    HW195987   9.771   1.635   8.272 -0.8730  0.7209 -0.6988
28003SOL    HW295988   9.759   1.590   8.416  0.8772 -0.5638 -0.9334
28004SOL     OW95989   5.442   1.660   9.440  0.2910 -0.2958 -0.3253
28004SOL    HW195990   5.528   1.619   9.435 -0.5689 -2.1857 -0.2519
28004SOL    HW295991   5.416   1.649   9.532  0.6581  1.8069  0.0824
28005SOL     OW95992   5.254   4.229   5.354  0.0300 -0.0094  0.3228
28005SOL    HW195993   5.268   4.316   5.316 -0.7458  0.0243  0.0855
28005SOL    HW295994   5.187   4.243   5.421 -0.4834 -0.5108 -0.0769
28006SOL     OW95995   5.069   4.303   2.055 -0.0790 -0.2355 -0.0941
28006SOL    HW195996   5.107   4.316   2.142  0.7013  1.9165 -0.6741
28006SOL    HW295997   4.976   4.289   2.071 -0.4055  2.5348  1.0745
28007SOL     OW95998   9.616   4.080   6.174 -0.3422  0.8395  0.6368
28007SOL    HW195999   9.549   4.092   6.107  0.0994  3.0161  0.5415
28007SOL    HW296000   9.667   4.005   6.144 -1.2103  0.7106 -0.5584
28008SOL     OW96001   9.165   6.274   8.570 -0.2779  0.0694 -0.0209
28008SOL    HW196002   9.199   6.318   8.648 -1.2069 -0.5566  0.7527
28008SOL    HW296003   9.217   6.310   8.498 -0.0642  1.3892  0.7621
28009SOL     OW96004   8.451   1.451   5.675 -0.0715 -0.3164  0.0067
28009SOL    HW196005   8.407   1.385   5.621 -1.6015  0.8439 -0.2220
28009SOL    HW296006   8.433   1.534   5.631  1.8441  0.2887  0.2680
28010SOL     OW96007   2.182   9.206   2.102 -0.0523  0.1585  0.2740
28010SOL    HW196008   2.230   9.170   2.176  0.2652  2.8329  1.4877
28010SOL    HW296009   2.092   9.212   2.133 -0.1419  0.2305  0.0009
28011SOL     OW96010   8.108   4.546   3.859 -0.8314 -0.4382  0.3517
28011SOL    HW196011   8.039   4.486   3.829 -0.4959 -0.3433 -0.6096
28011SOL    HW296012   8.190   4.504   3.833 -0.4977 -0.6353  1.6487
28012SOL     OW96013   7.328   2.376   0.594  0.5906  0.1336  0.5391
28012SOL    HW196014   7.233   2.378   0.603  0.4504  1.7259 -0.8057
28012SOL    HW296015   7.356   2.462   0.626  1.5489 -0.2138  0.6532
28013SOL     OW96016   3.095   2.024   0.794 -0.4034 -0.5822  0.5613
28013SOL    HW196017   3.079   1.930   0.807  0.6347 -0.6388  1.6435
28013SOL    HW296018   3.188   2.030   0.777 -0.5420  0.2266  0.0675
28014SOL     OW96019   5.419   2.650   6.151 -0.3273 -0.4925  0.2898
28014SOL    HW196020   5.422   2.645   6.247  1.0353  1.6634  0.4244
28014SOL    HW296021   5.329   2.675   6.131 -0.0463  1.4802  1.2341
28015SOL     OW96022   9.782   8.623   4.588  0.1258 -0.1642  0.0219
28015SOL    HW196023   9.771   8.691   4.654  0.7180  0.4752 -0.5284
28015SOL    HW296024   9.806   8.670   4.508 -0.3262 -0.9427 -0.5966
28016SOL     OW96025   1.989   5.615   3.860 -0.4820 -0.4291 -0.4244
28016SOL    HW196026   1.927   5.568   3.916  0.2705  0.4069  1.1588
28016SOL    HW296027   1.957   5.705   3.858  1.8146  0.5964  2.3295
28017SOL     OW96028   8.732   5.991   1.301  0.0354 -0.1817  0.2250
28017SOL    HW196029   8.675   5.960   1.372 -0.9236  0.1896 -0.3564
28017SOL    HW296030   8.783   6.062   1.341 -1.3753  0.8706  0.2669
28018SOL     OW96031   3.135   9.205   2.180 -0.3245  0.2103  0.3132
28018SOL    HW196032   3.207   9.170   2.126  0.1263  3.5763 -1.5275
28018SOL    HW296033   3.058   9.196   2.124 -0.6038  0.2062  0.7007
28019SOL     OW96034   6.289   0.549   6.441 -0.5071  0.4789  0.1288
28019SOL    HW196035   6.267   0.468   6.487 -0.2656  0.6119  0.4804
28019SOL    HW296036   6.328   0.605   6.508  0.2251  0.5188 -0.3222
28020SOL     OW96037   6.157  10.237   6.576 -0.0520 -0.1615 -0.2001
28020SOL    HW196038   6.231  10.291   6.547  1.5306 -1.5372  1.0166
28020SOL    HW296039   6.081  10.276   6.533  1.5825  0.2126 -3.0965
28021SOL     OW96040   1.341   2.035   4.186 -0.0530  0.4065  0.1733
28021SOL    HW196041   1.359   2.109   4.243  0.6846  0.3479  0.0259
28021SOL    HW296042   1.328   1.961   4.245  0.6385  0.3609  0.2851
28022SOL     OW96043   2.813   8.833   8.150  0.3012  0.1452  0.3058
28022SOL    HW196044   2.739   8.828   8.211  0.1640  0.6650  0.1902
28022SOL    HW296045   2.870   8.761   8.175 -0.5828 -0.6983 -0.0552
28023SOL     OW96046   6.653   1.408   8.359  0.7066 -0.1259  0.0662
28023SOL    HW196047   6.746   1.419   8.344  0.5646  0.9805 -0.0385
28023SOL    HW296048   6.632   1.322   8.320  1.5159 -0.0234 -0.6038
28024SOL     OW96049   0.668   0.318   3.700 -0.3406  0.1568  0.3846
28024SOL    HW196050   0.678   0.305   3.606 -0.0504  0.0815  0.4259
28024SOL    HW296051   0.720   0.249   3.740 -0.6749  0.0251  0.6028
28025SOL     OW96052   2.445   1.869   3.301 -0.2358  0.2666  0.2965
28025SOL    HW196053   2.445   1.963   3.319 -2.0059  0.8701 -2.2435
28025SOL    HW296054   2.391   1.860   3.222  1.2525 -2.7190 -0.5199
28026SOL     OW96055   0.419   5.190   0.559 -0.5750 -0.2130  0.1972
28026SOL    HW196056   0.495   5.135   0.538  0.1681  1.0270 -0.5019
28026SOL    HW296057   0.344   5.131   0.552  0.2349 -1.2382 -0.0841
28027SOL     OW96058   9.677  10.038   1.876 -0.1924 -0.3014 -0.1784
28027SOL    HW196059   9.600   9.991   1.843  0.1133 -1.8169  1.1236
28027SOL    HW296060   9.750  10.001   1.826  0.0160 -1.0698  0.6622
28028SOL     OW96061   8.830   5.023   6.705  0.1154 -0.5579 -0.1262
28028SOL    HW196062   8.757   4.989   6.757 -0.3707 -0.4733 -0.7428
28028SOL    HW296063   8.860   4.948   6.653  1.2617 -0.9145  0.9771
28029SOL     OW96064   9.082   1.200   1.572  0.2356  0.3634 -0.3181
28029SOL    HW196065   9.100   1.107   1.581  1.6095  0.5878 -0.4265
28029SOL    HW296066   9.162   1.243   1.604 -0.2076  1.4846 -0.6592
28030SOL     OW96067   2.546   1.006   9.075  0.2293 -0.0761  0.7495
28030SOL    HW196068   2.479   0.940   9.094  1.1482 -1.0645  0.6171
28030SOL    HW296069   2.574   1.037   9.161 -0.2618  0.2194  0.8096
28031SOL     OW96070   4.317   2.742   7.570 -0.0608  0.2249  0.8815
28031SOL    HW196071   4.382   2.747   7.640  0.7930  4.5492  0.0622
28031SOL    HW296072   4.368   2.724   7.491 -0.3072  0.4868  0.6616
28032SOL     OW96073  10.322   2.294   6.283 -0.5504 -0.0002 -0.1980
28032SOL    HW196074  10.259   2.313   6.352 -1.1167 -3.1414  0.3048
28032SOL    HW296075  10.273   2.303   6.201 -0.4700  1.5970 -0.0904
28033SOL     OW96076   0.222   4.097   0.007 -0.1456 -0.1041  0.6344
28033SOL    HW196077   0.209   4.105   0.101  0.4137  0.2029  0.6921
28033SOL    HW296078   0.179   4.015  -0.017  0.4188 -0.6031  1.2977
28034SOL     OW96079   3.471   7.964   1.301  0.0177 -0.2795  0.0861
28034SOL    HW196080   3.393   8.015   1.321  0.6740  1.0274 -0.5574
28034SOL    HW296081   3.510   7.944   1.387 -0.9960 -0.9568  0.4117
28035SOL     OW96082   0.112   8.719   9.639  0.0305 -0.1622  0.1204
28035SOL    HW196083   0.064   8.715   9.556  0.1321 -0.5669  0.0817
28035SOL    HW296084   0.044   8.713   9.706  0.0990 -1.7239  0.0683
28036SOL     OW96085   0.640   5.621   9.924 -0.2321  0.3071  0.0724
28036SOL    HW196086   0.655   5.590   9.835  2.8630  0.2446  0.5052
28036SOL    HW296087   0.712   5.584   9.975 -1.5936  0.7951  2.5112
28037SOL     OW96088   1.057   6.865   4.006  0.1689  0.2181  0.3710
28037SOL    HW196089   1.115   6.790   4.020 -2.1120 -2.0994 -1.5978
28037SOL    HW296090   1.033   6.893   4.094 -2.0675 -4.0965  1.3876
28038SOL     OW96091   7.533   7.618   6.570  0.8013  0.0442 -0.1655
28038SOL    HW196092   7.443   7.608   6.599  0.8834  1.0626  0.4790
28038SOL    HW296093   7.529   7.687   6.503  1.1183  0.1542 -0.0726
28039SOL     OW96094   2.218   2.247   7.442 -0.1843  0.2329  0.3587
28039SOL    HW196095   2.169   2.223   7.521 -2.8518  1.2065 -0.9003
28039SOL    HW296096   2.271   2.170   7.423 -2.8671 -1.8099  0.6093
28040SOL     OW96097   3.900   8.278   0.632 -0.1415 -0.5423  0.5878
28040SOL    HW196098   3.917   8.365   0.669 -1.7282 -0.3572  0.9691
28040SOL    HW296099   3.901   8.292   0.537  1.2846 -0.4683  0.5991
28041SOL     OW96100   5.638   9.249   7.570  0.0166  0.0064 -0.3408
28041SOL    HW196101   5.621   9.185   7.639  1.1634  0.1524  0.1020
28041SOL    HW296102   5.630   9.200   7.489  1.5899 -0.9065  0.0102
28042SOL     OW96103   0.695   2.106   2.919 -0.5254 -0.3079 -0.0056
28042SOL    HW196104   0.621   2.133   2.866 -0.8791 -0.3643  0.4566
28042SOL    HW296105   0.657   2.074   3.001  0.0497  1.0013  0.8235
28043SOL     OW96106   2.990   0.990   8.652 -0.2527 -0.0520  0.2201
28043SOL    HW196107   2.894   0.998   8.650 -0.2840 -0.5718 -0.7773
28043SOL    HW296108   3.020   1.048   8.583  0.1403 -0.0505  0.3935
28044SOL     OW96109   9.284   6.040   9.166  0.0954  0.3814 -0.0804
28044SOL    HW196110   9.222   6.043   9.093 -0.8162  0.7886  0.6947
28044SOL    HW296111   9.359   5.992   9.131 -0.0781  1.0765 -1.4730
28045SOL     OW96112   0.819   3.154   2.220 -0.1645 -0.5911  0.3759
28045SOL    HW196113   0.813   3.249   2.235  1.3316 -0.3821 -0.2305
28045SOL    HW296114   0.837   3.117   2.307  1.9143 -0.0293  0.2381
28046SOL     OW96115   1.964   0.029   7.882 -0.2235 -0.0416 -0.1307
28046SOL    HW196116   1.945  -0.016   7.800 -0.1775  2.3391 -1.5391
28046SOL    HW296117   2.055   0.006   7.901 -0.1493 -0.4233 -0.9003
28047SOL     OW96118   1.463   8.060   4.660  0.0918  0.5640  0.4611
28047SOL    HW196119   1.517   7.992   4.699 -0.7815 -0.1333  0.4861
28047SOL    HW296120   1.514   8.092   4.586  0.4556 -0.2204  0.3630
28048SOL     OW96121   9.753   0.032   9.315  0.2067 -0.7590 -0.0600
28048SOL    HW196122   9.717   0.106   9.364  0.3551 -1.3476  0.9747
28048SOL    HW296123   9.799   0.071   9.241 -0.9867  0.1019 -0.3831
28049SOL     OW96124   1.589   1.541   1.400 -0.2820 -0.0445 -0.5976
28049SOL    HW196125   1.548   1.454   1.399  0.4410 -0.4001 -0.1979
28049SOL    HW296126   1.585   1.568   1.491 -0.4000  0.3006 -0.7039
28050SOL     OW96127  10.181   1.748   1.064  0.1733 -0.2495 -0.3755
28050SOL    HW196128  10.172   1.683   1.133 -1.2112 -3.0547 -2.9242
28050SOL    HW296129  10.272   1.777   1.069 -0.0326  0.1394  2.8791
28051SOL     OW96130   0.454   2.798  10.189  0.4797 -0.1893  0.2622
28051SOL    HW196131   0.536   2.846  10.193  0.5797 -0.3489  0.0734
28051SOL    HW296132   0.471   2.717  10.238 -0.0508  0.5054  1.6712
28052SOL     OW96133   8.594  10.160   7.681  0.0466  0.4764 -0.2228
28052SOL    HW196134   8.539  10.231   7.715  2.0764  1.8934  0.3148
28052SOL    HW296135   8.634  10.196   7.602 -0.5652 -0.9175 -1.2232
28053SOL     OW96136   1.224   5.411   0.980  0.0586  0.1251 -0.2220
28053SOL    HW196137   1.265   5.358   1.049  0.0405  0.1793 -0.1698
28053SOL    HW296138   1.293   5.470   0.952  0.0473  0.1456 -0.2068
28054SOL     OW96139   2.686   0.670   0.883  0.7273 -0.1773  0.0764
28054SOL    HW196140   2.626   0.604   0.917  1.5442 -0.8965  0.1778
28054SOL    HW296141   2.736   0.624   0.815  2.2792 -0.1153  1.1087
28055SOL     OW96142   2.326   9.888   3.633 -0.1253 -0.3511  0.2973
28055SOL    HW196143   2.270   9.819   3.598 -1.6031  1.1211 -0.4098
28055SOL    HW296144   2.340   9.864   3.724 -0.8479 -1.4224  0.1408
28056SOL     OW96145   9.997   0.673   3.014 -0.0167 -0.0788  0.0607
28056SOL    HW196146  10.070   0.709   2.964 -0.2395  1.9254  1.0512
28056SOL    HW296147  10.036   0.608   3.072  0.1081 -3.3014 -3.2632
28057SOL     OW96148   4.713   9.036   8.513  0.2970  0.4516  0.1990
28057SOL    HW196149   4.805   9.050   8.490  0.4327  0.7455  0.8727
28057SOL    HW296150   4.669   9.115   8.481  0.2474  0.2284 -0.2854
28058SOL     OW96151  10.253   9.485   7.704 -0.0207  0.2574  0.7847
28058SOL    HW196152  10.331   9.489   7.649  0.1215 -1.2135  0.8286
28058SOL    HW296153  10.181   9.506   7.646  0.1535 -1.0167  0.0596
28059SOL     OW96154   2.294   3.205   6.629  0.2255  0.4935  0.3795
28059SOL    HW196155   2.233   3.274   6.650  2.2809  2.3947  0.4862
28059SOL    HW296156   2.271   3.178   6.540 -0.8042  1.0497  0.4658
28060SOL     OW96157   8.361   8.330   3.132  0.0489 -0.1563  0.5829
28060SOL    HW196158   8.295   8.368   3.190 -0.8423 -0.8598  0.0558
28060SOL    HW296159   8.435   8.310   3.189  0.3336  1.7932  0.9873
28061SOL     OW96160   7.767   4.576   9.285  0.2666  0.2101 -0.1319
28061SOL    HW196161   7.831   4.580   9.214  0.6024  0.2010  0.1638
28061SOL    HW296162   7.789   4.495   9.332 -0.0917  0.1025 -0.1508
28062SOL     OW96163   7.964  10.321   5.788  0.4505  0.3863 -0.5458
28062SOL    HW196164   7.948  10.375   5.866  0.9685  1.9993 -1.5037
28062SOL    HW296165   8.024  10.253   5.818 -0.3042  0.2601  0.7312
28063SOL     OW96166   7.372   9.593   2.680 -0.3374  0.3976 -0.0115
28063SOL    HW196167   7.375   9.520   2.618  0.4768 -0.1071  0.6087
28063SOL    HW296168   7.433   9.569   2.749  1.2800  2.4430 -0.6258
28064SOL     OW96169   9.681   6.717   6.567  0.2570  0.8072 -0.0701
28064SOL    HW196170   9.668   6.716   6.662 -1.4336  1.2244 -0.2753
28064SOL    HW296171   9.664   6.807   6.541 -0.9609  0.3525 -0.9552
28065SOL     OW96172   1.547   8.942   3.464 -0.6571 -0.5279  0.0681
28065SOL    HW196173   1.455   8.927   3.444 -0.8175 -1.1910  1.2249
28065SOL    HW296174   1.572   8.870   3.522 -0.4973  1.7061  3.0088
28066SOL     OW96175   5.807   9.335   9.851  0.4422  0.1511 -0.2929
28066SOL    HW196176   5.849   9.301   9.930  0.0632 -1.7004 -0.8422
28066SOL    HW296177   5.819   9.430   9.857  0.8168  0.0334  1.7563
28067SOL     OW96178   6.188   8.969   8.022 -0.5690 -0.1234  0.1173
28067SOL    HW196179   6.112   9.021   8.046 -0.6235  0.5781 -1.4356
28067SOL    HW296180   6.166   8.934   7.935 -0.1467 -1.9874  0.7257
28068SOL     OW96181   7.912   4.269   7.684 -0.0271 -0.1447 -0.1953
28068SOL    HW196182   7.868   4.337   7.633 -0.6971 -0.4149  0.0143
28068SOL    HW296183   7.982   4.238   7.627 -0.1754  0.2199 -0.5765
28069SOL     OW96184   4.247   3.638   6.223  0.0500  0.0199 -0.0132
28069SOL    HW196185   4.160   3.605   6.244  0.6625 -0.9943  1.0555
28069SOL    HW296186   4.256   3.717   6.277 -0.4774  0.5492 -0.6904
28070SOL     OW96187   7.336   7.140   1.031 -0.4640 -0.2858 -0.4100
28070SOL    HW196188   7.305   7.058   1.069 -0.9341  0.7119  1.5025
28070SOL    HW296189   7.286   7.208   1.077  1.7687  1.1908 -0.0157
28071SOL     OW96190   1.811   3.781   8.327 -0.0748  0.1299  0.0063
28071SOL    HW196191   1.785   3.791   8.419  0.3334 -0.1926  0.1587
28071SOL    HW296192   1.906   3.792   8.328 -0.1453  0.8267 -0.4799
28072SOL     OW96193   0.034   4.157   9.637  0.5000 -0.9217 -0.3212
28072SOL    HW196194   0.116   4.123   9.671  0.0759 -0.5110  1.1983
28072SOL    HW296195  -0.030   4.088   9.655  0.0168 -0.1650  0.9628
28073SOL     OW96196   1.997   6.274   0.229  0.4025 -0.0232  0.0890
28073SOL    HW196197   2.065   6.211   0.255  1.2952  0.9152  0.1313
28073SOL    HW296198   2.025   6.303   0.142 -0.1600  0.1038 -0.0485
28074SOL     OW96199   9.195   4.109   7.430 -0.1714 -0.0970  0.0338
28074SOL    HW196200   9.100   4.114   7.437 -0.1694 -0.4673  0.3341
28074SOL    HW296201   9.213   4.022   7.396  0.0535  0.0272 -0.1671
28075SOL     OW96202   8.394   7.085   8.717  0.4619 -0.2786 -0.1394
28075SOL    HW196203   8.396   7.120   8.628 -0.4357 -0.2350 -0.1574
28075SOL    HW296204   8.348   7.001   8.708  0.5880 -0.3888  0.2419
28076SOL     OW96205   8.279   9.657   0.562  0.2029 -0.8629  0.1321
28076SOL    HW196206   8.371   9.669   0.537 -0.2136 -0.0983 -1.0697
28076SOL    HW296207   8.255   9.738   0.606 -0.1860 -0.6553 -0.4577
28077SOL     OW96208   0.205   6.888   0.024  0.5138 -0.3324 -0.1800
28077SOL    HW196209   0.133   6.845  -0.023 -1.8370  0.3263  2.5506
28077SOL    HW296210   0.267   6.817   0.042  0.2820 -1.0592 -1.9703
28078SOL     OW96211   8.423   3.511   4.688 -0.6522 -0.4773 -0.3519
28078SOL    HW196212   8.416   3.482   4.779  0.4884  0.0181 -0.0940
28078SOL    HW296213   8.454   3.601   4.693  0.6884 -0.8449 -1.2197
28079SOL     OW96214   3.296   7.093   8.159 -0.2522  0.2302  0.5566
28079SOL    HW196215   3.281   7.187   8.152 -0.7884  0.1019 -0.1174
28079SOL    HW296216   3.221   7.053   8.115 -0.1884 -0.5200  1.0999
28080SOL     OW96217   0.005   2.495   9.734 -0.2089  0.1356  0.1489
28080SOL    HW196218   0.052   2.465   9.812 -1.1641  0.2970  0.8113
28080SOL    HW296219   0.018   2.590   9.733 -1.1444  0.2901  0.7921
28081SOL     OW96220   2.166   3.019   6.011  0.5226 -0.1889  0.2582
28081SOL    HW196221   2.131   3.102   5.979  1.8792  0.4401  0.3375
28081SOL    HW296222   2.221   2.987   5.939  0.9131 -0.4437  0.6666
28082SOL     OW96223   3.877   0.971   6.014  0.1702  0.5113 -0.4072
28082SOL    HW196224   3.869   1.019   5.931  0.4051  1.0077 -0.1499
28082SOL    HW296225   3.786   0.956   6.041  0.0508 -1.2465 -1.6301
28083SOL     OW96226   7.005   3.167   5.778 -0.0056  0.3978 -0.0791
28083SOL    HW196227   7.037   3.108   5.847  0.0614  1.8716  1.1898
28083SOL    HW296228   6.910   3.168   5.790  0.0156  0.7379  0.0599
28084SOL     OW96229   8.791   8.156   4.907 -0.1121  0.2632 -0.7615
28084SOL    HW196230   8.788   8.158   4.811 -0.9815 -2.2210 -0.8356
28084SOL    HW296231   8.711   8.112   4.933  0.2951  0.5494  1.1133
28085SOL     OW96232   1.241   3.539   6.500 -0.4523 -0.0700  0.1025
28085SOL    HW196233   1.287   3.470   6.452 -1.8845 -2.2978  1.7647
28085SOL    HW296234   1.244   3.512   6.591 -1.9169  1.5962  0.7120
28086SOL     OW96235   5.373   1.549   6.333 -0.2373 -0.6006  0.3810
28086SOL    HW196236   5.414   1.622   6.287 -1.6540  1.4827  2.2399
28086SOL    HW296237   5.299   1.588   6.380 -1.4184 -3.3460  1.0091
28087SOL     OW96238   1.999   0.253   3.487 -0.3234 -0.7378  0.2089
28087SOL    HW196239   2.090   0.276   3.505 -0.7415  0.1468  1.3764
28087SOL    HW296240   2.002   0.162   3.458  0.8404 -1.0424  1.1894
28088SOL     OW96241   5.772   4.018   5.813 -0.2524 -0.0389 -0.2736
28088SOL    HW196242   5.717   3.964   5.870  1.1342 -0.9871  0.1991
28088SOL    HW296243   5.732   4.009   5.726 -1.3733  0.0476  0.2091
28089SOL     OW96244   0.301   1.331   4.179  0.1814 -0.5912 -0.3444
28089SOL    HW196245   0.320   1.257   4.123  1.3478 -1.0696  0.6499
28089SOL    HW296246   0.212   1.357   4.155  0.4669 -1.0792 -2.0426
28090SOL     OW96247   9.232   0.259   0.900 -0.0703  0.1293 -0.4663
28090SOL    HW196248   9.181   0.227   0.975 -1.0173 -0.3556 -1.2994
28090SOL    HW296249   9.318   0.218   0.911 -0.7398 -1.3784 -0.5898
28091SOL     OW96250   6.675  10.054   1.796  0.0429  0.1448 -0.2385
28091SOL    HW196251   6.746  10.118   1.796  0.1486  0.0334 -0.5379
28091SOL    HW296252   6.707   9.984   1.739  0.7090 -1.0392  1.5273
28092SOL     OW96253   2.976   0.870   9.613  1.1813 -0.4630  0.2800
28092SOL    HW196254   2.973   0.834   9.524 -0.1512  3.1652 -1.3512
28092SOL    HW296255   3.069   0.882   9.631  1.4794  1.0524 -1.8068
28093SOL     OW96256   6.180   3.142   7.421  0.3390  0.0841  0.1003
28093SOL    HW196257   6.194   3.206   7.491  0.7185  1.0866 -0.8537
28093SOL    HW296258   6.257   3.086   7.424  0.6733  0.5363  0.0711
28094SOL     OW96259  10.243   2.414   5.681 -0.1049 -0.6323 -0.2805
28094SOL    HW196260  10.175   2.422   5.614  0.5847 -0.4558 -0.9732
28094SOL    HW296261  10.214   2.470   5.752 -0.5489 -0.3317 -0.6932
28095SOL     OW96262   8.043   6.252   6.008  0.1431 -0.3373  0.6668
28095SOL    HW196263   7.977   6.197   6.051 -0.1042 -1.0989 -0.6293
28095SOL    HW296264   8.107   6.270   6.077 -1.2316  0.1500  1.8770
28096SOL     OW96265   8.550   9.986   0.908 -0.3443  0.3258 -0.4617
28096SOL    HW196266   8.549   9.932   0.830  1.4890 -0.3979 -0.0508
28096SOL    HW296267   8.521  10.072   0.878 -2.0715 -0.5284 -1.3882
28097SOL     OW96268   6.229   9.940   9.258  0.1411  0.1453  0.2176
28097SOL    HW196269   6.156   9.896   9.214  0.3294  1.4123 -1.4183
28097SOL    HW296270   6.301   9.937   9.195  1.1714 -0.0523  1.3588
28098SOL     OW96271   2.954   9.328   3.656  0.0345  0.4610  0.0946
28098SOL    HW196272   2.947   9.398   3.722 -0.3656  0.5498 -0.0398
28098SOL    HW296273   2.973   9.374   3.574 -1.2467  0.5106 -0.1934
28099SOL     OW96274   2.067   8.695   9.591 -0.0538 -0.0081  0.0262
28099SOL    HW196275   2.074   8.759   9.662  0.7476  1.5963 -1.4330
28099SOL    HW296276   2.094   8.612   9.632  1.7872  1.1188  1.2835
28100SOL     OW96277   9.659   8.207   4.056 -0.2506 -0.2714  0.5739
28100SOL    HW196278   9.576   8.226   4.099 -0.0346  1.1153  0.3997
28100SOL    HW296279   9.680   8.118   4.085 -1.1156 -0.1380  1.7097
28101SOL     OW96280   5.795   5.791   8.059 -0.3222  0.1127 -0.6467
28101SOL    HW196281   5.860   5.751   8.116  0.9682  0.0514 -2.0924
28101SOL    HW296282   5.768   5.871   8.104  2.3876  1.3042 -0.9717
28102SOL     OW96283  10.068   7.441   5.240 -0.2384 -0.6157 -0.1815
28102SOL    HW196284  10.159   7.470   5.241  0.2087 -1.9715  0.5198
28102SOL    HW296285  10.067   7.366   5.179 -1.0244 -0.2053 -0.6914
28103SOL     OW96286   6.643   9.231   0.053 -0.2202 -0.8869  0.3752
28103SOL    HW196287   6.658   9.324   0.037  0.7841 -1.3308 -1.5580
28103SOL    HW296288   6.731   9.193   0.057 -0.5836 -1.6356  2.1365
28104SOL     OW96289   7.439   9.329  10.020  0.0622  0.1861  0.2288
28104SOL    HW196290   7.440   9.344  10.115  0.1913 -0.2380  0.2985
28104SOL    HW296291   7.521   9.368   9.989  0.8909 -1.2157  0.5527
28105SOL     OW96292   2.547   4.775   1.822 -0.5556 -0.0128  0.2949
28105SOL    HW196293   2.489   4.849   1.805 -1.5165 -0.7930  0.0615
28105SOL    HW296294   2.553   4.729   1.738 -1.3446 -1.1333  0.8307
28106SOL     OW96295   1.381   6.809   7.127  0.3303  0.2236 -0.0144
28106SOL    HW196296   1.465   6.786   7.168  0.1525  0.6790  0.6193
28106SOL    HW296297   1.387   6.903   7.114 -1.3004  0.8551  2.9506
28107SOL     OW96298   6.017   8.687   2.653  0.0221  0.5270 -0.2498
28107SOL    HW196299   5.998   8.718   2.742  0.4864 -1.0974  0.4645
28107SOL    HW296300   5.954   8.733   2.598 -2.3608 -0.5753  1.3212
28108SOL     OW96301   8.153   4.768   3.477 -0.1205 -0.2339  0.4988
28108SOL    HW196302   8.184   4.678   3.490 -0.8165 -0.5873 -0.1872
28108SOL    HW296303   8.183   4.815   3.554 -1.5958 -1.5588  1.9588
28109SOL     OW96304   0.704   1.738   3.060 -0.1066 -0.5353 -0.3864
28109SOL    HW196305   0.785   1.723   3.011  0.8705  1.2892  0.5518
28109SOL    HW296306   0.696   1.663   3.118  2.9692  0.8142  2.1205
28110SOL     OW96307   3.683   7.993   5.250  0.4823  0.2221 -0.3362
28110SOL    HW196308   3.595   7.955   5.257  0.2263  0.9840  0.7871
28110SOL    HW296309   3.709   7.975   5.160  0.0628 -1.9019 -0.0840
28111SOL     OW96310   1.744   8.874   8.060 -0.0300  0.3912  0.4957
28111SOL    HW196311   1.829   8.916   8.073  0.6771 -1.1305  1.1425
28111SOL    HW296312   1.709   8.914   7.980  2.9583 -1.4206 -1.9919
28112SOL     OW96313   5.056  10.028   2.463 -0.3127  0.2828  0.4022
28112SOL    HW196314   5.010  10.109   2.442 -0.3106  0.3007  0.4665
28112SOL    HW296315   4.990   9.972   2.503 -0.4309  0.0648 -0.0918
28113SOL     OW96316   0.602   3.083   6.440 -0.6967  0.5635  0.1702
28113SOL    HW196317   0.611   3.044   6.353 -2.5803  0.0063  0.1699
28113SOL    HW296318   0.679   3.053   6.488 -0.1035  0.1094 -1.0278
28114SOL     OW96319   5.766   8.339   2.192 -0.1049  0.0813  0.5454
28114SOL    HW196320   5.799   8.249   2.192  0.1838  0.1726 -0.3656
28114SOL    HW296321   5.802   8.378   2.272  3.3749  0.6192 -1.1092
28115SOL     OW96322   3.230   5.028  10.147 -0.6006 -0.2711 -0.0835
28115SOL    HW196323   3.201   5.096  10.086 -0.9821 -0.6174 -0.2924
28115SOL    HW296324   3.176   5.040  10.224  1.0142  1.2362  0.8712
28116SOL     OW96325   3.141   1.309   7.130 -0.4495 -0.1542 -0.0345
28116SOL    HW196326   3.232   1.322   7.104 -0.7485 -0.5257 -1.3573
28116SOL    HW296327   3.130   1.214   7.133 -1.0912 -0.1241 -1.0456
28117SOL     OW96328   7.441   4.694   1.631 -0.0759 -0.0867  0.0351
28117SOL    HW196329   7.425   4.789   1.628 -0.9899 -0.2375 -0.1184
28117SOL    HW296330   7.434   4.672   1.724 -1.2970 -0.2241 -0.0723
28118SOL     OW96331   3.389   1.869   0.736  0.1375 -0.3229 -0.3768
28118SOL    HW196332   3.386   1.900   0.645  2.9808 -1.0137 -0.7830
28118SOL    HW296333   3.342   1.786   0.734 -0.5144  0.0467 -1.0163
28119SOL     OW96334   8.821   2.748   5.135 -0.1623  0.2315  0.6237
28119SOL    HW196335   8.855   2.668   5.175  1.1651  0.5205  0.1359
28119SOL    HW296336   8.734   2.759   5.173  0.5494 -0.1748  2.4683
28120SOL     OW96337   6.425   2.692   8.305  0.5657  0.1339 -0.2014
28120SOL    HW196338   6.422   2.709   8.210  2.0327 -0.5538 -0.3957
28120SOL    HW296339   6.510   2.650   8.319 -0.3816 -1.4237  1.1675
28121SOL     OW96340   4.276   7.016   6.497  0.5515 -0.7741 -0.1950
28121SOL    HW196341   4.225   7.097   6.485  0.9396 -0.3364  0.9908
28121SOL    HW296342   4.232   6.971   6.569  0.7927 -1.2650 -0.3521
28122SOL     OW96343   0.026  10.000   5.807  0.2502  0.5726  0.2937
28122SOL    HW196344   0.072  10.017   5.889  0.4951 -0.2553  0.3277
28122SOL    HW296345  -0.047   9.943   5.831  0.8042 -0.3590 -0.1858
28123SOL     OW96346   6.861   7.257   7.765 -0.2426 -0.0037 -0.0068
28123SOL    HW196347   6.862   7.327   7.830 -1.3256 -0.2604  0.3130
28123SOL    HW296348   6.795   7.284   7.701 -0.2020 -0.4219 -0.2313
28124SOL     OW96349   2.667   7.699   5.106 -0.4550 -0.0713 -0.6583
28124SOL    HW196350   2.702   7.616   5.073  0.4447  0.2721 -0.5819
28124SOL    HW296351   2.574   7.681   5.122  0.0006 -1.5002  0.7131
28125SOL     OW96352   8.101  10.090   5.068  0.4839  0.4545  0.6846
28125SOL    HW196353   8.080  10.029   4.997 -2.1821  0.7217  1.1390
28125SOL    HW296354   8.183  10.056   5.105  2.3755  0.6578 -2.8158
28126SOL     OW96355   8.594   5.020  10.285  0.8989  0.5551  0.0970
28126SOL    HW196356   8.647   4.984  10.356 -1.5458 -2.5404  0.5681
28126SOL    HW296357   8.524   5.068  10.330  0.7220  0.7005 -0.3275
28127SOL     OW96358   3.759   2.595   9.752 -0.3399  0.0719  0.5147
28127SOL    HW196359   3.828   2.576   9.815  0.6324 -0.4269 -0.6610
28127SOL    HW296360   3.678   2.587   9.802  0.2976 -2.0563  1.3342
28128SOL     OW96361   2.979   4.361   2.410  0.8930  0.7405 -0.2076
28128SOL    HW196362   3.074   4.357   2.425  1.0566 -2.1120 -1.2556
28128SOL    HW296363   2.968   4.326   2.321 -1.0432  2.8817 -0.9100
28129SOL     OW96364   7.433   4.390   2.462 -0.5898 -0.1737  0.3006
28129SOL    HW196365   7.492   4.449   2.415  0.3585  0.3548  2.0771
28129SOL    HW296366   7.346   4.429   2.451 -0.6089 -0.6744 -1.8926
28130SOL     OW96367   9.256   0.514   8.199 -0.3873  0.4564 -0.2699
28130SOL    HW196368   9.300   0.435   8.231 -0.9993  0.2627  0.0898
28130SOL    HW296369   9.166   0.505   8.227 -0.3274  1.5937  0.3316
28131SOL     OW96370   9.173   1.932   9.326 -0.3680 -0.5793  0.5195
28131SOL    HW196371   9.119   1.857   9.301 -1.0058  0.4129 -1.2711
28131SOL    HW296372   9.141   2.003   9.270  1.1626  0.6619  1.1744
28132SOL     OW96373   8.203   2.831   9.037 -0.1096 -0.0179 -0.0121
28132SOL    HW196374   8.209   2.738   9.056  0.3909  0.0685  0.2840
28132SOL    HW296375   8.109   2.850   9.040 -0.3149 -0.7451 -1.2908
28133SOL     OW96376   3.847   1.784   7.802 -0.1083 -0.1193  0.2813
28133SOL    HW196377   3.783   1.745   7.742 -0.0257 -0.0643  0.1573
28133SOL    HW296378   3.932   1.751   7.771 -0.0701 -0.1315  0.3999
28134SOL     OW96379   3.840   8.146   3.977  0.9363 -0.2294 -0.1113
28134SOL    HW196380   3.746   8.129   3.979  0.1504  3.2453 -1.2231
28134SOL    HW296381   3.868   8.116   3.891 -0.0689  2.1296 -1.3667
28135SOL     OW96382   0.735   4.236   7.138 -0.2497  0.0989  0.0815
28135SOL    HW196383   0.756   4.143   7.145  1.0556  0.3639 -0.0605
28135SOL    HW296384   0.670   4.251   7.207 -0.8800 -1.0112 -0.2428
28136SOL     OW96385   1.685   6.182   0.019 -0.0987 -0.3231 -0.2220
28136SOL    HW196386   1.730   6.169  -0.064  0.0435 -0.4580 -0.1254
28136SOL    HW296387   1.622   6.111   0.024 -0.5019  0.0108 -0.4731
28137SOL     OW96388   1.933   4.380   9.791  0.2606 -0.2089 -0.1996
28137SOL    HW196389   2.003   4.438   9.822  0.4841 -0.6987  0.2135
28137SOL    HW296390   1.974   4.294   9.783 -0.6313 -0.8442  1.4809
28138SOL     OW96391   6.977   2.221   6.275 -0.0706  0.6962 -0.3153
28138SOL    HW196392   6.964   2.158   6.346 -1.2631 -0.7694 -1.7498
28138SOL    HW296393   7.069   2.246   6.282  0.4506 -1.1930  0.3619
28139SOL     OW96394   3.035   1.732   1.360  0.5167  0.0557 -0.0925
28139SOL    HW196395   2.942   1.752   1.365  0.5278 -0.1569  1.7192
28139SOL    HW296396   3.041   1.652   1.308 -0.5488 -1.2002  1.6177
28140SOL     OW96397   9.942   9.760   0.768 -0.5466  0.4884  0.2199
28140SOL    HW196398   9.888   9.825   0.723 -2.2390 -1.4258 -0.6803
28140SOL    HW296399   9.903   9.754   0.855 -2.0719 -1.0687 -0.5052
28141SOL     OW96400   6.387   7.879   7.393 -0.3307 -0.0480 -0.4391
28141SOL    HW196401   6.466   7.926   7.369 -0.7194  1.4377  1.0596
28141SOL    HW296402   6.367   7.825   7.316  0.5269  1.7158 -1.9696
28142SOL     OW96403   9.257   8.075   0.732 -0.0496  0.7975  0.3041
28142SOL    HW196404   9.251   8.166   0.761  0.1213  0.6544  0.8064
28142SOL    HW296405   9.206   8.026   0.797 -0.0856  0.5266  0.0728
28143SOL     OW96406   7.425   1.541   4.191 -0.2305 -0.7107  0.3263
28143SOL    HW196407   7.417   1.473   4.124 -1.1350  0.4770 -0.8174
28143SOL    HW296408   7.492   1.508   4.252  0.9379 -1.6366 -1.3975
28144SOL     OW96409   6.099   5.798   8.851 -0.2798 -0.2030  0.4140
28144SOL    HW196410   6.145   5.727   8.896  0.2801 -0.7528 -1.0001
28144SOL    HW296411   6.030   5.824   8.913  1.7685  0.5607  2.5376
28145SOL     OW96412   8.010   6.741   6.574  0.0882  0.2422  0.5416
28145SOL    HW196413   7.971   6.803   6.635  3.3017  0.8747  2.1872
28145SOL    HW296414   7.999   6.782   6.488  0.0085  1.9174  1.3050
28146SOL     OW96415   4.953   7.433   5.469  0.3056 -0.0213 -0.2780
28146SOL    HW196416   4.896   7.368   5.428  2.1595 -1.2507 -1.0714
28146SOL    HW296417   4.899   7.512   5.476 -0.9086 -0.5270 -2.7411
28147SOL     OW96418   7.591   6.981   5.416  0.1894 -0.4819  0.1609
28147SOL    HW196419   7.662   6.971   5.352  0.4995  2.5808 -0.0992
28147SOL    HW296420   7.635   6.992   5.500 -0.1037 -1.0721  0.4017
28148SOL     OW96421   6.757   5.727   9.631 -0.3584  0.5151 -0.2051
28148SOL    HW196422   6.804   5.796   9.678  0.7319  1.1101 -2.0451
28148SOL    HW296423   6.775   5.648   9.682  0.1328  1.2380  0.7966
28149SOL     OW96424   9.578   4.784   8.193 -0.0065  0.2695 -0.5651
28149SOL    HW196425   9.610   4.724   8.126 -0.2576  0.7048 -1.0900
28149SOL    HW296426   9.485   4.795   8.173 -0.4336 -0.7559  0.7617
28150SOL     OW96427   8.485   7.180   8.970  0.2090 -0.1449  0.3391
28150SOL    HW196428   8.456   7.132   8.893  0.0788  3.2792 -1.9636
28150SOL    HW296429   8.432   7.145   9.042  0.3185 -3.4494 -1.0065
28151SOL     OW96430   7.054   8.861   7.848 -0.0395  0.5212  0.0014
28151SOL    HW196431   7.071   8.845   7.755  2.0189  0.6436  0.3133
28151SOL    HW296432   7.071   8.955   7.859 -0.2442  0.4994  0.5038
28152SOL     OW96433   0.472   3.925   9.769 -0.0707 -1.3150 -0.0413
28152SOL    HW196434   0.549   3.943   9.715 -0.2906  1.4862  0.3912
28152SOL    HW296435   0.456   3.832   9.759  1.0119 -1.2736 -3.3082
28153SOL     OW96436   3.014   8.621   2.396 -0.9701  0.0322 -0.2080
28153SOL    HW196437   2.970   8.605   2.479 -1.9398 -0.7088 -0.8376
28153SOL    HW296438   3.002   8.540   2.346 -1.9279  1.0477 -1.7229
28154SOL     OW96439   2.060   7.808   8.330  0.0259 -0.0615  0.6810
28154SOL    HW196440   2.103   7.840   8.410  0.6338  0.4420  0.1549
28154SOL    HW296441   2.082   7.872   8.263 -2.0820  0.5746  0.5233
28155SOL     OW96442  10.312   4.275   2.924  0.0331 -0.0706 -0.1477
28155SOL    HW196443  10.271   4.192   2.947  0.7453 -0.4957 -0.3719
28155SOL    HW296444  10.402   4.268   2.956  0.3378  0.2822 -0.8772
28156SOL     OW96445   5.480   8.798   4.089  0.0773  0.1790 -0.6635
28156SOL    HW196446   5.463   8.770   4.179 -1.1050  0.7559 -0.7001
28156SOL    HW296447   5.500   8.891   4.095 -2.0175  0.7044 -1.1939
28157SOL     OW96448   3.230   9.595   9.151  0.0347  0.0763 -0.2880
28157SOL    HW196449   3.271   9.672   9.110 -0.5176  1.0674  0.9522
28157SOL    HW296450   3.295   9.563   9.213 -1.3093  2.3446  2.5368
28158SOL     OW96451   7.282   8.648   0.638 -0.1345  0.4542  0.7354
28158SOL    HW196452   7.253   8.572   0.588 -1.8589  1.6528 -0.1714
28158SOL    HW296453   7.355   8.615   0.691 -0.0935 -1.5357 -0.4604
28159SOL     OW96454   4.237   2.085   1.911 -0.1516 -0.0211 -0.4805
28159SOL    HW196455   4.230   2.180   1.911 -3.0734 -0.1557 -0.6556
28159SOL    HW296456   4.205   2.058   1.998 -2.1586 -0.9152 -1.4344
28160SOL     OW96457   2.106   2.459   1.937 -0.2759 -0.7775  0.3026
28160SOL    HW196458   2.088   2.422   2.024 -1.2538  0.8577  0.8272
28160SOL    HW296459   2.026   2.445   1.887 -0.0373 -0.8921 -0.0552
28161SOL     OW96460   6.315   8.532   8.987 -0.1822  0.1591  0.2846
28161SOL    HW196461   6.280   8.614   9.023 -0.8972 -0.0948  0.1979
28161SOL    HW296462   6.368   8.558   8.913  0.9914  0.6677  1.2736
28162SOL     OW96463   9.887   2.494   9.783  0.1320 -0.3663  0.1309
28162SOL    HW196464   9.910   2.458   9.869  0.7766  0.3632  0.2732
28162SOL    HW296465   9.957   2.463   9.726 -0.9973 -1.9834 -0.4535
28163SOL     OW96466   4.413   0.718   3.156  0.0920 -0.3933  0.0477
28163SOL    HW196467   4.457   0.798   3.125 -0.6512  0.2419  0.5667
28163SOL    HW296468   4.439   0.650   3.095  1.4651  0.0509  0.1176
28164SOL     OW96469   0.717   6.933   7.701  0.4902  0.1865  0.1026
28164SOL    HW196470   0.677   6.991   7.636  0.0114  0.4989  0.6691
28164SOL    HW296471   0.790   6.984   7.737  1.8064 -0.5946 -1.3407
28165SOL     OW96472   6.758   5.145   2.954  0.6131 -0.1930 -0.1784
28165SOL    HW196473   6.719   5.074   3.006  0.1482  0.5404  0.4958
28165SOL    HW296474   6.776   5.105   2.869  0.9023 -1.2795  0.3716
28166SOL     OW96475   6.112   6.053   6.005  0.5094  0.2475  0.3894
28166SOL    HW196476   6.130   6.137   5.963  1.9794  0.3293  1.0809
28166SOL    HW296477   6.183   6.044   6.069 -0.1559 -1.0938  0.9683
28167SOL     OW96478   5.574   9.793   3.807 -0.3557  0.3606  0.1381
28167SOL    HW196479   5.510   9.769   3.874 -0.0591 -0.2661  0.2083
28167SOL    HW296480   5.638   9.847   3.854  0.6677 -1.3032  0.7524
28168SOL     OW96481   6.219   0.815   7.749  1.0108  0.0013  0.0654
28168SOL    HW196482   6.292   0.861   7.792  3.0370 -0.8219 -2.2426
28168SOL    HW296483   6.262   0.758   7.685 -1.7094 -0.4701 -1.4667
28169SOL     OW96484   6.784   5.765   6.054  0.1072  0.5122  0.2277
28169SOL    HW196485   6.792   5.696   5.987 -0.1415  1.1263 -0.4528
28169SOL    HW296486   6.792   5.719   6.137  1.5993 -0.1329 -0.2296
28170SOL     OW96487   2.806   8.486   0.660 -0.1838 -0.3087 -0.1707
28170SOL    HW196488   2.787   8.513   0.570  1.8751  0.8227 -0.3345
28170SOL    HW296489   2.815   8.568   0.708 -1.3782 -0.9044  1.1210
28171SOL     OW96490   9.542   8.613   5.615 -0.1854  0.9254 -0.1771
28171SOL    HW196491   9.601   8.538   5.607 -1.0170  0.3041 -0.7589
28171SOL    HW296492   9.540   8.651   5.527 -1.3366  0.3854 -0.4051
28172SOL     OW96493   7.320  10.152  10.035  0.0779 -0.1792 -0.8223
28172SOL    HW196494   7.364  10.155  10.120  0.4389 -0.2658 -1.0024
28172SOL    HW296495   7.302  10.244  10.014 -1.6228 -0.2571  0.1644
28173SOL     OW96496   9.760   0.785   0.834  0.4808  0.2455 -0.3223
28173SOL    HW196497   9.811   0.761   0.912  1.6596 -1.1854 -1.4554
28173SOL    HW296498   9.744   0.701   0.790 -1.1467  0.9001 -1.0502
28174SOL     OW96499   7.790  10.356   9.261 -0.1170 -0.2875  0.5274
28174SOL    HW196500   7.877  10.392   9.274 -0.4143 -0.1975  2.5223
28174SOL    HW296501   7.742  10.425   9.216  1.2662 -1.0163 -2.3411
28175SOL     OW96502   9.042   6.143   0.851  0.2163  0.2108  0.1376
28175SOL    HW196503   8.973   6.078   0.860  0.4148  0.0638  0.6459
28175SOL    HW296504   9.045   6.163   0.757  2.2200 -2.8060 -0.6075
28176SOL     OW96505   4.006   6.653   4.529  0.5990 -0.1291 -0.4262
28176SOL    HW196506   4.042   6.714   4.465 -0.0553  1.9646  1.0794
28176SOL    HW296507   3.981   6.576   4.478  1.7776  0.7006 -2.3613
28177SOL     OW96508   6.283   9.546   7.536  0.3404  0.3882  0.3791
28177SOL    HW196509   6.255   9.637   7.539 -0.0364  0.3504 -1.1410
28177SOL    HW296510   6.315   9.534   7.446  0.0642 -1.0525  0.4496
28178SOL     OW96511   4.637   7.009   3.725 -0.0423 -0.0493  0.5155
28178SOL    HW196512   4.580   6.937   3.751  0.5952 -0.7896 -0.0654
28178SOL    HW296513   4.586   7.088   3.741 -0.9092 -0.6551  0.7858
28179SOL     OW96514   6.904   6.851   8.041  0.3227  0.4987 -0.1824
28179SOL    HW196515   6.854   6.785   7.993  1.1041 -0.5907  0.4288
28179SOL    HW296516   6.859   6.860   8.125  2.7239 -2.8999  1.7416
28180SOL     OW96517   6.766   6.914   9.295 -0.1335 -0.1536 -0.6327
28180SOL    HW196518   6.708   6.918   9.219 -0.3157 -0.8182 -0.5404
28180SOL    HW296519   6.852   6.894   9.259  0.0626  0.9073 -0.7767
28181SOL     OW96520   7.548   8.650   3.155  0.9540 -0.7286  0.1130
28181SOL    HW196521   7.533   8.738   3.119 -0.1035  0.1981  2.5328
28181SOL    HW296522   7.639   8.630   3.134  1.9056  1.9220  1.2913
28182SOL     OW96523   9.193   7.675   2.208  0.3994 -0.1590  0.5516
28182SOL    HW196524   9.105   7.665   2.173  0.7784 -2.4476  0.0453
28182SOL    HW296525   9.235   7.739   2.151 -0.2690 -0.7432 -0.6424
28183SOL     OW96526   6.078   3.750  10.298 -0.2550 -0.2079  0.1799
28183SOL    HW196527   5.998   3.795  10.324  0.5014  2.3735 -1.5546
28183SOL    HW296528   6.143   3.776  10.363 -0.5312 -1.4475  0.9828
28184SOL     OW96529   9.767   5.840   8.217 -0.0376  0.4746 -0.1655
28184SOL    HW196530   9.848   5.797   8.244  0.9423  1.9800 -0.5766
28184SOL    HW296531   9.779   5.859   8.123 -1.0482  0.3224 -0.3408
28185SOL     OW96532   8.353   3.749   9.231 -0.1066  0.1529  1.0599
28185SOL    HW196533   8.435   3.699   9.230 -0.5783 -0.6389  0.1932
28185SOL    HW296534   8.381   3.840   9.221  0.6104 -0.2247 -0.8994
28186SOL     OW96535   2.813   8.217  10.219  0.3368 -0.0851 -0.0348
28186SOL    HW196536   2.872   8.293  10.215  0.5879 -0.3261 -1.4600
28186SOL    HW296537   2.727   8.255  10.234  0.7422  0.3174  1.4048
28187SOL     OW96538   9.822   8.074   5.266  0.4970 -0.3218  0.1844
28187SOL    HW196539   9.812   8.148   5.326 -0.3529 -2.6717  3.1277
28187SOL    HW296540   9.916   8.072   5.246  0.4358  1.9605 -0.6536
28188SOL     OW96541   5.053   0.636   2.861 -0.0246 -0.1494 -0.1624
28188SOL    HW196542   5.124   0.687   2.900  0.2703  0.0495 -0.9386
28188SOL    HW296543   5.033   0.682   2.779  0.1781 -1.2219 -0.8301
28189SOL     OW96544   5.896   9.648   8.258 -0.1722  0.1001  0.0702
28189SOL    HW196545   5.883   9.565   8.212 -0.9601 -0.1706  0.7574
28189SOL    HW296546   5.885   9.715   8.190 -1.1441 -0.2964 -0.1825
28190SOL     OW96547   7.293   1.450   2.072  0.0928  0.6246  0.0935
28190SOL    HW196548   7.206   1.422   2.103 -0.2529  1.6288  0.0625
28190SOL    HW296549   7.281   1.469   1.979  0.6718 -0.4971 -0.2281
28191SOL     OW96550   2.650   9.942   6.336  0.4938  0.1735 -0.0670
28191SOL    HW196551   2.619   9.939   6.245 -0.8530  1.5367  0.3043
28191SOL    HW296552   2.744   9.955   6.328  0.2710  1.3183 -1.3151
28192SOL     OW96553   7.435   8.016   9.947  0.5643 -0.0483 -0.2384
28192SOL    HW196554   7.345   8.047   9.934  0.3668  1.3270  3.3897
28192SOL    HW296555   7.486   8.096   9.956  1.5044 -0.7904  1.2581
28193SOL     OW96556   5.945   3.387   3.107 -0.3437  0.4014 -0.2763
28193SOL    HW196557   6.011   3.318   3.116  0.2122  1.0616  1.0012
28193SOL    HW296558   5.972   3.454   3.169 -1.1889  1.5311 -1.0852
28194SOL     OW96559   4.443   3.157  10.188 -0.1399 -0.3910  0.5913
28194SOL    HW196560   4.432   3.098  10.113 -1.7664  0.8542 -0.2256
28194SOL    HW296561   4.398   3.237  10.162 -1.8397 -0.3212  3.3603
28195SOL     OW96562   8.673   0.756   2.005 -0.1630  0.3828 -0.8377
28195SOL    HW196563   8.582   0.732   1.988  0.0834 -0.4849 -0.9946
28195SOL    HW296564   8.673   0.788   2.095 -0.6301  0.4652 -0.8630
28196SOL     OW96565   0.521   8.696   0.830  0.2964  0.0112  0.3510
28196SOL    HW196566   0.558   8.661   0.749  2.2543  1.2292  0.6477
28196SOL    HW296567   0.440   8.740   0.803  1.7119  1.8056 -1.2953
28197SOL     OW96568   8.601   5.379   3.764 -0.2730 -0.5348 -0.3019
28197SOL    HW196569   8.657   5.318   3.813 -1.2854 -0.5639  0.8666
28197SOL    HW296570   8.622   5.464   3.801 -1.4698 -0.6259  0.6311
28198SOL     OW96571   8.596   4.831   5.919 -0.1579  0.2871  0.0077
28198SOL    HW196572   8.608   4.774   5.843 -0.3766  0.8985 -0.4945
28198SOL    HW296573   8.684   4.842   5.955 -0.1637 -0.6659  0.3315
28199SOL     OW96574   4.482   9.047   3.497  0.3594  0.1066 -0.0732
28199SOL    HW196575   4.555   8.986   3.487  0.8334  0.4504  1.0459
28199SOL    HW296576   4.524   9.131   3.518 -0.3275  0.5428 -0.4104
28200SOL     OW96577   2.792   5.068   5.985  0.5970  0.1987  0.0468
28200SOL    HW196578   2.750   5.007   6.047  1.1963 -0.3030 -0.0229
28200SOL    HW296579   2.762   5.039   5.899  1.0600 -0.1592 -0.0030
28201SOL     OW96580   7.829   0.539   4.680 -0.1582  0.4453 -0.1585
28201SOL    HW196581   7.794   0.477   4.743  0.6616 -1.8119 -1.7903
28201SOL    HW296582   7.752   0.575   4.636 -0.6212  0.0664  0.3341
28202SOL     OW96583   1.545   1.304   5.064 -0.2689  0.1902 -0.2822
28202SOL    HW196584   1.489   1.312   5.141  1.9901 -1.2593  1.6474
28202SOL    HW296585   1.518   1.222   5.023 -0.7750  0.4402 -0.4616
28203SOL     OW96586   8.729   6.938   2.886 -0.5048 -0.6752 -0.0341
28203SOL    HW196587   8.637   6.965   2.887 -0.3216  0.0740 -1.0356
28203SOL    HW296588   8.777   7.014   2.917 -0.1534 -0.6928 -0.5184
28204SOL     OW96589   9.603   2.764   0.800  0.1045 -0.2197  0.1320
28204SOL    HW196590   9.638   2.684   0.838 -0.7158 -0.2740  0.8130
28204SOL    HW296591   9.512   2.743   0.778 -0.1033  0.4912  0.2610
28205SOL     OW96592   0.753   7.044   8.659 -0.3377  0.9659  0.4400
28205SOL    HW196593   0.799   7.030   8.741 -1.6213  0.7439  1.1514
28205SOL    HW296594   0.661   7.055   8.685 -0.5012  3.0145 -0.7611
28206SOL     OW96595   9.921   3.322   3.393 -0.5102  0.5156  0.0134
28206SOL    HW196596   9.997   3.278   3.356 -1.0171 -0.6133  0.2533
28206SOL    HW296597   9.848   3.263   3.373 -1.1064  0.9054  0.9756
28207SOL     OW96598   3.550   7.830   5.027 -0.2439  0.1575  0.3194
28207SOL    HW196599   3.627   7.857   4.977 -0.4866 -0.8647 -0.6425
28207SOL    HW296600   3.528   7.743   4.993 -2.1511  0.6451  0.1913
28208SOL     OW96601   5.379   3.098   1.852  0.2640  0.2021  0.0526
28208SOL    HW196602   5.457   3.063   1.895  0.6648  0.4417 -0.4646
28208SOL    HW296603   5.355   3.030   1.789  2.0852  1.5145 -2.2220
28209SOL     OW96604   2.416   1.294   4.541 -0.1828 -0.6618  0.1478
28209SOL    HW196605   2.439   1.325   4.628  0.3285 -0.5969 -0.0104
28209SOL    HW296606   2.491   1.243   4.513  0.4684  0.8730 -1.0292
28210SOL     OW96607   5.140   5.721   5.059  0.6201 -0.3390 -0.5273
28210SOL    HW196608   5.143   5.641   5.007 -0.9655 -0.4073 -0.5566
28210SOL    HW296609   5.123   5.691   5.148 -0.8555 -0.0129 -0.6786
28211SOL     OW96610   5.831   8.832   8.423  0.1043  0.0459  0.4765
28211SOL    HW196611   5.780   8.913   8.428  0.0486  0.0180  0.3394
28211SOL    HW296612   5.921   8.860   8.441  0.3626  0.4122 -1.2795
28212SOL     OW96613   6.998   4.987   0.970  0.5134 -0.5501 -0.5167
28212SOL    HW196614   6.973   4.916   0.911  0.1997 -2.2137  1.5081
28212SOL    HW296615   6.964   4.961   1.055  2.2717  0.9941  0.7483
28213SOL     OW96616   6.103   1.957   6.883 -0.2015 -0.5395 -0.0536
28213SOL    HW196617   6.098   1.978   6.790 -1.3621 -1.9621 -0.3474
28213SOL    HW296618   6.118   1.863   6.886 -0.7315 -0.6070  1.2088
28214SOL     OW96619   9.579   2.995   7.336 -0.0758 -0.2576 -0.5431
28214SOL    HW196620   9.639   2.927   7.305  1.6402  1.1937 -0.6276
28214SOL    HW296621   9.515   3.005   7.266  0.2395 -1.0704 -0.9637
28215SOL     OW96622   1.916   5.903   7.359 -0.1911  0.2316 -0.1457
28215SOL    HW196623   1.973   5.851   7.417 -2.6757 -0.3647  1.9566
28215SOL    HW296624   1.925   5.862   7.273  1.3270 -0.8030  0.4615
28216SOL     OW96625   3.347   0.829   0.877  0.2209  0.2836  0.0922
28216SOL    HW196626   3.428   0.837   0.826  0.7753 -1.0083  0.7296
28216SOL    HW296627   3.334   0.915   0.916  1.6825  0.3288  0.5382
28217SOL     OW96628   9.804   5.115   1.209  0.6889 -0.1529  0.2982
28217SOL    HW196629   9.777   5.086   1.122  2.0480  0.9813 -0.5444
28217SOL    HW296630   9.880   5.170   1.193  1.5070 -0.6176  2.2909
28218SOL     OW96631   2.179   7.223   2.692 -0.2584  0.0485  0.0085
28218SOL    HW196632   2.145   7.306   2.658  1.2344  0.6045 -0.2088
28218SOL    HW296633   2.263   7.211   2.647  0.4146 -0.6384  1.3864
28219SOL     OW96634   8.532   4.140   3.885 -0.0218 -0.1003 -0.5589
28219SOL    HW196635   8.621   4.159   3.916  0.4947 -1.3513 -1.2096
28219SOL    HW296636   8.492   4.226   3.872  0.8850  0.4711  0.3155
28220SOL     OW96637   9.151   3.006   6.045 -0.1095  0.4346 -0.5019
28220SOL    HW196638   9.119   2.916   6.045  0.9863 -0.0539 -3.1494
28220SOL    HW296639   9.149   3.032   5.953  2.3423  2.0949 -0.1765
28221SOL     OW96640  10.334   7.866   1.116  0.0389 -0.2162  0.0768
28221SOL    HW196641  10.374   7.792   1.071 -1.3706 -0.5242 -0.7144
28221SOL    HW296642  10.346   7.940   1.056 -1.8751 -0.6349 -0.9119
28222SOL     OW96643   5.373   8.228   3.773  0.0579 -0.4190 -0.2793
28222SOL    HW196644   5.281   8.210   3.789 -0.4306  2.1318  0.1492
28222SOL    HW296645   5.379   8.245   3.679  0.1229 -0.6251 -0.3144
28223SOL     OW96646   9.548   5.501   0.110  0.0352 -0.0303  0.0435
28223SOL    HW196647   9.495   5.422   0.121 -1.0811  0.4662 -1.4244
28223SOL    HW296648   9.565   5.531   0.199 -2.5150  0.0024  0.5934
28224SOL     OW96649   9.762   9.811   0.038  0.1027 -0.4047  0.0784
28224SOL    HW196650   9.746   9.721   0.067  0.0873 -0.3355  0.2849
28224SOL    HW296651   9.855   9.826   0.055  0.2789 -0.6333 -0.6481
28225SOL     OW96652   7.272   2.666   5.319 -0.3365 -0.3264  0.2052
28225SOL    HW196653   7.221   2.641   5.396 -0.3265  0.5445  0.5080
28225SOL    HW296654   7.251   2.759   5.306  1.0572  0.0246  0.2578
28226SOL     OW96655   8.171   4.244   4.269 -0.4069 -0.1232  0.6197
28226SOL    HW196656   8.231   4.179   4.306 -0.5854 -0.2988  0.6067
28226SOL    HW296657   8.226   4.297   4.212 -0.2671 -0.2979  0.5882
28227SOL     OW96658   7.466   4.390   7.752  0.2618  0.1102  0.0055
28227SOL    HW196659   7.374   4.415   7.758 -0.5072 -2.4813  0.1960
28227SOL    HW296660   7.467   4.315   7.692  2.0214 -0.8389  1.1382
28228SOL     OW96661   7.527   5.653   3.029 -0.0685 -0.1682 -0.2457
28228SOL    HW196662   7.616   5.680   3.050 -0.8268  2.1955  0.2377
28228SOL    HW296663   7.490   5.621   3.111  0.3738 -1.4469 -0.5113
28229SOL     OW96664   9.913   1.196   1.155 -0.3576  0.2617  0.1205
28229SOL    HW196665   9.947   1.252   1.084  2.2180  0.1566  1.1800
28229SOL    HW296666   9.982   1.195   1.220 -2.0218 -0.9331  1.9837
28230SOL     OW96667   8.689   1.814   6.765 -0.9337 -0.1203 -0.1869
28230SOL    HW196668   8.646   1.782   6.844 -0.8323  0.1280 -0.0293
28230SOL    HW296669   8.744   1.886   6.795 -0.6141 -0.2604 -0.4284
28231SOL     OW96670   2.829   3.754   0.647 -0.0094  0.3699 -0.3880
28231SOL    HW196671   2.824   3.810   0.725  0.1270  0.3539 -0.3674
28231SOL    HW296672   2.813   3.666   0.680  1.2359  0.1993 -0.1789
28232SOL     OW96673   2.153   0.425   4.270 -0.2956 -0.1238  0.0320
28232SOL    HW196674   2.199   0.442   4.352 -2.5964  1.1277  1.1708
28232SOL    HW296675   2.199   0.479   4.205  2.1373 -1.8410  0.1688
28233SOL     OW96676   8.186   2.535   5.588  0.1688  0.0131 -0.0554
28233SOL    HW196677   8.172   2.499   5.676  0.4348 -0.1219 -0.0671
28233SOL    HW296678   8.099   2.563   5.560 -0.1606 -1.2073 -0.3114
28234SOL     OW96679   2.826   8.349   6.062 -0.8083  0.5295  0.1384
28234SOL    HW196680   2.762   8.419   6.076 -1.6514 -0.4996  1.6597
28234SOL    HW296681   2.818   8.328   5.968 -2.3075  0.8049  0.1712
28235SOL     OW96682  10.295   4.959   9.630  0.8589  0.1218  0.7587
28235SOL    HW196683  10.270   5.013   9.555  2.6808 -0.5064 -0.3510
28235SOL    HW296684  10.216   4.958   9.685 -0.5161  0.6741 -1.0743
28236SOL     OW96685   4.305   2.142   6.281 -0.3256 -0.6904 -0.0851
28236SOL    HW196686   4.323   2.127   6.374  2.7236 -0.3173 -0.4887
28236SOL    HW296687   4.262   2.062   6.251  1.7022 -2.2839  1.0053
28237SOL     OW96688   7.978   4.084   7.414 -0.0698 -0.0584 -0.2826
28237SOL    HW196689   8.029   4.149   7.462 -0.8181  0.4375 -0.1474
28237SOL    HW296690   8.024   4.002   7.430  0.1569  0.2301  0.5978
28238SOL     OW96691   7.811   6.481   9.791 -0.3526  0.3361 -0.3223
28238SOL    HW196692   7.774   6.494   9.878 -0.1595 -3.0896  0.3726
28238SOL    HW296693   7.894   6.529   9.793 -2.0921  3.6455 -0.0996
28239SOL     OW96694   5.021   5.737   1.236 -0.3774 -0.3526 -0.2473
28239SOL    HW196695   5.030   5.685   1.316 -0.3365  0.3993  0.2453
28239SOL    HW296696   5.111   5.753   1.208 -0.3670  0.1700  0.0770
28240SOL     OW96697   1.993   1.571   1.652 -0.2222  0.2889 -0.6727
28240SOL    HW196698   1.931   1.544   1.585 -0.4975 -0.2378 -0.2144
28240SOL    HW296699   2.009   1.663   1.634 -2.1709  0.8065 -0.0216
28241SOL     OW96700   2.107   5.454   6.298  0.0131 -0.5700  0.2810
28241SOL    HW196701   2.189   5.412   6.325  0.0082 -0.1351  0.9939
28241SOL    HW296702   2.091   5.419   6.210  0.3801 -1.5115  0.5660
28242SOL     OW96703   2.183   9.384   8.239  0.1919  0.2293 -0.3236
28242SOL    HW196704   2.207   9.427   8.322  0.3235  0.5998 -0.5470
28242SOL    HW296705   2.259   9.329   8.218 -0.7235 -1.6076  0.9149
28243SOL     OW96706   2.393   7.613   8.204  0.4312  0.0685  0.1391
28243SOL    HW196707   2.406   7.688   8.146 -1.1561 -0.6761 -1.2979
28243SOL    HW296708   2.431   7.640   8.288 -1.7534  3.2895  0.3079
28244SOL     OW96709   6.556   4.220  10.154  0.6387 -0.3899 -0.1277
28244SOL    HW196710   6.570   4.262  10.238  2.1107  0.3358 -0.6998
28244SOL    HW296711   6.511   4.138  10.175 -0.7904  0.6609  1.1582
28245SOL     OW96712   4.779   1.248   7.310 -0.8998 -0.7877 -0.5709
28245SOL    HW196713   4.734   1.235   7.227 -0.0674  0.2641 -1.2002
28245SOL    HW296714   4.807   1.160   7.335  0.7146 -0.8765 -2.4969
28246SOL     OW96715   0.593   4.151   6.004 -0.3921  0.5669 -0.1638
28246SOL    HW196716   0.506   4.133   6.040  0.2919  1.2716  2.0443
28246SOL    HW296717   0.617   4.236   6.041  1.0124  0.6593 -1.2013
28247SOL     OW96718   4.949   3.401   0.933 -0.4246  0.4179 -0.0419
28247SOL    HW196719   4.923   3.493   0.926 -0.1455  0.4673 -0.4621
28247SOL    HW296720   4.962   3.373   0.842 -2.6473 -0.6579 -0.0964
28248SOL     OW96721   2.459   2.728   0.256  0.1125  0.0514  0.0920
28248SOL    HW196722   2.468   2.659   0.190  1.7405 -0.2380  0.5600
28248SOL    HW296723   2.516   2.799   0.224  0.1343  0.3035  0.6761
28249SOL     OW96724   7.839   7.131   0.265  0.7477  0.3285  0.3484
28249SOL    HW196725   7.849   7.162   0.175  0.0096 -0.4869 -0.0354
28249SOL    HW296726   7.758   7.173   0.296  1.0253  0.6437  0.6470
28250SOL     OW96727   6.971   3.398   8.489 -0.0217  0.2494  0.2223
28250SOL    HW196728   7.051   3.446   8.511  0.4894 -0.8807  0.9534
28250SOL    HW296729   6.920   3.398   8.569 -0.7049  0.8262 -0.1994
28251SOL     OW96730   1.367   4.390   7.270  0.4111  0.0100  0.2678
28251SOL    HW196731   1.452   4.351   7.291 -0.1862 -1.0947  0.7535
28251SOL    HW296732   1.356   4.375   7.176 -0.3554 -2.2217  0.6501
28252SOL     OW96733   4.141   0.002   4.168  0.1889 -0.2542 -0.3519
28252SOL    HW196734   4.090  -0.026   4.092 -1.9749 -0.1117  0.9735
28252SOL    HW296735   4.139  -0.072   4.228 -1.2671  0.8225  1.0425
28253SOL     OW96736   1.636   9.513   0.609 -0.0279 -0.9205  0.0441
28253SOL    HW196737   1.616   9.496   0.701 -1.3001  0.3418  0.0367
28253SOL    HW296738   1.550   9.523   0.567  0.5350  1.0281 -0.7623
28254SOL     OW96739   9.884   4.011   6.755 -0.1825  0.4399 -0.1697
28254SOL    HW196740   9.973   4.011   6.790  0.1565 -1.1604 -0.9129
28254SOL    HW296741   9.885   4.079   6.687  0.4225  0.5559 -0.0494
28255SOL     OW96742   4.844   4.319   0.054  0.3049  0.2248  0.7417
28255SOL    HW196743   4.842   4.348  -0.037 -0.1416  0.9180  0.9645
28255SOL    HW296744   4.794   4.237   0.054 -1.4147  1.2168  0.6747
28256SOL     OW96745   0.705   3.495   9.306  0.2307  0.0758  0.2070
28256SOL    HW196746   0.789   3.489   9.351  1.4207 -1.0478 -1.9688
28256SOL    HW296747   0.725   3.542   9.225 -1.0811 -0.8166 -0.6764
28257SOL     OW96748   3.174   2.669   2.977 -0.0666 -0.5254 -0.3913
28257SOL    HW196749   3.113   2.740   2.994  0.6758  0.4198 -1.5441
28257SOL    HW296750   3.132   2.616   2.910 -0.7115 -1.3337  0.6125
28258SOL     OW96751   9.229   1.050   2.492 -0.6105  0.1371 -0.6102
28258SOL    HW196752   9.288   1.038   2.567 -1.2449  1.8772  0.2381
28258SOL    HW296753   9.238   1.143   2.470 -1.7730  0.0460 -1.5419
28259SOL     OW96754  10.079   5.416  10.100  0.3808 -0.1100  0.5624
28259SOL    HW196755  10.004   5.456  10.054  0.2392  0.0951  0.9702
28259SOL    HW296756  10.155   5.446  10.050  0.1182 -1.6045 -0.8258
28260SOL     OW96757  10.314   5.456   5.314  0.3264 -0.3406 -0.7098
28260SOL    HW196758  10.242   5.484   5.370 -0.4972  0.8436 -2.2759
28260SOL    HW296759  10.325   5.363   5.334 -1.0146 -0.3215  0.2326
28261SOL     OW96760   3.778   2.370   4.568  0.2714  0.3694 -0.2476
28261SOL    HW196761   3.694   2.414   4.555  0.5120  1.4557  1.4045
28261SOL    HW296762   3.772   2.289   4.518 -1.2198  1.0740 -1.2760
28262SOL     OW96763   0.908   0.865   4.519  0.0289  0.6582  0.1509
28262SOL    HW196764   0.943   0.809   4.449 -1.4665 -0.3141  0.1522
28262SOL    HW296765   0.815   0.846   4.522  0.0231  0.7412  2.3647
28263SOL     OW96766   4.701   5.810   4.924 -0.1721 -0.1354 -0.6957
28263SOL    HW196767   4.668   5.884   4.975  0.6301  0.6781 -1.3291
28263SOL    HW296768   4.770   5.772   4.980 -0.4992 -0.3368 -0.4240
28264SOL     OW96769   2.609   9.111   7.054  0.5147 -0.2223  0.0085
28264SOL    HW196770   2.523   9.095   7.016  0.4972  0.2967 -0.1884
28264SOL    HW296771   2.664   9.135   6.979  0.7276 -0.1698  0.1804
28265SOL     OW96772   9.841   5.237   4.034 -0.8363  0.3849 -0.4432
28265SOL    HW196773   9.877   5.234   4.122 -1.3665 -1.7929 -0.2457
28265SOL    HW296774   9.911   5.273   3.980  0.4553 -0.7074  0.4520
28266SOL     OW96775   3.479   8.927   7.364  0.2669 -0.0932 -0.1334
28266SOL    HW196776   3.438   8.841   7.380  1.6603 -1.0888 -1.5936
28266SOL    HW296777   3.452   8.949   7.275  0.1357  0.8816  0.1399
28267SOL     OW96778  10.071   5.512   1.715  0.1904 -0.2689  0.1400
28267SOL    HW196779   9.998   5.466   1.756  2.4789 -1.1801  3.5335
28267SOL    HW296780  10.109   5.449   1.654  0.5898 -1.2782  1.4154
28268SOL     OW96781   5.731   6.489   7.131  0.4487 -0.4707 -0.7183
28268SOL    HW196782   5.659   6.522   7.185  1.3325 -0.4449  0.4646
28268SOL    HW296783   5.718   6.532   7.046 -0.9043 -0.4430 -0.5272
28269SOL     OW96784   9.608   8.859   6.914  0.1140  0.0585  0.1790
28269SOL    HW196785   9.638   8.875   7.004 -0.5758  0.9197  0.2645
28269SOL    HW296786   9.574   8.770   6.916  1.8268 -0.6409  0.2954
28270SOL     OW96787   3.455   5.649   2.414  0.3746  0.2594 -0.3727
28270SOL    HW196788   3.484   5.570   2.369 -2.4907 -0.5177 -1.0055
28270SOL    HW296789   3.406   5.617   2.490  1.8021  1.5308  1.1816
28271SOL     OW96790   3.679   2.706   4.859 -0.3322  0.6777 -0.3852
28271SOL    HW196791   3.590   2.742   4.854 -0.1035  1.5930  1.3272
28271SOL    HW296792   3.687   2.676   4.950  1.2979  1.1586 -0.3442
28272SOL     OW96793   8.969   7.413   1.102 -0.4921  0.5682  0.1427
28272SOL    HW196794   9.019   7.343   1.059 -2.1071 -0.0907 -0.7295
28272SOL    HW296795   9.035   7.480   1.121  1.0465 -0.9982  0.6578
28273SOL     OW96796  10.073   9.762   0.450  0.1184  0.2322  0.3765
28273SOL    HW196797  10.111   9.769   0.538 -0.4082  2.0520  0.5133
28273SOL    HW296798   9.985   9.798   0.459 -0.8561 -1.7980 -0.4255
28274SOL     OW96799   2.891   5.521   8.379  0.0979 -1.0232  0.0488
28274SOL    HW196800   2.826   5.581   8.414 -0.9319 -1.9908 -0.1467
28274SOL    HW296801   2.840   5.447   8.346  1.2393 -1.4363 -0.8581
28275SOL     OW96802   2.116   7.110   1.623  0.7935  0.0103  0.2109
28275SOL    HW196803   2.104   7.133   1.531  1.9691 -0.3343 -0.0455
28275SOL    HW296804   2.161   7.025   1.622 -0.2236 -0.5793  1.1217
28276SOL     OW96805   3.420   9.135   3.369  0.3421 -0.0834  0.1569
28276SOL    HW196806   3.391   9.056   3.324 -0.2401 -0.1331  0.6011
28276SOL    HW296807   3.514   9.122   3.382  0.3680 -0.4120 -0.3461
28277SOL     OW96808  10.281   4.658   6.029 -0.3519  0.3047 -0.1102
28277SOL    HW196809  10.334   4.579   6.042 -0.7543  0.0941  0.2563
28277SOL    HW296810  10.331   4.710   5.966  1.0390  0.7857  1.3167
28278SOL     OW96811   2.884   3.729   6.792  0.5889  0.1165  0.3199
28278SOL    HW196812   2.853   3.798   6.851  2.3719  0.9051  0.4119
28278SOL    HW296813   2.980   3.733   6.799  0.8698 -0.0965 -2.2022
28279SOL     OW96814   5.601   7.690   7.475  0.3131 -0.1481  0.6064
28279SOL    HW196815   5.571   7.603   7.449 -1.6690 -0.3278  3.0365
28279SOL    HW296816   5.656   7.719   7.403  0.4445 -3.0874 -0.6448
28280SOL     OW96817   9.685   0.528   9.588  0.4424  0.0527 -0.3459
28280SOL    HW196818   9.703   0.513   9.496  0.2952  0.0466 -0.3733
28280SOL    HW296819   9.755   0.482   9.634  0.5815  0.1533 -0.4565
28281SOL     OW96820   7.935   9.913   0.844 -0.1924  0.1489 -0.0670
28281SOL    HW196821   8.013   9.913   0.900 -0.3652 -0.9261  0.2008
28281SOL    HW296822   7.966   9.946   0.760  0.0782  1.7467  0.6259
28282SOL     OW96823   2.295   0.432   5.642  0.0283 -0.6936  0.1894
28282SOL    HW196824   2.228   0.489   5.679  0.3305 -1.1714  1.5382
28282SOL    HW296825   2.274   0.427   5.548 -1.0653  0.1543  0.3714
28283SOL     OW96826   1.576   4.947   0.771 -0.0116 -0.2424  0.0595
28283SOL    HW196827   1.620   4.874   0.727 -0.6426  0.3021 -1.5484
28283SOL    HW296828   1.484   4.936   0.748 -0.1400  0.9327 -0.0101
28284SOL     OW96829   2.759   2.237   6.434  0.5063  0.5020 -0.4479
28284SOL    HW196830   2.776   2.276   6.520  0.8355  0.1334 -0.3423
28284SOL    HW296831   2.769   2.143   6.448 -2.6486  0.1045 -0.1104
28285SOL     OW96832   9.028   5.194   7.710  0.0393 -0.5617  0.3628
28285SOL    HW196833   9.029   5.099   7.719 -1.6549 -0.6961 -0.4060
28285SOL    HW296834   8.991   5.209   7.623 -1.3350  0.7917  1.1273
28286SOL     OW96835   0.537   6.414  10.314 -0.1889 -0.7287 -0.2063
28286SOL    HW196836   0.540   6.441  10.222 -0.9127 -2.9540 -0.9460
28286SOL    HW296837   0.608   6.462  10.355 -0.2890  0.8597 -1.7588
28287SOL     OW96838   0.073   2.439   1.178  0.5203  0.0448 -0.0477
28287SOL    HW196839   0.056   2.404   1.266 -0.7477 -1.5351 -0.8521
28287SOL    HW296840   0.155   2.397   1.152  1.1679  0.9118  0.5583
28288SOL     OW96841   6.541   6.929   6.404  0.4499  0.3072 -0.8973
28288SOL    HW196842   6.599   6.892   6.471 -0.4488  0.1937 -0.1581
28288SOL    HW296843   6.515   6.854   6.351 -0.3239  0.0599 -0.2032
28289SOL     OW96844  10.256   9.236   5.026  0.0564  0.4386 -0.7247
28289SOL    HW196845  10.243   9.297   4.953  0.4451  0.5251 -0.7228
28289SOL    HW296846  10.168   9.222   5.061  0.0721  1.7188 -0.1444
28290SOL     OW96847   4.085   4.148   8.830 -0.5670 -0.0370 -0.3137
28290SOL    HW196848   4.069   4.209   8.759 -1.5941 -0.7697 -0.7337
28290SOL    HW296849   4.074   4.061   8.790  0.9597 -0.5250  0.2363
28291SOL     OW96850   0.801  10.140   7.933 -0.4978 -0.2071  0.0561
28291SOL    HW196851   0.838  10.228   7.922 -2.6402  0.6834 -0.4804
28291SOL    HW296852   0.707  10.152   7.924 -0.7413 -2.9218 -2.6036
28292SOL     OW96853   6.179   0.928   9.675  0.6473 -0.0920 -0.3530
28292SOL    HW196854   6.134   1.005   9.710  1.0114  0.3389 -0.8344
28292SOL    HW296855   6.111   0.882   9.625  0.0544 -0.8429  1.0831
28293SOL     OW96856   1.712   7.134   1.707  0.4261  0.1848 -0.2048
28293SOL    HW196857   1.665   7.182   1.639 -0.2618  0.3892  0.3866
28293SOL    HW296858   1.772   7.199   1.745 -0.4654  0.5916  0.5589
28294SOL     OW96859   3.888   1.402   3.231 -0.3688 -0.4713  0.3851
28294SOL    HW196860   3.880   1.494   3.255 -2.4896  0.0096 -1.7429
28294SOL    HW296861   3.975   1.377   3.261 -0.8972  1.2581  3.9559
28295SOL     OW96862   1.272   6.795   8.428  0.0657 -0.0814  0.1593
28295SOL    HW196863   1.185   6.801   8.390  0.0711 -2.5256 -0.4287
28295SOL    HW296864   1.323   6.747   8.363  2.1751  2.1663  0.0334
28296SOL     OW96865   5.212   5.589   8.690 -0.2755  0.1224  0.1177
28296SOL    HW196866   5.174   5.501   8.696  1.0635 -0.4428  0.8225
28296SOL    HW296867   5.151   5.645   8.738 -0.9436 -0.4832 -0.0050
28297SOL     OW96868   4.427   8.731   1.267 -0.0338  0.2304 -0.1207
28297SOL    HW196869   4.392   8.646   1.294  0.4092  0.5986  1.7425
28297SOL    HW296870   4.395   8.743   1.177  0.5589 -2.2499 -0.7312
28298SOL     OW96871   5.592   3.501   2.253 -0.1107 -0.4135  0.2372
28298SOL    HW196872   5.522   3.502   2.319  0.2018 -0.4406  0.5750
28298SOL    HW296873   5.672   3.487   2.304  0.6283  3.3045  0.3561
28299SOL     OW96874   9.169  10.066   2.096 -0.7907 -0.0830  0.1203
28299SOL    HW196875   9.165  10.146   2.147 -3.3843  0.9533 -1.5219
28299SOL    HW296876   9.197  10.095   2.009 -2.1507 -0.8383 -0.6012
28300SOL     OW96877   4.601   8.779   8.632  0.2888  0.6263 -0.7451
28300SOL    HW196878   4.599   8.873   8.646  1.7637  0.4299  1.1835
28300SOL    HW296879   4.512   8.750   8.653  0.4539  1.3304  1.1606
28301SOL     OW96880   6.039   9.107   5.728 -0.4783  0.0271  0.6117
28301SOL    HW196881   6.036   9.053   5.649 -0.8506  1.2917 -0.2666
28301SOL    HW296882   6.005   9.051   5.797  0.4379 -1.3144  0.0180
28302SOL     OW96883   0.387   8.788   9.908 -0.1117 -0.1895  0.0183
28302SOL    HW196884   0.423   8.858   9.963  1.5473  0.1534 -1.4346
28302SOL    HW296885   0.457   8.722   9.905 -0.6034 -0.6836 -0.8032
28303SOL     OW96886   1.531   7.466   3.802  0.1030 -0.1368  0.1289
28303SOL    HW196887   1.477   7.463   3.722  0.6788  0.4691 -0.2989
28303SOL    HW296888   1.474   7.432   3.871 -1.0606  1.0803 -0.1925
28304SOL     OW96889   5.339   7.950   4.952  0.1941  0.8131 -0.2018
28304SOL    HW196890   5.432   7.936   4.937  0.3677  1.0212  0.6131
28304SOL    HW296891   5.327   8.045   4.940  0.6111  1.2317  2.1855
28305SOL     OW96892   9.776   0.495   1.843  0.4921 -0.7545 -0.3480
28305SOL    HW196893   9.726   0.567   1.803 -0.0733  0.4233  2.2745
28305SOL    HW296894   9.711   0.448   1.896  1.7132 -0.3647  1.6008
28306SOL     OW96895   3.125   8.980   0.153  0.1464  0.0685  0.5886
28306SOL    HW196896   3.171   9.027   0.084  0.2120 -1.2849 -0.3285
28306SOL    HW296897   3.034   8.975   0.123  0.2473 -0.8477  0.3988
28307SOL     OW96898   9.554   4.332   9.844  0.1056  0.0380  0.0171
28307SOL    HW196899   9.582   4.269   9.777 -1.3960  1.1723 -1.7749
28307SOL    HW296900   9.477   4.291   9.884 -2.2041  1.5033 -2.6284
28308SOL     OW96901   4.926   3.478   7.701 -0.1623  0.4637  0.2968
28308SOL    HW196902   4.973   3.560   7.691  1.4868 -0.5532 -0.9809
28308SOL    HW296903   4.965   3.420   7.634 -0.7263 -1.5747  1.6364
28309SOL     OW96904   5.988   9.154   8.038 -0.1487 -0.2502  0.8592
28309SOL    HW196905   5.895   9.175   8.043 -0.3440 -1.3061  3.0219
28309SOL    HW296906   6.031   9.238   8.024 -1.4569  0.0904 -1.6317
28310SOL     OW96907  10.330   2.603   0.270 -0.0328  0.0239 -0.3898
28310SOL    HW196908  10.399   2.586   0.206 -0.7468  1.2059 -1.5448
28310SOL    HW296909  10.268   2.659   0.223 -0.6041  0.9234  1.3528
28311SOL     OW96910   6.046   3.473   9.891 -0.1338  0.9245  0.2736
28311SOL    HW196911   6.130   3.520   9.885  0.2966  0.4545  1.9797
28311SOL    HW296912   6.009   3.480   9.804  1.9193  0.7223 -0.6867
28312SOL     OW96913   8.232   6.577   8.160 -0.0158  0.3199 -0.0328
28312SOL    HW196914   8.318   6.555   8.195 -0.9832  1.9760  3.9608
28312SOL    HW296915   8.209   6.503   8.104  4.0879  0.0495 -1.6741
28313SOL     OW96916   8.361   7.179   2.666  0.0539 -0.2108 -0.0920
28313SOL    HW196917   8.325   7.114   2.726 -3.3959  2.2861  0.8965
28313SOL    HW296918   8.415   7.235   2.721  0.2917 -0.3176 -0.2179
28314SOL     OW96919   2.282   7.945   7.417  0.7063 -0.1972 -0.4647
28314SOL    HW196920   2.339   7.936   7.341  1.7289 -1.3287  0.3880
28314SOL    HW296921   2.335   7.914   7.490 -0.0779  1.3317  0.8099
28315SOL     OW96922  10.096   5.979   6.367  0.3049  0.0519 -0.4917
28315SOL    HW196923  10.013   6.016   6.337  0.5613 -0.1491 -1.4960
28315SOL    HW296924  10.116   6.026   6.448 -0.9684 -0.1600 -0.0369
28316SOL     OW96925   6.853   8.878   7.444  0.3383 -0.3008 -0.0745
28316SOL    HW196926   6.817   8.966   7.432  2.0547  0.5800  0.7074
28316SOL    HW296927   6.823   8.851   7.531 -1.2568 -1.0746 -0.8327
28317SOL     OW96928   0.423   5.348   0.209  0.9300  0.0049  0.3161
28317SOL    HW196929   0.357   5.407   0.245  0.7102 -0.8500  1.3590
28317SOL    HW296930   0.373   5.277   0.169  1.2014 -0.1557  0.2600
28318SOL     OW96931   3.942   9.481   3.822  0.2235  0.0742 -0.0051
28318SOL    HW196932   4.022   9.521   3.788  0.1499 -0.0375 -0.3162
28318SOL    HW296933   3.972   9.403   3.870  0.3989  0.6975  0.9203
28319SOL     OW96934   9.774   1.385   5.506  0.2169  0.5770 -0.0037
28319SOL    HW196935   9.832   1.312   5.483 -2.1500 -0.9345 -1.6729
28319SOL    HW296936   9.816   1.462   5.467  1.4149 -0.3643 -0.6341
28320SOL     OW96937   4.589   2.548   3.056  0.1994 -0.1106 -0.4232
28320SOL    HW196938   4.562   2.529   2.966 -0.0587 -2.4913  0.0862
28320SOL    HW296939   4.684   2.538   3.055  0.2240  0.1347 -0.4934
28321SOL     OW96940   4.178   5.098   5.625  0.4951  0.1772 -0.1312
28321SOL    HW196941   4.086   5.092   5.599 -0.4000  0.4402  2.7082
28321SOL    HW296942   4.226   5.089   5.542 -2.0091 -0.9385 -1.5846
28322SOL     OW96943   7.914   5.146   8.918 -0.4697  0.2064  0.1074
28322SOL    HW196944   7.836   5.094   8.899  0.1167 -0.4506 -0.5807
28322SOL    HW296945   7.888   5.204   8.990 -1.0383 -1.2736  1.1333
28323SOL     OW96946   3.106   7.582   7.308  0.1357 -0.0017 -0.5360
28323SOL    HW196947   3.059   7.635   7.372 -1.1425 -0.5573 -0.9781
28323SOL    HW296948   3.096   7.492   7.339 -0.3434 -0.2608 -1.4013
28324SOL     OW96949   6.957   0.368   0.446  0.2330  0.1724  0.0834
28324SOL    HW196950   7.031   0.423   0.418  0.3763 -0.3894 -0.6946
28324SOL    HW296951   6.942   0.310   0.371 -1.4182  0.6994 -0.0224
28325SOL     OW96952   8.260   1.401   2.673  0.0171  0.2125 -0.6559
28325SOL    HW196953   8.310   1.320   2.683 -0.0141  0.3295  0.5589
28325SOL    HW296954   8.324   1.464   2.639  0.9124  0.5240  1.4491
28326SOL     OW96955   7.757   9.616   9.165  0.6187  0.7138  0.1570
28326SOL    HW196956   7.788   9.680   9.101  0.1281  1.5089  0.7000
28326SOL    HW296957   7.670   9.647   9.191 -0.1765 -0.8592 -0.4898
28327SOL     OW96958   8.006   9.396   7.795  0.5377  0.5237  0.2535
28327SOL    HW196959   8.030   9.319   7.745  1.7211  1.4053 -0.5835
28327SOL    HW296960   7.913   9.410   7.774  0.0272 -1.1771  1.1578
28328SOL     OW96961   6.880   2.852   9.382 -0.0001  0.0416 -0.1514
28328SOL    HW196962   6.911   2.787   9.444  0.4356 -1.2084 -1.6151
28328SOL    HW296963   6.803   2.812   9.340  0.8988 -0.0335 -1.8239
28329SOL     OW96964   7.605   9.162   3.756  0.1525 -0.5381  0.0234
28329SOL    HW196965   7.589   9.208   3.673 -0.0446  1.0058  0.8663
28329SOL    HW296966   7.700   9.152   3.760  0.3447  1.0601  0.4063
28330SOL     OW96967   2.012   5.060   8.811 -0.1956  0.1553  0.8953
28330SOL    HW196968   2.050   5.147   8.824 -0.0673  0.1986  0.2441
28330SOL    HW296969   2.052   5.006   8.879  0.7086  0.3030  0.4998
28331SOL     OW96970   3.625   5.865   0.708 -0.3719  0.1973 -0.0391
28331SOL    HW196971   3.680   5.928   0.756  0.1533  0.8177 -1.3922
28331SOL    HW296972   3.550   5.916   0.679 -0.9019 -0.2800  0.4837
28332SOL     OW96973   8.677   8.029   2.638 -0.2699  0.0897  0.0855
28332SOL    HW196974   8.744   8.093   2.665  0.5528 -0.4277 -0.6458
28332SOL    HW296975   8.628   8.074   2.569 -1.5736  0.9592  1.5162
28333SOL     OW96976   9.970   3.284   6.060 -0.2315  0.7398 -0.0340
28333SOL    HW196977  10.010   3.314   5.978  0.7683 -0.5438 -0.0360
28333SOL    HW296978   9.945   3.365   6.104  0.9802  1.5440 -0.7377
28334SOL     OW96979   1.674   2.543   7.109 -0.0282  0.1531  0.0745
28334SOL    HW196980   1.631   2.482   7.050  0.4792  0.1670 -0.3176
28334SOL    HW296981   1.765   2.513   7.113  0.2067  0.8159 -0.0508
28335SOL     OW96982   3.087   4.070   9.638 -0.0843 -0.2445 -0.3519
28335SOL    HW196983   3.145   4.082   9.563 -1.3536 -1.8850 -1.6845
28335SOL    HW296984   3.143   4.031   9.705  1.0386  1.1094 -0.4609
28336SOL     OW96985   6.547   4.638   2.464 -0.1463 -0.2031 -0.3569
28336SOL    HW196986   6.546   4.726   2.425  0.5996  0.0538  0.1808
28336SOL    HW296987   6.551   4.654   2.558 -0.9539 -0.8219 -0.2033
28337SOL     OW96988   6.353   2.642   6.887 -0.0218 -0.8110  0.2590
28337SOL    HW196989   6.261   2.624   6.905 -0.2445  1.1650  1.3949
28337SOL    HW296990   6.400   2.597   6.957 -0.4238  1.0741  1.8257
28338SOL     OW96991  10.278   3.263   1.502  0.1462  0.1232 -0.1357
28338SOL    HW196992  10.184   3.252   1.490  0.0649  1.0205 -0.3911
28338SOL    HW296993  10.290   3.356   1.519  1.2429  0.5116 -2.5953
28339SOL     OW96994   2.244  10.197   4.117 -0.5590 -0.3921 -0.1234
28339SOL    HW196995   2.239  10.251   4.037  0.0333  0.6075  0.4818
28339SOL    HW296996   2.338  10.195   4.138 -0.7464 -0.3033  0.7629
28340SOL     OW96997   8.592   2.373   8.040 -0.0242 -0.8286  0.0525
28340SOL    HW196998   8.511   2.414   8.009 -0.7114 -2.2235 -0.0708
28340SOL    HW296999   8.564   2.307   8.103  1.1820  0.0614  1.5849
28341SOL     OW97000   3.999   5.421   2.201  0.0377  0.0933 -0.3758
28341SOL    HW197001   4.058   5.430   2.277 -0.5427 -0.7055  0.1884
28341SOL    HW297002   3.913   5.446   2.235 -0.1440  0.1871 -0.9026
28342SOL     OW97003   7.180   8.939   3.700 -0.1490  0.6527  0.5901
28342SOL    HW197004   7.139   9.004   3.643  2.5910  1.4746 -0.6272
28342SOL    HW297005   7.187   8.861   3.646  2.1709  1.3381 -0.2196
28343SOL     OW97006   8.161   3.318   9.907  0.3543 -0.0529  0.0144
28343SOL    HW197007   8.167   3.225   9.887  1.2806  0.4035 -2.1254
28343SOL    HW297008   8.246   3.353   9.882 -0.6759  1.6939 -1.3277
28344SOL     OW97009   2.499   7.251   1.969  0.2318  0.0252  0.3423
28344SOL    HW197010   2.421   7.244   1.913  0.8618  0.0644 -0.5683
28344SOL    HW297011   2.472   7.309   2.040 -0.4125  0.4791 -0.2537
28345SOL     OW97012  10.019   2.682   6.305  0.4468  0.2495 -0.0267
28345SOL    HW197013  10.000   2.696   6.212 -1.2152 -0.3298  0.1959
28345SOL    HW297014   9.992   2.763   6.348 -0.8865 -0.2800  0.1905
28346SOL     OW97015   0.364   5.784   8.313  0.3650  0.0818 -0.7370
28346SOL    HW197016   0.302   5.775   8.385  0.7928 -0.9442 -0.4751
28346SOL    HW297017   0.377   5.878   8.303  0.0134  0.2419  0.2713
28347SOL     OW97018   9.972   3.948   2.487  0.6604  0.3516  0.0780
28347SOL    HW197019   9.988   3.890   2.562 -1.1494  0.3413  0.4866
28347SOL    HW297020  10.060   3.966   2.453  1.3779 -1.4093  0.8454
28348SOL     OW97021   4.196   1.505   6.667  0.6690  0.1696  0.7351
28348SOL    HW197022   4.145   1.452   6.605 -0.9244  0.7397  1.5066
28348SOL    HW297023   4.235   1.573   6.612  0.1788  0.0266  0.1932
28349SOL     OW97024   8.911   2.575   8.787 -0.2572 -0.3726  0.5271
28349SOL    HW197025   8.831   2.566   8.839  0.7527  2.0346  2.7491
28349SOL    HW297026   8.904   2.662   8.747  2.1056  0.9533  2.6537
28350SOL     OW97027   9.178   0.082   9.578  0.1889  0.2028  0.1492
28350SOL    HW197028   9.105   0.138   9.554  1.1911  1.7288  0.4969
28350SOL    HW297029   9.221   0.129   9.650  1.5884 -0.5678 -0.1558
28351SOL     OW97030   0.316   9.251   2.535  0.1568  0.1845 -0.8236
28351SOL    HW197031   0.343   9.291   2.618  0.3284 -1.8334  0.1455
28351SOL    HW297032   0.355   9.163   2.537 -2.1474 -0.9368 -1.7610
28352SOL     OW97033   1.522   1.297   0.441  0.4243  0.0375  0.3039
28352SOL    HW197034   1.593   1.304   0.505 -1.1667 -0.6804  2.2656
28352SOL    HW297035   1.455   1.358   0.472 -0.9469 -1.3309  0.1561
28353SOL     OW97036   9.197   4.530   8.755 -0.3229 -0.2470  0.2532
28353SOL    HW197037   9.182   4.441   8.721 -0.8503 -0.0504 -0.0485
28353SOL    HW297038   9.189   4.586   8.678  0.8765 -0.0069  0.2835
28354SOL     OW97039   3.113   7.579   7.938  0.3668 -0.4272  0.1525
28354SOL    HW197040   3.189   7.592   7.994  0.4048 -2.8629  0.7938
28354SOL    HW297041   3.142   7.516   7.872 -0.4175  0.4722 -1.0961
28355SOL     OW97042   7.156   6.667   9.109  0.6183 -0.2494 -0.0239
28355SOL    HW197043   7.166   6.588   9.162 -0.6595 -0.0934  0.4880
28355SOL    HW297044   7.216   6.655   9.035 -2.3627 -3.5758 -2.1893
28356SOL     OW97045   9.388   9.508   2.504 -0.1844  0.4459  0.1284
28356SOL    HW197046   9.347   9.522   2.589 -1.8180  2.1155 -0.8685
28356SOL    HW297047   9.454   9.577   2.498  1.0615 -0.6546  0.6556
28357SOL     OW97048   0.009   8.106   9.577  0.2128  0.2609  0.1733
28357SOL    HW197049  -0.063   8.101   9.639  0.7373 -0.2946  0.7506
28357SOL    HW297050  -0.033   8.102   9.491 -0.4119 -0.5252  0.5061
28358SOL     OW97051   7.930   8.712   7.485 -0.2044 -0.4301 -0.0185
28358SOL    HW197052   7.976   8.672   7.411  0.2117 -0.4047  0.2227
28358SOL    HW297053   7.972   8.798   7.496  1.7660 -1.5269  2.0540
28359SOL     OW97054   1.571   9.928   3.881  0.0547 -0.4508  0.2612
28359SOL    HW197055   1.623  10.003   3.909 -0.7973 -0.3056  1.5404
28359SOL    HW297056   1.635   9.866   3.847  0.7245  1.0720 -1.4099
28360SOL     OW97057   7.610   1.541   4.416 -0.7349  0.1381  0.1504
28360SOL    HW197058   7.547   1.546   4.489  0.7673 -0.8688  1.5827
28360SOL    HW297059   7.672   1.473   4.442  0.6517  0.7100 -1.4621
28361SOL     OW97060   0.168   1.590   2.347  0.2776 -0.2428 -0.3292
28361SOL    HW197061   0.148   1.666   2.293  0.6731 -0.2977 -0.5562
28361SOL    HW297062   0.173   1.517   2.285  1.0222 -0.2564 -0.2616
28362SOL     OW97063   0.012   5.672   7.081 -0.4723 -0.7360 -0.2647
28362SOL    HW197064   0.093   5.723   7.087 -1.3829  1.2702 -3.1533
28362SOL    HW297065  -0.028   5.680   7.168  0.8510  1.0364  0.2379
28363SOL     OW97066   2.034   6.392   3.690 -0.1539 -0.0452  0.2279
28363SOL    HW197067   2.039   6.302   3.722 -1.6866  0.2348  1.3518
28363SOL    HW297068   2.108   6.437   3.731  0.0160 -0.5574  0.4853
28364SOL     OW97069   0.448   5.864   9.437  0.1109 -0.3112 -0.2291
28364SOL    HW197070   0.533   5.828   9.411 -0.1383 -0.0773 -1.3808
28364SOL    HW297071   0.387   5.832   9.371 -0.5764  0.1272  0.1824
28365SOL     OW97072   6.859   6.377   5.093 -0.5341  0.3938 -0.2179
28365SOL    HW197073   6.868   6.339   5.180  1.2342 -1.1886 -1.0275
28365SOL    HW297074   6.913   6.456   5.095 -2.0646  1.4722  0.6562
28366SOL     OW97075   1.883   8.259   4.432 -0.2683  0.6612  0.5673
28366SOL    HW197076   1.957   8.214   4.391 -0.2234  1.0482  0.2173
28366SOL    HW297077   1.811   8.250   4.369 -1.2712 -1.8049  1.9009
28367SOL     OW97078   2.825   7.491   9.186  0.3055  0.4513  0.6468
28367SOL    HW197079   2.795   7.501   9.277  0.9169  0.3430  0.8674
28367SOL    HW297080   2.761   7.433   9.146 -0.1592  0.7655  0.9116
28368SOL     OW97081   8.706   0.955   4.464 -0.1139  0.2963  0.2556
28368SOL    HW197082   8.726   1.040   4.503 -0.0924  0.1433  0.5780
28368SOL    HW297083   8.726   0.966   4.371  0.5269  0.4483  0.4033
28369SOL     OW97084   1.623   0.820   2.500 -0.1053 -0.2682  0.0475
28369SOL    HW197085   1.598   0.748   2.442  0.9754 -2.0160  1.6271
28369SOL    HW297086   1.662   0.776   2.576  1.3855  2.0329  0.6971
28370SOL     OW97087   9.476   5.268   0.979 -0.0411 -0.3273 -0.0802
28370SOL    HW197088   9.484   5.360   1.005  1.0669 -1.1300  2.7726
28370SOL    HW297089   9.553   5.252   0.925  0.7638 -0.0086  0.9430
28371SOL     OW97090   0.726   2.850   8.985  0.4071  0.3680 -0.6257
28371SOL    HW197091   0.638   2.838   9.018  0.5869  2.0758  0.6106
28371SOL    HW297092   0.715   2.863   8.891 -0.8337  1.9827 -0.2928
28372SOL     OW97093   4.095  10.113   2.002 -0.6063  0.0659 -0.5181
28372SOL    HW197094   4.147  10.188   1.972  1.6634 -0.2042  2.2958
28372SOL    HW297095   4.016  10.151   2.039  1.3035  1.4041  2.5194
28373SOL     OW97096   6.073   2.317   8.298  0.2332  0.1004 -0.1257
28373SOL    HW197097   6.116   2.380   8.241 -0.6899  0.2284 -0.6945
28373SOL    HW297098   6.003   2.367   8.340  0.4092 -0.1908  0.5218
28374SOL     OW97099   9.250   4.362   2.146 -0.1557 -0.1269 -0.7689
28374SOL    HW197100   9.259   4.282   2.094  1.1605 -1.5767  1.4943
28374SOL    HW297101   9.337   4.400   2.148 -0.4333  0.5174 -0.5607
28375SOL     OW97102   7.506   9.733   9.175 -0.2438  0.5774 -0.2949
28375SOL    HW197103   7.423   9.688   9.161 -1.0394  1.6114  0.8893
28375SOL    HW297104   7.483   9.826   9.173  1.0098  0.8946 -0.6263
28376SOL     OW97105   6.193   7.268   7.398  0.1064  0.0124 -0.0392
28376SOL    HW197106   6.270   7.231   7.355 -0.4290 -0.8616 -0.2745
28376SOL    HW297107   6.229   7.334   7.458  0.8630  1.4213 -1.9173
28377SOL     OW97108   1.112   6.564   9.882  0.6098  0.4483 -0.2567
28377SOL    HW197109   1.055   6.592   9.810 -0.1351  0.2008  0.2272
28377SOL    HW297110   1.074   6.606   9.960 -0.6055 -1.9030  0.5165
28378SOL     OW97111   1.648   6.718   6.479 -0.1111 -0.0978 -0.2951
28378SOL    HW197112   1.563   6.686   6.508  0.3553 -1.1384 -0.0494
28378SOL    HW297113   1.712   6.665   6.527  0.6790 -0.4704 -1.6983
28379SOL     OW97114   4.288   3.119   6.639 -0.3205 -0.2518 -0.0852
28379SOL    HW197115   4.261   3.153   6.725 -0.5237  0.2254 -0.3353
28379SOL    HW297116   4.302   3.197   6.586 -0.8259 -0.5595 -0.6868
28380SOL     OW97117   4.186  10.084   4.088  0.1295  0.0674 -0.0512
28380SOL    HW197118   4.148   9.998   4.107 -0.1818  0.0882 -0.5709
28380SOL    HW297119   4.116  10.132   4.042 -0.2056  1.0923  1.4400
28381SOL     OW97120   9.711   9.987   2.494 -0.3166  0.7234 -0.1456
28381SOL    HW197121   9.797   9.960   2.460  0.0812  1.6163  0.1128
28381SOL    HW297122   9.662   9.906   2.503  0.2793  0.2678 -0.9242
28382SOL     OW97123   6.638   9.154   8.639  0.4249 -0.3648  0.8273
28382SOL    HW197124   6.574   9.188   8.701  1.3835 -0.2561  1.7913
28382SOL    HW297125   6.592   9.084   8.592 -0.6429  0.2799  0.9027
28383SOL     OW97126   0.325   0.475   7.067 -0.4386 -0.1809  0.2953
28383SOL    HW197127   0.246   0.506   7.023 -0.2859 -0.3482 -0.1081
28383SOL    HW297128   0.295   0.443   7.152 -0.4282  2.3632  1.3561
28384SOL     OW97129   3.355   3.590   5.788  0.2400  0.0980  0.2408
28384SOL    HW197130   3.349   3.665   5.729 -0.2743  0.4873  0.7774
28384SOL    HW297131   3.270   3.587   5.832 -0.2279 -1.5663 -0.6824
28385SOL     OW97132   4.987   0.124   2.931  0.2590 -0.2130  0.4510
28385SOL    HW197133   5.076   0.160   2.924 -0.3244  0.9177 -2.4965
28385SOL    HW297134   4.993   0.039   2.888  0.4436 -1.3960  2.6867
28386SOL     OW97135   8.397   8.547   7.892 -0.2111  0.5366  0.5286
28386SOL    HW197136   8.305   8.521   7.898  0.0135 -0.2407  0.8145
28386SOL    HW297137   8.433   8.524   7.978 -0.0168  1.9649  0.8589
28387SOL     OW97138   2.004   9.480   2.065 -0.1015 -0.8584 -0.1039
28387SOL    HW197139   2.020   9.505   1.974  0.2859 -0.7948 -0.0197
28387SOL    HW297140   1.912   9.454   2.067 -0.8310  1.5524  0.0229
28388SOL     OW97141   1.020   3.954   7.929 -0.0423  0.2990 -0.8151
28388SOL    HW197142   0.958   3.962   8.002  0.1241  0.6958 -0.7163
28388SOL    HW297143   0.976   3.895   7.867  0.0057 -0.3950 -0.2006
28389SOL     OW97144   2.593   0.064   2.485  0.2412  0.4382  0.1528
28389SOL    HW197145   2.653   0.116   2.430 -0.0769  2.0483  1.2604
28389SOL    HW297146   2.567   0.124   2.555 -0.5051 -1.1145  1.2515
28390SOL     OW97147   6.127   2.496   0.221  0.0637  0.2514  0.1371
28390SOL    HW197148   6.054   2.555   0.204  1.0331  1.6600  0.6227
28390SOL    HW297149   6.134   2.493   0.317 -0.8075 -1.7877  0.1938
28391SOL     OW97150   2.315   9.565   1.937  0.7824  0.2023 -0.1091
28391SOL    HW197151   2.299   9.480   1.896 -0.2462  1.0156 -1.5058
28391SOL    HW297152   2.228   9.600   1.954  1.1816  1.1643  0.0156
28392SOL     OW97153   9.873   9.116   1.760 -0.1772 -0.0607  0.2388
28392SOL    HW197154   9.832   9.183   1.815 -1.2825  0.5479 -1.2511
28392SOL    HW297155   9.961   9.105   1.797 -0.5757  0.9542  1.5652
28393SOL     OW97156   6.508   4.000   7.097  0.1388  0.1305  0.0965
28393SOL    HW197157   6.533   3.992   7.189 -0.3630 -2.7216  0.0652
28393SOL    HW297158   6.415   4.022   7.100  0.1517  0.1671  0.2491
28394SOL     OW97159   0.809   3.722   0.395 -0.3725 -0.6916 -0.2206
28394SOL    HW197160   0.720   3.741   0.426 -0.7040 -0.0117 -1.5108
28394SOL    HW297161   0.857   3.804   0.407 -0.7925 -0.0631 -2.3570
28395SOL     OW97162   1.702   7.090   9.777 -0.4776  0.0223 -0.3344
28395SOL    HW197163   1.625   7.095   9.835 -0.1394  1.2726  0.0492
28395SOL    HW297164   1.776   7.098   9.837  0.1072 -3.6192 -0.4012
28396SOL     OW97165   9.246   6.553   3.760  0.0634  0.2925  0.6350
28396SOL    HW197166   9.274   6.639   3.728  0.4448 -0.3499 -0.8416
28396SOL    HW297167   9.217   6.569   3.850  0.3500  1.9158  0.4672
28397SOL     OW97168   6.036   3.745   3.898 -0.3852  0.1032 -0.2024
28397SOL    HW197169   6.012   3.788   3.816 -2.6385  0.5417  0.6060
28397SOL    HW297170   5.997   3.657   3.892 -2.5264  0.8662  1.1906
28398SOL     OW97171   5.904   2.553   6.926  0.4400  0.0505  0.3879
28398SOL    HW197172   5.931   2.575   6.837 -3.8962 -0.0044 -1.1951
28398SOL    HW297173   5.957   2.478   6.950  1.3337 -0.3249 -2.4186
28399SOL     OW97174   4.124   1.779   2.876 -0.0452  0.0121  0.8597
28399SOL    HW197175   4.115   1.837   2.800 -0.9930 -0.5722  0.5074
28399SOL    HW297176   4.043   1.792   2.926 -0.8085 -1.7868  0.1964
28400SOL     OW97177   0.177   2.250   4.881  0.0674 -0.5122 -0.5255
28400SOL    HW197178   0.230   2.253   4.801 -0.7779  0.6526 -1.0654
28400SOL    HW297179   0.089   2.271   4.853 -0.2805 -0.2301  0.6932
28401SOL     OW97180   0.643   1.193   8.087 -0.1428  0.1141  0.1340
28401SOL    HW197181   0.700   1.269   8.103  2.1654 -1.6391  0.8152
28401SOL    HW297182   0.677   1.125   8.145 -1.8621 -1.5965 -0.7458
28402SOL     OW97183   9.972   8.271   0.114 -0.2411 -0.1097  0.0093
28402SOL    HW197184  10.010   8.321   0.186 -2.3291  2.3639 -0.4650
28402SOL    HW297185  10.028   8.292   0.039  0.3259 -0.4755  0.3256
28403SOL     OW97186   1.546   6.265   6.077 -0.2551  0.0217 -0.3370
28403SOL    HW197187   1.523   6.240   6.166 -0.9178  1.0379 -0.2053
28403SOL    HW297188   1.639   6.289   6.082  0.1406 -1.4698 -0.2800
28404SOL     OW97189   8.576   8.121   1.932  0.2030 -0.0272  0.2025
28404SOL    HW197190   8.555   8.173   2.009  0.0614 -0.6665  0.6104
28404SOL    HW297191   8.671   8.110   1.936  0.0686 -1.0982  0.9934
28405SOL     OW97192   6.386   4.628   7.074  0.0864  0.0216  0.1566
28405SOL    HW197193   6.401   4.626   7.169  0.9145  2.8945  0.1780
28405SOL    HW297194   6.292   4.645   7.065 -0.4565 -2.4819  0.3360
28406SOL     OW97195   4.908   2.315   6.517  0.6996  0.2361  0.0588
28406SOL    HW197196   4.904   2.365   6.436  3.0512  0.7399  0.1900
28406SOL    HW297197   4.986   2.347   6.562  0.4543 -1.2740  1.6936
28407SOL     OW97198  10.156   4.989   7.997  0.1273 -0.5665  0.4169
28407SOL    HW197199  10.083   4.968   8.056 -1.8429  1.8340 -0.9881
28407SOL    HW297200  10.114   5.018   7.916  2.6412  1.3993 -0.2987
28408SOL     OW97201   8.089   7.805   2.966  0.4011 -0.1936  0.3065
28408SOL    HW197202   8.151   7.875   2.985 -0.8590  1.3883 -1.1007
28408SOL    HW297203   8.014   7.849   2.925 -0.7971 -2.2684  0.0996
28409SOL     OW97204   6.813   4.584   8.986  0.1958 -0.3674  0.4049
28409SOL    HW197205   6.799   4.491   9.008 -1.0948 -0.7827 -1.8425
28409SOL    HW297206   6.724   4.619   8.977  0.5897  0.0650 -2.5707
28410SOL     OW97207   6.978   0.540   8.216 -0.3051 -0.1087  0.4437
28410SOL    HW197208   7.060   0.589   8.217 -0.6697  0.5988 -0.8373
28410SOL    HW297209   6.919   0.593   8.270 -0.6892  0.9152 -0.9130
28411SOL     OW97210   3.705   1.362   3.829  0.3982  0.4644  0.5308
28411SOL    HW197211   3.717   1.354   3.735 -1.2774 -1.3370  0.4067
28411SOL    HW297212   3.793   1.352   3.866  1.1657  1.8067 -0.8222
28412SOL     OW97213   0.742   5.360   4.131  0.4267  0.1659 -0.8087
28412SOL    HW197214   0.772   5.433   4.185 -0.3703  0.4930 -0.7906
28412SOL    HW297215   0.787   5.373   4.047  0.4854  0.5401 -0.7215
28413SOL     OW97216   0.752   7.624   1.854 -0.3694 -0.2664  0.5626
28413SOL    HW197217   0.823   7.580   1.900 -1.1443 -0.9777  1.1137
28413SOL    HW297218   0.732   7.700   1.909  0.1850  0.1305  0.2255
28414SOL     OW97219   0.354   2.970   6.567 -0.3165 -0.0778 -0.4440
28414SOL    HW197220   0.339   3.025   6.490  0.8440 -0.9709 -1.3367
28414SOL    HW297221   0.444   2.991   6.595 -1.6421  2.5295  2.6205
28415SOL     OW97222   5.337   0.626   6.172 -0.5133  0.0517 -0.3341
28415SOL    HW197223   5.280   0.663   6.240  0.5900 -1.9619  1.8231
28415SOL    HW297224   5.425   0.636   6.206  0.1632 -0.3423 -1.8748
28416SOL     OW97225   2.204   2.213   2.811 -0.1177 -0.2223  0.5877
28416SOL    HW197226   2.115   2.179   2.820 -0.0843 -0.3692  0.3524
28416SOL    HW297227   2.249   2.149   2.758  0.0087  0.0771  0.3318
28417SOL     OW97228   2.928   2.546   5.880  0.1807 -0.2164 -0.0833
28417SOL    HW197229   2.925   2.619   5.818  1.9955  0.3977  0.4825
28417SOL    HW297230   2.962   2.473   5.828 -1.0538 -0.5172 -0.4982
28418SOL     OW97231   4.367   9.163   8.117 -0.2685 -0.4475 -0.1590
28418SOL    HW197232   4.409   9.249   8.123 -1.3386  0.1570 -0.9618
28418SOL    HW297233   4.293   9.168   8.178  0.1411 -1.1044  0.4074
28419SOL     OW97234   9.058   3.181   5.661 -0.1262  0.1361  0.3281
28419SOL    HW197235   9.142   3.197   5.703 -0.0027 -1.4497  0.7473
28419SOL    HW297236   9.061   3.089   5.635 -1.0898  0.4867 -1.1495
28420SOL     OW97237   1.172   8.111   3.400  0.0395 -0.6065 -0.0119
28420SOL    HW197238   1.173   8.138   3.492 -0.7079  2.0225 -0.6896
28420SOL    HW297239   1.145   8.190   3.352 -2.1459 -2.5457 -2.2635
28421SOL     OW97240   0.424   3.864   9.466  0.3879 -0.2454 -0.4567
28421SOL    HW197241   0.476   3.790   9.435 -1.3612 -1.2518 -1.1649
28421SOL    HW297242   0.354   3.825   9.518 -2.3473  0.4999 -3.2436
28422SOL     OW97243   3.294   2.699   6.609  0.3599 -0.1386  0.0900
28422SOL    HW197244   3.382   2.663   6.620 -0.4755 -1.9656  1.1657
28422SOL    HW297245   3.254   2.693   6.696 -0.9493  0.3362 -0.4507
28423SOL     OW97246   7.247   0.003   1.690  0.2641  0.1435  0.2264
28423SOL    HW197247   7.152  -0.011   1.691  0.3264 -0.2948  0.5887
28423SOL    HW297248   7.279  -0.052   1.761  0.9536 -0.9076 -0.8649
28424SOL     OW97249   6.430   2.521   5.940 -0.4116 -0.5213 -0.7127
28424SOL    HW197250   6.441   2.595   5.880 -0.6565  0.3279  0.2616
28424SOL    HW297251   6.405   2.561   6.023 -1.5277 -1.7702 -0.4178
28425SOL     OW97252   9.239   9.413   7.486 -0.2392  0.5251  0.0416
28425SOL    HW197253   9.253   9.422   7.392  0.8064  1.8741  0.2866
28425SOL    HW297254   9.252   9.320   7.504 -0.4327  0.2513 -1.1392
28426SOL     OW97255   5.521   1.897   8.970  0.1286  0.3217  0.7278
28426SOL    HW197256   5.440   1.938   9.002  1.5762  2.0087  2.5020
28426SOL    HW297257   5.548   1.840   9.042  1.0869  0.6707  0.6611
28427SOL     OW97258   2.476   9.297   8.320  0.1228 -0.3958  0.0784
28427SOL    HW197259   2.452   9.369   8.261 -0.8705 -0.9297 -0.2031
28427SOL    HW297260   2.555   9.259   8.281  0.3179  0.1746 -0.0897
28428SOL     OW97261   1.411   6.583   5.902  0.7174 -0.0598  0.3193
28428SOL    HW197262   1.416   6.526   5.825 -0.3977 -0.1007  0.2654
28428SOL    HW297263   1.503   6.603   5.923  1.0650 -0.7558 -0.4861
28429SOL     OW97264   3.548   4.297   7.005 -0.2927  0.4731  0.0283
28429SOL    HW197265   3.471   4.260   6.961  0.3521  0.7620 -1.3941
28429SOL    HW297266   3.517   4.318   7.093 -1.6967  0.0866 -0.3432
28430SOL     OW97267   0.470   2.106   9.889 -0.1241 -0.4031 -0.5031
28430SOL    HW197268   0.435   2.172   9.949 -0.4101  0.5519 -1.6656
28430SOL    HW297269   0.394   2.053   9.865  0.0529 -0.9827  0.2257
28431SOL     OW97270   3.892   1.889   4.324  0.0443 -0.1884  0.0640
28431SOL    HW197271   3.973   1.849   4.294 -0.1431 -1.5224  1.2176
28431SOL    HW297272   3.836   1.892   4.247  0.2761 -1.6734 -0.1953
28432SOL     OW97273   4.636   9.324   4.383  0.1448  0.1091  0.0939
28432SOL    HW197274   4.688   9.244   4.392  0.4525  0.1662 -0.9912
28432SOL    HW297275   4.572   9.303   4.315  1.6216  1.4432 -1.8152
28433SOL     OW97276   5.427   3.464   5.580 -0.1865  0.0388 -0.4186
28433SOL    HW197277   5.418   3.539   5.521  2.8677 -1.1907 -2.7024
28433SOL    HW297278   5.493   3.492   5.643  1.0156 -0.6729 -1.3207
28434SOL     OW97279   8.275   0.987   7.558  0.1941  0.0821  0.2991
28434SOL    HW197280   8.326   1.001   7.637 -0.3429  0.8867  0.5167
28434SOL    HW297281   8.230   1.070   7.544 -0.9243 -0.5542  0.0188
28435SOL     OW97282   5.647   1.484   7.261 -0.2215  0.3947  0.1901
28435SOL    HW197283   5.725   1.469   7.208 -0.3306 -0.4089  0.2453
28435SOL    HW297284   5.575   1.481   7.199 -0.2213  1.0047  0.1585
28436SOL     OW97285   0.947   6.654   4.851  0.0892  0.7931 -0.1534
28436SOL    HW197286   0.876   6.600   4.885 -0.0205 -0.7342 -2.5401
28436SOL    HW297287   0.921   6.744   4.871 -1.0563  0.1269  1.5682
28437SOL     OW97288   1.837  10.118  10.056  0.0680 -0.8379 -0.7278
28437SOL    HW197289   1.767  10.177  10.029  0.7887  1.1904  1.4235
28437SOL    HW297290   1.890  10.106   9.977  1.2336  3.5052 -0.8834
28438SOL     OW97291   6.051   1.189   5.941 -0.3729 -0.4255 -0.0928
28438SOL    HW197292   6.105   1.235   5.878 -2.1865  2.2343  0.1366
28438SOL    HW297293   6.081   1.220   6.027 -1.2617 -0.0583  0.0969
28439SOL     OW97294   3.555   8.451   8.194  0.2331 -0.6909  0.3368
28439SOL    HW197295   3.505   8.376   8.162  1.6786 -1.9974  0.9861
28439SOL    HW297296   3.604   8.481   8.117 -1.3063  0.4495 -0.2437
28440SOL     OW97297   0.286   5.073   5.895  0.7297  0.2761  0.2618
28440SOL    HW197298   0.359   5.035   5.845  0.8322 -2.0971  2.0373
28440SOL    HW297299   0.209   5.055   5.842  1.0152 -0.7852  0.1765
28441SOL     OW97300   2.585   7.572   4.139  0.5209  0.3308  0.3969
28441SOL    HW197301   2.592   7.511   4.213  3.8628  1.0155  0.8223
28441SOL    HW297302   2.576   7.658   4.180 -2.1470  0.4255 -0.1786
28442SOL     OW97303   7.282   1.373  10.111  0.0676 -0.6476  0.1413
28442SOL    HW197304   7.289   1.451  10.166 -1.2596 -0.0523 -0.4759
28442SOL    HW297305   7.234   1.403  10.033  0.2888 -1.8890 -0.5006
28443SOL     OW97306   0.111   2.325   2.984  0.5873  0.3616  0.0249
28443SOL    HW197307   0.114   2.420   2.997 -0.1093  0.4075 -0.1002
28443SOL    HW297308   0.054   2.293   3.054 -0.3097  0.2049 -0.7542
28444SOL     OW97309   7.418   0.977   0.185  0.4146 -0.1837 -0.2741
28444SOL    HW197310   7.368   1.058   0.172 -1.0330 -1.0055  0.0452
28444SOL    HW297311   7.476   0.997   0.258 -1.1779  0.0404  0.9927
28445SOL     OW97312   1.195   0.528   2.424  0.2092  0.1026 -0.9415
28445SOL    HW197313   1.121   0.472   2.445 -0.5312  1.5293  0.4547
28445SOL    HW297314   1.271   0.485   2.463 -0.0529 -0.7795 -1.3932
28446SOL     OW97315   7.291   5.970   4.333  0.0589  0.1038  0.1988
28446SOL    HW197316   7.368   5.969   4.390  0.0747 -0.1060  0.1764
28446SOL    HW297317   7.218   5.947   4.390 -0.2789  2.0547  0.6195
28447SOL     OW97318   0.796   2.023   1.943  0.1902  0.3075 -0.0330
28447SOL    HW197319   0.804   1.929   1.927  2.8927  0.4204  0.2485
28447SOL    HW297320   0.747   2.029   2.025  1.2992 -0.9504  0.7721
28448SOL     OW97321   7.462   0.600   0.139  0.6125  0.4455  0.4295
28448SOL    HW197322   7.436   0.670   0.198  2.2771  0.4685  1.1909
28448SOL    HW297323   7.399   0.605   0.067  0.3704  2.3746  0.7124
28449SOL     OW97324   9.662   8.400   1.904 -0.2080  0.0485 -0.4134
28449SOL    HW197325   9.721   8.472   1.882  1.8547 -1.6097 -0.5475
28449SOL    HW297326   9.636   8.417   1.995  4.6395 -1.7204  1.6072
28450SOL     OW97327   4.869   4.266   1.572 -0.3034  0.1910  0.4737
28450SOL    HW197328   4.839   4.356   1.556 -4.0111 -1.1294 -1.0036
28450SOL    HW297329   4.925   4.246   1.498 -0.4077  0.9141  0.1939
28451SOL     OW97330  10.127  10.193   2.859  0.0893  0.3572  0.2891
28451SOL    HW197331  10.076  10.182   2.779 -0.6820  0.8978  0.6873
28451SOL    HW297332  10.130  10.288   2.873  0.8047  0.3066  0.5329
28452SOL     OW97333   2.803   4.562   2.878 -0.4241  0.2310  0.2013
28452SOL    HW197334   2.748   4.510   2.937 -1.1139 -0.4098 -0.9697
28452SOL    HW297335   2.891   4.526   2.890 -1.0219 -1.9064 -1.2645
28453SOL     OW97336   1.981   2.805   1.994  0.0269  0.2388 -0.3555
28453SOL    HW197337   2.025   2.874   2.044 -1.0842  0.4099  0.4322
28453SOL    HW297338   2.044   2.781   1.926  0.9770  1.0709  0.1929
28454SOL     OW97339   8.299   8.097   1.786  0.3468  0.1580  0.5530
28454SOL    HW197340   8.332   8.010   1.766 -1.4850 -0.0861 -1.9908
28454SOL    HW297341   8.377   8.151   1.797  1.5112 -1.6078  1.4193
28455SOL     OW97342   3.871   4.665   9.028 -0.4843  0.0101  0.2222
28455SOL    HW197343   3.860   4.748   8.981 -3.0248 -1.2160 -1.6096
28455SOL    HW297344   3.814   4.604   8.982 -1.2365 -1.9787  3.4468
28456SOL     OW97345   5.695   2.349   5.058  0.1654  0.7203 -0.0905
28456SOL    HW197346   5.776   2.329   5.104  0.6977 -0.5305 -1.4855
28456SOL    HW297347   5.637   2.275   5.078 -1.1032  2.0936  1.7629
28457SOL     OW97348   8.726   6.691  10.187  0.1463 -0.7269 -0.0983
28457SOL    HW197349   8.707   6.775  10.228  0.4273 -0.8964  0.3904
28457SOL    HW297350   8.798   6.710  10.126 -0.0442 -0.5401 -0.2669
28458SOL     OW97351  10.239   9.656   3.481  0.2024 -0.3077  0.8289
28458SOL    HW197352  10.180   9.655   3.405 -0.2215 -0.4981  1.1573
28458SOL    HW297353  10.324   9.630   3.445  0.5747  1.8338 -0.0273
28459SOL     OW97354   9.951   2.016   2.337  0.1301  1.0437 -0.1357
28459SOL    HW197355   9.874   1.989   2.387  1.1571 -1.7900  0.0978
28459SOL    HW297356   9.998   2.075   2.396 -0.7644  1.0743  0.5673
28460SOL     OW97357  10.220   2.740   9.140 -0.2128 -0.2345 -0.1164
28460SOL    HW197358  10.288   2.791   9.185  0.2989  0.3119 -1.4476
28460SOL    HW297359  10.233   2.650   9.170 -0.4814  0.2389  1.4986
28461SOL     OW97360   2.112   8.019   5.328  0.2569  0.1969  0.5677
28461SOL    HW197361   2.086   7.954   5.263 -2.0537  1.1993  0.3860
28461SOL    HW297362   2.108   7.972   5.412  0.0637 -0.2685  0.3030
28462SOL     OW97363   1.499   3.607   7.202  0.9178  0.2968  0.1304
28462SOL    HW197364   1.591   3.617   7.178  0.6580  0.8331 -0.6824
28462SOL    HW297365   1.471   3.695   7.228  0.7718  0.0311  0.8946
28463SOL     OW97366   7.978   8.228   5.995  0.2653  0.0511  0.0727
28463SOL    HW197367   8.045   8.271   6.048  1.3181 -0.0524 -1.1613
28463SOL    HW297368   7.896   8.246   6.042  0.9258  1.6728  0.6601
28464SOL     OW97369   2.149   2.762   8.532 -0.3740  0.3539  0.4448
28464SOL    HW197370   2.077   2.817   8.501 -1.0322 -0.4315  0.5170
28464SOL    HW297371   2.182   2.807   8.610  0.1259  1.4273 -0.3643
28465SOL     OW97372   9.368   9.098   7.073  0.4642  0.0050  0.0296
28465SOL    HW197373   9.347   9.083   6.981 -0.6483 -1.2191  0.4444
28465SOL    HW297374   9.302   9.048   7.121 -0.1733  2.1152  1.5338
28466SOL     OW97375   5.501   0.227   0.762  0.0662 -0.4616 -0.3958
28466SOL    HW197376   5.481   0.314   0.729 -1.8046 -0.6469  0.1421
28466SOL    HW297377   5.553   0.186   0.693  0.7217  0.9515 -0.7789
28467SOL     OW97378   2.254   9.116   0.876 -0.5164  0.1990  0.1644
28467SOL    HW197379   2.303   9.161   0.945  1.6728  0.1462 -1.2592
28467SOL    HW297380   2.213   9.041   0.919 -0.7610  1.1979  1.7398
28468SOL     OW97381   4.428   9.857   2.273 -0.2507  0.2668 -0.5687
28468SOL    HW197382   4.334   9.863   2.258 -0.1769  2.3892 -0.5937
28468SOL    HW297383   4.466   9.857   2.185 -0.1873  1.8232 -0.5742
28469SOL     OW97384   2.767   9.254   9.884 -0.4303 -0.1878  0.0801
28469SOL    HW197385   2.833   9.320   9.908 -0.5175 -0.1332  0.1699
28469SOL    HW297386   2.797   9.173   9.924 -1.6856  0.3441  2.2211
28470SOL     OW97387   3.074   4.412   9.690 -0.1902  0.0218 -0.5410
28470SOL    HW197388   3.148   4.377   9.639  0.3782  0.2658  0.1067
28470SOL    HW297389   3.078   4.506   9.676 -1.0838 -0.0441 -1.4229
28471SOL     OW97390   2.522   0.632   9.022 -0.3504  0.6389  0.1120
28471SOL    HW197391   2.541   0.637   8.929 -1.5955  1.9030 -0.1088
28471SOL    HW297392   2.478   0.548   9.034 -0.1242  0.4440 -0.4212
28472SOL     OW97393   0.859   6.361  10.244  0.3973 -1.2044 -0.7657
28472SOL    HW197394   0.848   6.431  10.308  1.7742 -0.8214 -0.9145
28472SOL    HW297395   0.860   6.281  10.297 -0.7280 -1.0914 -0.5500
28473SOL     OW97396  10.194   1.491   2.363  0.2073  0.7534 -0.5518
28473SOL    HW197397  10.196   1.422   2.296  0.3958  0.5641 -0.3527
28473SOL    HW297398  10.191   1.444   2.446 -1.1991  0.9948 -0.4524
28474SOL     OW97399   4.070   5.841   4.380 -0.3507 -0.1642 -0.5152
28474SOL    HW197400   4.139   5.850   4.447  0.8286 -1.0703 -1.5636
28474SOL    HW297401   4.030   5.756   4.398 -0.6966  0.0270 -0.3713
28475SOL     OW97402   1.442   1.335   7.680 -0.1605  0.1002 -0.0570
28475SOL    HW197403   1.373   1.317   7.617 -0.4221  0.3664  0.1504
28475SOL    HW297404   1.514   1.278   7.654  0.4014  1.4560 -1.6694
28476SOL     OW97405   1.380   3.521   9.493 -0.5407 -0.1789 -0.1424
28476SOL    HW197406   1.358   3.448   9.551  2.0420 -0.2382  0.9409
28476SOL    HW297407   1.439   3.483   9.428  0.9650  0.8898  0.5227
28477SOL     OW97408   7.695   9.844   5.150  0.1918 -0.2999  0.5743
28477SOL    HW197409   7.683   9.863   5.243  0.3890  0.2315  0.4948
28477SOL    HW297410   7.646   9.762   5.136 -0.4936  0.0257  0.9774
28478SOL     OW97411   5.337   6.030   8.704  0.3252 -0.3803  0.0480
28478SOL    HW197412   5.307   6.027   8.795  0.7549  0.3657  0.2271
28478SOL    HW297413   5.280   6.094   8.662  1.1295  0.4608  0.1994
28479SOL     OW97414   0.966   0.832   2.245 -0.1231  0.1410  0.5083
28479SOL    HW197415   1.053   0.871   2.243  1.1881 -2.5406  0.6270
28479SOL    HW297416   0.982   0.737   2.247 -3.0549 -0.4633  0.1832
28480SOL     OW97417   5.502   3.942   9.228 -0.4096 -0.1343 -0.2995
28480SOL    HW197418   5.564   4.005   9.191 -2.3636  2.1831  0.1134
28480SOL    HW297419   5.542   3.915   9.311 -0.4493  2.2994  0.5822
28481SOL     OW97420   1.672   8.717   5.413 -0.1442 -0.3731 -0.1535
28481SOL    HW197421   1.643   8.776   5.344 -1.6742 -2.9122 -1.8683
28481SOL    HW297422   1.754   8.679   5.380 -0.0367 -0.4287  0.1701
28482SOL     OW97423   1.748   0.688   1.341  0.1009 -0.7467 -0.5277
28482SOL    HW197424   1.835   0.656   1.317  1.0818  0.8103  0.7457
28482SOL    HW297425   1.746   0.778   1.311 -0.2581 -0.1253  1.2296
28483SOL     OW97426   1.009   1.142   7.350  0.5325 -0.7094  0.5835
28483SOL    HW197427   0.992   1.052   7.320  1.2504 -1.3962  2.1510
28483SOL    HW297428   0.925   1.186   7.340 -0.1453 -1.8769  0.8726
28484SOL     OW97429   6.658   2.110   8.347  0.1853  0.5674 -0.4478
28484SOL    HW197430   6.661   2.018   8.373  2.5725  0.8404  0.5535
28484SOL    HW297431   6.698   2.112   8.260 -2.0552  0.4328 -1.5522
28485SOL     OW97432   8.809  10.349   2.335 -0.0415 -0.3184 -0.2291
28485SOL    HW197433   8.785  10.436   2.302  2.3722  0.1980 -0.7783
28485SOL    HW297434   8.847  10.366   2.421  1.9223 -0.5740 -0.9921
28486SOL     OW97435   1.364   5.507   7.138  0.2967  0.5339  0.5716
28486SOL    HW197436   1.414   5.427   7.153  1.0171  0.6843 -0.8021
28486SOL    HW297437   1.430   5.570   7.106 -0.7703  0.6756 -1.4942
28487SOL     OW97438   6.973   8.507   6.045  0.1679  0.1755 -0.0828
28487SOL    HW197439   7.053   8.469   6.079 -0.4621 -1.5610 -0.4334
28487SOL    HW297440   6.918   8.432   6.023 -1.7006  1.3052  0.4768
28488SOL     OW97441   0.160   5.302   3.963 -0.3401 -0.1494  0.0741
28488SOL    HW197442   0.079   5.290   3.914 -0.3169 -0.7878  0.1733
28488SOL    HW297443   0.142   5.374   4.023 -0.6031  0.1662 -0.3816
28489SOL     OW97444   2.315   8.347   3.196  0.4009 -0.4030 -0.0667
28489SOL    HW197445   2.379   8.307   3.255  1.2805  0.7095 -0.2295
28489SOL    HW297446   2.351   8.334   3.109 -0.0556 -0.5666 -0.2331
28490SOL     OW97447   4.693   3.747   5.637  0.2803  0.1119  0.5746
28490SOL    HW197448   4.773   3.783   5.675 -0.6342  0.5062  2.1918
28490SOL    HW297449   4.722   3.667   5.591  1.6899  0.6489  0.4798
28491SOL     OW97450   0.530   8.368   3.719  0.1979 -0.0497 -0.0246
28491SOL    HW197451   0.477   8.373   3.798  1.5406 -0.2375  0.9415
28491SOL    HW297452   0.546   8.459   3.694 -1.8716  0.0238 -1.2910
28492SOL     OW97453   7.106  10.019   4.050 -0.2097  0.1956  0.1348
28492SOL    HW197454   7.088   9.932   4.086  1.1864 -0.3808 -0.4859
28492SOL    HW297455   7.185  10.007   3.996 -0.2278  1.7607 -0.2887
28493SOL     OW97456   0.708   2.259   1.824  0.6276 -0.1665  0.3529
28493SOL    HW197457   0.737   2.254   1.733  3.6799  0.3351  1.1852
28493SOL    HW297458   0.726   2.172   1.860  0.1034 -0.1427  0.6882
28494SOL     OW97459   1.280   1.815   3.188 -0.1020 -0.5775  0.5785
28494SOL    HW197460   1.359   1.832   3.240  0.7793  1.2983 -1.2609
28494SOL    HW297461   1.242   1.901   3.174 -1.2676 -1.2362 -0.4653
28495SOL     OW97462   3.584   2.249   9.833 -0.4111 -0.0042  0.2503
28495SOL    HW197463   3.585   2.237   9.738 -1.9873 -1.4376  0.3726
28495SOL    HW297464   3.551   2.338   9.845  0.6983  0.5434 -0.5276
28496SOL     OW97465   9.542   2.653   6.503  0.2977  0.4761  0.4333
28496SOL    HW197466   9.463   2.600   6.503  0.7833 -0.2796  0.0523
28496SOL    HW297467   9.521   2.729   6.557  0.5024 -1.4911  3.4932
28497SOL     OW97468   5.990   5.091   7.299  0.1497 -0.1963  0.0796
28497SOL    HW197469   6.020   5.152   7.231  2.7454 -1.6892 -0.2741
28497SOL    HW297470   5.895   5.092   7.293  0.2409  1.2522 -2.2026
28498SOL     OW97471   8.068   0.993   0.363  0.0121  0.0268 -0.2323
28498SOL    HW197472   8.096   1.001   0.272  0.6976  2.3260  0.1039
28498SOL    HW297473   8.147   1.013   0.414 -0.6001 -0.2381  0.8513
28499SOL     OW97474   1.041   5.936   5.503 -0.0961  0.1162 -0.0703
28499SOL    HW197475   0.945   5.936   5.514 -0.1535  1.2305 -0.4977
28499SOL    HW297476   1.062   5.845   5.482 -1.1483 -0.0155 -0.6318
28500SOL     OW97477   0.091   5.487   3.438  0.1413 -0.1088 -0.0163
28500SOL    HW197478   0.148   5.557   3.469  1.1583 -0.0785 -1.8301
28500SOL    HW297479   0.029   5.530   3.379  0.3714 -0.6377 -0.6556
28501SOL     OW97480   9.569   4.052   4.661 -0.4275  0.1684 -0.0481
28501SOL    HW197481   9.612   3.968   4.648 -0.0742  0.5082 -1.1702
28501SOL    HW297482   9.491   4.049   4.607  0.5716  1.2485 -1.6512
28502SOL     OW97483   9.052   2.472   6.563 -0.2200 -0.1156  0.1253
28502SOL    HW197484   9.007   2.392   6.534  2.3200 -1.6104  0.0623
28502SOL    HW297485   9.025   2.482   6.654 -2.9085  0.7629 -0.6460
28503SOL     OW97486   6.535   1.952   0.558  0.1151  0.0223  0.4603
28503SOL    HW197487   6.507   1.863   0.536 -0.8125  0.2654  0.6034
28503SOL    HW297488   6.575   1.944   0.644  2.2761 -0.6518 -0.5338
28504SOL     OW97489   6.815   7.504   9.880 -0.5645 -0.5954  0.3601
28504SOL    HW197490   6.871   7.580   9.866 -0.5095 -0.4241  1.4319
28504SOL    HW297491   6.857   7.456   9.952 -0.6485 -1.5957 -0.2252
28505SOL     OW97492   7.038   8.743   5.877  0.3070  0.5750 -0.5586
28505SOL    HW197493   7.008   8.674   5.937 -1.4163  0.0604 -1.9125
28505SOL    HW297494   7.119   8.776   5.917 -1.1551  0.8803  2.5015
28506SOL     OW97495   4.738   6.907   7.245  0.1024 -0.0628 -0.1372
28506SOL    HW197496   4.723   6.812   7.244 -0.1368 -0.0517 -1.9764
28506SOL    HW297497   4.654   6.944   7.271  0.5423 -0.3528  1.8644
28507SOL     OW97498   0.891   5.070   2.978  0.0361 -0.0820  0.3551
28507SOL    HW197499   0.883   5.008   3.050 -0.5976 -0.8312 -0.3513
28507SOL    HW297500   0.984   5.068   2.955 -0.1221 -1.4277 -0.2274
28508SOL     OW97501   5.636   2.157   8.406 -0.9747  1.0288  0.3931
28508SOL    HW197502   5.628   2.077   8.354  0.7559 -0.1289  1.8243
28508SOL    HW297503   5.666   2.223   8.344  0.2483 -0.1185 -0.2849
28509SOL     OW97504   7.923   9.102  10.388 -0.0375  0.4767  0.6331
28509SOL    HW197505   7.911   9.010  10.365  0.8987  0.7167 -0.9753
28509SOL    HW297506   8.013   9.108  10.419 -0.3202  0.7381  1.4392
28510SOL     OW97507   5.662   6.564   1.793 -0.0769  0.3615 -0.4926
28510SOL    HW197508   5.683   6.638   1.735 -2.2514  2.1284  0.8459
28510SOL    HW297509   5.567   6.566   1.802 -0.2180 -2.5254 -0.2022
28511SOL     OW97510   1.584   4.790   6.040 -0.2935  0.3457 -0.5805
28511SOL    HW197511   1.627   4.875   6.027 -2.5433  1.5184 -0.9207
28511SOL    HW297512   1.656   4.727   6.043  1.3677  2.0432 -2.0291
28512SOL     OW97513   5.917   4.548   6.254 -1.0562  0.1661  0.1141
28512SOL    HW197514   6.011   4.531   6.267 -0.7507  0.6804 -1.2377
28512SOL    HW297515   5.882   4.555   6.342  0.2214  0.1633  0.6541
28513SOL     OW97516   1.589   9.235   9.444 -0.2726 -0.5024 -0.2070
28513SOL    HW197517   1.678   9.258   9.473  0.4227 -0.7499 -2.0169
28513SOL    HW297518   1.533   9.298   9.489  0.8809  0.0884  0.4713
28514SOL     OW97519   8.490   6.844   1.163  0.2989 -0.0643 -0.4684
28514SOL    HW197520   8.542   6.923   1.182 -0.5494  0.2162  0.8554
28514SOL    HW297521   8.401   6.877   1.151 -0.5604 -0.9860  2.5707
28515SOL     OW97522   6.644   9.244   9.587  0.0956  0.1325  0.1094
28515SOL    HW197523   6.707   9.206   9.648 -1.8568 -1.6676  1.1441
28515SOL    HW297524   6.563   9.251   9.637 -0.6319  2.2127 -1.2167
28516SOL     OW97525   6.981   0.736   0.674 -0.3205  0.2535  0.2437
28516SOL    HW197526   6.936   0.700   0.598  0.0110  0.6831 -0.1610
28516SOL    HW297527   6.926   0.711   0.749  0.0473 -1.3561  0.0186
28517SOL     OW97528   7.904   3.686   9.820  0.5772 -0.2708 -0.3773
28517SOL    HW197529   7.927   3.663   9.730 -0.6148  1.2609 -1.1258
28517SOL    HW297530   7.850   3.613   9.851  2.6279 -1.7688 -0.1443
28518SOL     OW97531   5.261   2.224   6.574 -0.4371  0.4484 -0.5637
28518SOL    HW197532   5.193   2.275   6.618 -0.9065  0.2632 -1.0536
28518SOL    HW297533   5.234   2.223   6.482  0.3134  0.5030 -0.7970
28519SOL     OW97534   1.106   5.243   6.751 -0.2394  0.6958  0.3131
28519SOL    HW197535   1.083   5.252   6.843 -0.5122 -1.1826  0.4710
28519SOL    HW297536   1.026   5.213   6.709  0.4446 -0.6183 -0.1139
28520SOL     OW97537   0.047   4.986   1.403 -0.8116  0.1019 -0.3002
28520SOL    HW197538   0.112   5.019   1.341  0.0102  0.1771  0.5830
28520SOL    HW297539   0.019   5.063   1.451  0.9819 -0.3642  1.6455
28521SOL     OW97540  10.124   3.260   7.974 -0.6115 -0.6391  0.1056
28521SOL    HW197541  10.104   3.203   7.900 -0.1708 -1.5219  0.6464
28521SOL    HW297542  10.220   3.266   7.974 -0.5561 -1.2631  1.0280
28522SOL     OW97543   5.935   7.676   9.213  0.2695  0.3010 -0.6159
28522SOL    HW197544   5.994   7.619   9.165 -0.8365 -1.3954 -0.0464
28522SOL    HW297545   5.848   7.643   9.192 -0.2969  0.2304  1.6087
28523SOL     OW97546   7.670   8.987   0.799 -0.1561 -0.1214 -0.2146
28523SOL    HW197547   7.592   9.042   0.794  1.2001  1.8641 -0.7803
28523SOL    HW297548   7.711   9.010   0.883  0.5086 -0.1632 -0.5207
28524SOL     OW97549   7.296   6.400   6.743  0.7479  0.2322 -0.0633
28524SOL    HW197550   7.229   6.347   6.701  2.2075 -0.7311 -1.2749
28524SOL    HW297551   7.338   6.448   6.672  0.0760  2.3753  0.9044
28525SOL     OW97552   2.728   7.981   6.751 -0.0714  0.9352 -0.2383
28525SOL    HW197553   2.752   7.888   6.749  1.3772  1.2185 -3.9148
28525SOL    HW297554   2.807   8.025   6.782 -0.4195  1.0598  0.5037
28526SOL     OW97555   3.811   6.098   8.946  0.7114  0.3665 -0.4516
28526SOL    HW197556   3.806   6.003   8.961  2.2212  0.3735  0.3604
28526SOL    HW297557   3.748   6.135   9.007  1.1099 -0.0601  0.2413
28527SOL     OW97558   6.732   3.710   8.437 -0.7412  0.8208 -0.0195
28527SOL    HW197559   6.720   3.615   8.439 -1.8991  0.9547  1.9661
28527SOL    HW297560   6.779   3.727   8.356 -2.3419 -1.2424 -1.4675
28528SOL     OW97561   5.517   0.496   1.918 -0.2248  0.3367  1.1992
28528SOL    HW197562   5.442   0.524   1.970 -0.2156  0.6879  1.0262
28528SOL    HW297563   5.573   0.449   1.980 -0.5091  0.2123  1.3632
28529SOL     OW97564   4.641   5.200   6.200 -0.2852  0.0367 -0.3018
28529SOL    HW197565   4.714   5.138   6.203 -1.4305 -1.4386 -1.6628
28529SOL    HW297566   4.647   5.241   6.114  0.4094  1.8055  0.5539
28530SOL     OW97567   6.423  10.169   2.588  0.6439 -0.1906  0.1719
28530SOL    HW197568   6.509  10.168   2.548  0.3016 -0.1690 -0.5828
28530SOL    HW297569   6.407  10.078   2.614  0.3007 -0.4918 -1.0134
28531SOL     OW97570   5.905   9.870  10.088  0.2116  0.3059 -0.1321
28531SOL    HW197571   5.958   9.943  10.121 -0.6455  0.4047  1.0569
28531SOL    HW297572   5.821   9.910  10.064 -0.2104 -0.2513  0.3867
28532SOL     OW97573   4.148   2.068   5.268  0.0631  0.3948  0.0461
28532SOL    HW197574   4.121   2.147   5.315  0.4395 -0.0193  0.9604
28532SOL    HW297575   4.141   1.997   5.332  0.3258 -0.2183 -0.5887
28533SOL     OW97576   4.938   5.501   1.471 -0.1935  0.3452 -0.5168
28533SOL    HW197577   4.938   5.441   1.396  0.1588 -1.7452  1.0689
28533SOL    HW297578   4.870   5.466   1.529  0.2536  1.2907  0.6066
28534SOL     OW97579   7.044   6.294   7.093  0.0067  0.0838  0.6031
28534SOL    HW197580   7.000   6.241   7.027 -1.2081  0.5992  0.9798
28534SOL    HW297581   7.068   6.375   7.047 -0.6487  0.3549  0.7283
28535SOL     OW97582   5.661   7.626   6.796 -0.3455  0.4340  0.3592
28535SOL    HW197583   5.734   7.564   6.802  0.5607  1.5500  1.3422
28535SOL    HW297584   5.627   7.614   6.708 -0.3902 -1.6581  0.6173
28536SOL     OW97585  10.325   8.488   1.262  0.7531 -0.5617  0.0460
28536SOL    HW197586  10.280   8.443   1.191  1.1627  2.0007 -1.9627
28536SOL    HW297587  10.258   8.545   1.300  1.1779 -0.0303  0.0022
28537SOL     OW97588   3.698   3.502   2.126 -0.1031 -0.1806  0.1905
28537SOL    HW197589   3.691   3.415   2.086 -1.4607  0.5579 -1.2721
28537SOL    HW297590   3.626   3.552   2.088  0.2230  1.3957  1.5405
28538SOL     OW97591   4.117  10.147   6.245 -0.5675 -0.4437  0.6129
28538SOL    HW197592   4.186  10.121   6.307  0.3467 -1.8356 -0.8980
28538SOL    HW297593   4.081  10.063   6.214  0.6399  0.0754 -2.4859
28539SOL     OW97594   2.182   6.250   5.785  0.2060 -0.0535 -0.2633
28539SOL    HW197595   2.255   6.240   5.724  0.6718  2.7235 -0.3185
28539SOL    HW297596   2.151   6.340   5.770 -1.3584 -0.1798  1.7841
28540SOL     OW97597   5.620   0.099   0.321  0.2787  0.0816 -0.8723
28540SOL    HW197598   5.566   0.052   0.257 -1.6314  0.5016  0.3531
28540SOL    HW297599   5.700   0.045   0.328 -0.7968 -1.6565 -1.2924
28541SOL     OW97600   9.312   4.897   4.179  0.5441  0.0679  0.1369
28541SOL    HW197601   9.364   4.891   4.099  0.9083 -0.1503  0.3839
28541SOL    HW297602   9.324   4.812   4.222  0.4080  0.2061  0.4588
28542SOL     OW97603   3.133   5.149   6.263 -0.1874 -0.2303 -0.2518
28542SOL    HW197604   3.085   5.100   6.330  0.0644  1.8401  1.5568
28542SOL    HW297605   3.065   5.191   6.211 -0.3817 -1.6089 -1.1393
28543SOL     OW97606   1.676   6.045   6.236 -0.1262  0.4116  0.1075
28543SOL    HW197607   1.690   5.969   6.293 -0.1127  1.3650  1.4282
28543SOL    HW297608   1.581   6.046   6.221  0.0464 -0.7636 -1.2520
28544SOL     OW97609   2.756   4.573   8.147 -0.3043  0.4677  0.1209
28544SOL    HW197610   2.706   4.522   8.083  0.4404 -0.8578  0.5641
28544SOL    HW297611   2.693   4.590   8.218 -0.8901  1.2235 -0.5510
28545SOL     OW97612   3.465   7.594   6.447  1.0336  0.2156 -0.4389
28545SOL    HW197613   3.468   7.603   6.352  0.5713  0.2325 -0.4514
28545SOL    HW297614   3.522   7.519   6.465 -0.2842 -0.9344 -0.8890
28546SOL     OW97615   8.366   8.709   4.210 -0.1930 -0.4532 -0.7064
28546SOL    HW197616   8.310   8.669   4.143 -1.0393  0.7335 -0.7325
28546SOL    HW297617   8.322   8.690   4.293 -0.3854  0.0764 -0.6862
28547SOL     OW97618   2.425   8.297   2.951 -0.0359  0.1620  0.6639
28547SOL    HW197619   2.510   8.261   2.976  0.8398  0.8039 -1.2275
28547SOL    HW297620   2.402   8.252   2.870 -1.8696 -0.4918  1.4762
28548SOL     OW97621   0.531   6.788   4.311  0.1024 -0.3467 -0.2754
28548SOL    HW197622   0.505   6.702   4.345 -0.2559  0.0405  0.4774
28548SOL    HW297623   0.492   6.792   4.224 -1.8408 -0.0797  0.5350
28549SOL     OW97624  10.124   5.389   4.205  0.1866 -0.1521  0.0061
28549SOL    HW197625  10.112   5.473   4.160  1.2746  0.4800  0.8262
28549SOL    HW297626  10.117   5.323   4.135 -0.2932  0.6453 -0.7182
28550SOL     OW97627   3.330   9.113  10.364 -0.3081 -0.6777  0.1496
28550SOL    HW197628   3.381   9.193  10.380  0.0980 -1.0106  0.5495
28550SOL    HW297629   3.395   9.049  10.333 -0.6885 -0.7543 -0.5073
28551SOL     OW97630   8.100   6.278   7.125 -0.3025  0.2080 -0.0906
28551SOL    HW197631   8.152   6.200   7.105  1.2406  1.2437 -0.2938
28551SOL    HW297632   8.087   6.275   7.220 -0.3707 -0.3732 -0.1167
28552SOL     OW97633   1.630  10.168   1.680  0.1504  0.4464 -0.2116
28552SOL    HW197634   1.644  10.256   1.715 -2.2723  0.7100  0.2146
28552SOL    HW297635   1.640  10.110   1.756  0.5721  0.4519 -0.2591
28553SOL     OW97636   2.357   1.571   0.600  0.3912 -0.5160 -0.3049
28553SOL    HW197637   2.307   1.604   0.525  2.1356  1.2746 -0.7847
28553SOL    HW297638   2.362   1.646   0.660 -0.7535 -1.8409  1.5402
28554SOL     OW97639   5.940   9.629   5.826  0.0076  0.4868 -0.1478
28554SOL    HW197640   5.853   9.591   5.833 -0.3516  0.5673 -3.0016
28554SOL    HW297641   5.992   9.562   5.782  0.2606  1.9055 -2.1429
28555SOL     OW97642   6.534   4.837   6.798 -0.0875  0.1484 -0.2220
28555SOL    HW197643   6.518   4.930   6.813  0.6094  0.2404  0.0137
28555SOL    HW297644   6.456   4.793   6.831 -0.6633  0.6829 -0.8581
28556SOL     OW97645   7.170   1.031   6.012  0.2742  0.3106 -0.1789
28556SOL    HW197646   7.240   0.978   5.974 -0.6438 -1.0498 -0.0321
28556SOL    HW297647   7.212   1.115   6.034  1.5707 -0.0614 -1.1467
28557SOL     OW97648   7.739   2.680   9.722 -0.1000  0.1961 -0.4659
28557SOL    HW197649   7.733   2.596   9.766  0.5191  0.3289 -0.1086
28557SOL    HW297650   7.826   2.680   9.682 -0.0245  0.7305 -0.3131
28558SOL     OW97651   3.230   9.935   5.324  0.1909  0.0703 -0.1230
28558SOL    HW197652   3.285  10.011   5.303  1.0792 -0.9685 -1.7955
28558SOL    HW297653   3.151   9.947   5.272 -0.5333  0.7874  1.1006
28559SOL     OW97654   6.338   4.017   1.223 -0.2845  0.2715 -0.2629
28559SOL    HW197655   6.356   3.932   1.183  2.9272  1.2431 -1.2510
28559SOL    HW297656   6.416   4.069   1.203 -1.5396  3.0373  1.4582
28560SOL     OW97657   4.794   3.911   8.626 -0.3837 -0.3581 -0.5172
28560SOL    HW197658   4.802   3.854   8.702  0.1516  0.5416  0.1104
28560SOL    HW297659   4.850   3.986   8.645  0.7116 -0.6528 -2.3109
28561SOL     OW97660   1.208   0.361   0.797 -0.0987 -0.0170  0.1393
28561SOL    HW197661   1.233   0.270   0.808  0.9333 -0.0288 -1.7857
28561SOL    HW297662   1.177   0.389   0.883 -0.1612 -2.0815  0.8287
28562SOL     OW97663   2.957  10.110   3.805  0.3277 -0.2274  0.0321
28562SOL    HW197664   2.967  10.029   3.856 -1.2228 -0.0814  0.6138
28562SOL    HW297665   2.871  10.143   3.830  0.1505  0.6289 -1.6210
28563SOL     OW97666   2.785   8.511   8.463 -0.0827 -0.4952 -0.0152
28563SOL    HW197667   2.837   8.493   8.384 -0.0336 -1.4241  0.2230
28563SOL    HW297668   2.754   8.425   8.491 -0.5986 -0.0987  0.6440
28564SOL     OW97669   1.142   9.442   5.906 -0.7095  0.0968 -0.2161
28564SOL    HW197670   1.209   9.449   5.838 -2.4070  0.8512 -1.9091
28564SOL    HW297671   1.168   9.508   5.972 -0.5840  1.4710 -1.5849
28565SOL     OW97672   0.515   7.168   2.676  0.4214 -0.1765 -0.0581
28565SOL    HW197673   0.576   7.230   2.715  0.1590 -0.4347  0.7987
28565SOL    HW297674   0.568   7.091   2.656  0.7769  0.3655 -1.2621
28566SOL     OW97675   8.594   9.540   6.033  0.0521  0.4366  0.1414
28566SOL    HW197676   8.597   9.524   6.127  0.1707  0.0905  0.0804
28566SOL    HW297677   8.514   9.589   6.019  0.7237  1.7137  0.6088
28567SOL     OW97678   0.267   3.339   4.749  0.0859 -0.1054 -0.7163
28567SOL    HW197679   0.344   3.284   4.729 -0.8385 -2.1402  0.9576
28567SOL    HW297680   0.193   3.279   4.742 -0.8104  0.3314  3.1199
28568SOL     OW97681   2.344   9.076   9.243 -0.2498  0.4466  0.1699
28568SOL    HW197682   2.408   9.042   9.306 -2.4731 -0.6424  2.0448
28568SOL    HW297683   2.274   9.112   9.298 -2.4862 -0.8635 -1.6055
28569SOL     OW97684   7.697   0.774   5.232  0.2269  0.3889 -0.5204
28569SOL    HW197685   7.742   0.857   5.215  0.4791 -0.0353 -2.1381
28569SOL    HW297686   7.768   0.712   5.250  0.0412  0.4985  0.6527
28570SOL     OW97687   2.015   9.138   8.448 -0.5076  0.2585  0.1928
28570SOL    HW197688   2.110   9.138   8.438 -0.5777 -0.0209 -0.5644
28570SOL    HW297689   1.987   9.221   8.410 -0.8155 -0.9956 -2.5737
28571SOL     OW97690   4.134   0.293   6.013  0.0625 -0.1050 -0.1663
28571SOL    HW197691   4.049   0.251   5.996 -0.1744 -0.1073  0.9127
28571SOL    HW297692   4.115   0.357   6.082  0.9036  0.0373 -0.0584
28572SOL     OW97693  10.372   0.346   0.799  0.3411 -0.6680  0.0503
28572SOL    HW197694  10.304   0.279   0.801 -1.5151  1.1184  1.3535
28572SOL    HW297695  10.398   0.350   0.707 -0.8508 -1.8747 -0.3819
28573SOL     OW97696  10.351  10.296   1.292 -0.2932 -0.6592  0.2855
28573SOL    HW197697  10.259  10.283   1.268 -0.5560  0.8038  0.3968
28573SOL    HW297698  10.352  10.291   1.388 -0.4408  0.2605  0.3464
28574SOL     OW97699   2.465   9.835   2.539  0.0434 -0.1708 -0.0336
28574SOL    HW197700   2.524   9.876   2.602  1.3526 -1.3706 -0.4206
28574SOL    HW297701   2.452   9.746   2.574 -1.8731  0.1778  0.2429
28575SOL     OW97702   4.128   7.970   9.450 -0.0344  0.5756 -0.0713
28575SOL    HW197703   4.042   7.980   9.409  0.6926  1.1332 -1.5305
28575SOL    HW297704   4.146   7.876   9.445 -0.3611  0.5188 -0.1936
28576SOL     OW97705   6.689   7.586   8.733 -0.2343  0.4804  0.2827
28576SOL    HW197706   6.714   7.567   8.642  0.9632  0.0009  0.6797
28576SOL    HW297707   6.773   7.596   8.779 -0.8002 -0.2003  1.5160
28577SOL     OW97708   4.048   3.972   5.575 -0.2579  0.0487  0.1618
28577SOL    HW197709   4.093   3.934   5.651  1.5083  1.9697  0.1445
28577SOL    HW297710   3.959   3.988   5.606 -0.2685 -1.4495  1.0210
28578SOL     OW97711   8.461   6.536   1.565 -0.1636  0.1144 -0.2528
28578SOL    HW197712   8.405   6.569   1.635 -1.4059  1.1294 -1.6693
28578SOL    HW297713   8.506   6.614   1.531  0.5022 -0.3805 -0.5469
28579SOL     OW97714   5.154   2.374   5.591  0.0708  0.0571 -0.1816
28579SOL    HW197715   5.241   2.340   5.569  0.2766  0.9678 -0.8110
28579SOL    HW297716   5.102   2.296   5.612  1.1842 -0.4543  0.7447
28580SOL     OW97717  10.372   2.718   7.016  0.0927  0.0142 -0.0055
28580SOL    HW197718  10.278   2.704   7.010  0.1607  0.1133 -1.8796
28580SOL    HW297719  10.381   2.794   7.073 -0.9937  0.3434 -0.2456
28581SOL     OW97720   6.005   1.711   8.703 -0.2447  0.7163 -0.4195
28581SOL    HW197721   5.935   1.748   8.648 -0.0492  1.7658  0.0239
28581SOL    HW297722   5.959   1.664   8.772 -0.5198  1.2578 -0.2299
28582SOL     OW97723   9.143  10.208   4.858 -0.0743  0.0775 -0.1601
28582SOL    HW197724   9.137  10.211   4.762  0.5906 -2.0277 -0.3303
28582SOL    HW297725   9.070  10.151   4.884  0.5215 -0.4134  0.4584
28583SOL     OW97726   8.326   3.691   7.142 -0.0473 -0.6415  0.0399
28583SOL    HW197727   8.235   3.663   7.133  0.4251 -2.1792 -0.1675
28583SOL    HW297728   8.375   3.634   7.082  1.2945 -1.1182  1.5289
28584SOL     OW97729   2.289   8.719   8.832 -0.1756  0.4126 -0.1203
28584SOL    HW197730   2.254   8.784   8.893  1.6807  0.3956  1.0430
28584SOL    HW297731   2.376   8.698   8.866  0.3533 -0.6915 -1.9874
28585SOL     OW97732   8.804   6.664   6.331 -0.3535 -0.0884 -0.2235
28585SOL    HW197733   8.711   6.685   6.333 -0.9016 -2.1745 -1.1570
28585SOL    HW297734   8.812   6.585   6.384  1.4283  1.6230  2.3404
28586SOL     OW97735   3.998  10.355   7.342 -0.1533  0.4146 -0.3777
28586SOL    HW197736   4.007  10.299   7.265  0.3586 -2.2510  1.4606
28586SOL    HW297737   3.931  10.312   7.395  1.4286  0.5714  1.8782
28587SOL     OW97738   6.965   0.696   5.969  0.3985  0.1100 -0.1638
28587SOL    HW197739   6.872   0.708   5.951  0.2319 -1.5545 -0.5910
28587SOL    HW297740   6.996   0.640   5.898  1.8713  1.1055 -0.3370
28588SOL     OW97741   0.102   1.457   3.017  0.0559  0.4567 -0.7611
28588SOL    HW197742   0.121   1.548   2.994 -3.1143  1.1122 -1.2689
28588SOL    HW297743   0.010   1.444   2.993 -0.0875 -2.4089  0.7809
28589SOL     OW97744   8.170   6.730   3.554  0.0482 -0.7921  0.1236
28589SOL    HW197745   8.182   6.638   3.574  1.0878 -0.5597  0.6575
28589SOL    HW297746   8.076   6.742   3.550 -0.1192 -2.3792 -2.4227
28590SOL     OW97747   1.907  10.116   9.785 -0.0706 -0.2507  0.3857
28590SOL    HW197748   1.923  10.023   9.768 -0.5362 -0.6694  2.0831
28590SOL    HW297749   1.837  10.139   9.724 -0.3911 -1.1785  0.3817
28591SOL     OW97750   4.318   4.975   5.971 -0.2032  0.2121 -0.1645
28591SOL    HW197751   4.359   5.053   5.935 -0.3613 -0.1981 -1.3040
28591SOL    HW297752   4.379   4.944   6.038 -0.6773  1.9149  1.1200
28592SOL     OW97753   0.949   7.546  10.378 -0.1275 -0.7700 -0.6038
28592SOL    HW197754   0.920   7.501  10.457 -0.5633  0.2752 -0.1516
28592SOL    HW297755   0.902   7.502  10.307  0.4145 -1.8440 -0.3224
28593SOL     OW97756   7.671   8.795   2.410 -0.0426 -0.0611 -0.7706
28593SOL    HW197757   7.661   8.890   2.399 -1.4817 -0.0389  0.4237
28593SOL    HW297758   7.742   8.771   2.351 -0.3344  1.6055 -1.8518
28594SOL     OW97759   1.015   7.095   4.623  0.4163  0.2293  0.1183
28594SOL    HW197760   0.956   7.169   4.610  0.2297 -0.1431 -1.2884
28594SOL    HW297761   0.957   7.018   4.622  0.6855  0.0124  0.8831
28595SOL     OW97762   3.986   1.949   9.350 -0.3019 -0.8909  0.6974
28595SOL    HW197763   3.893   1.974   9.351 -0.8201 -2.6539 -0.0443
28595SOL    HW297764   4.029   2.019   9.301 -1.5180 -0.9181 -0.4641
28596SOL     OW97765   4.534  10.084   4.796  0.3024 -0.2904  0.6165
28596SOL    HW197766   4.601  10.017   4.783 -1.4043 -1.8026 -1.0579
28596SOL    HW297767   4.479  10.050   4.867 -0.5644 -0.7187 -0.2305
28597SOL     OW97768   6.831   1.732   0.545  0.2982  0.3348 -0.4189
28597SOL    HW197769   6.736   1.741   0.554  0.2363  0.5503 -1.2163
28597SOL    HW297770   6.842   1.664   0.479  0.7165 -0.2069  0.1905
28598SOL     OW97771   3.186   4.311   4.916  0.0892 -0.1169 -0.1436
28598SOL    HW197772   3.207   4.337   5.006 -0.4628  1.8861 -0.5494
28598SOL    HW297773   3.138   4.229   4.926 -1.9897  1.1818  1.6110
28599SOL     OW97774   8.736   4.232   2.277  0.2223  0.3854 -0.1382
28599SOL    HW197775   8.825   4.245   2.309  0.5696  1.5058 -1.4662
28599SOL    HW297776   8.722   4.302   2.214 -1.0528 -0.6774 -1.1073
28600SOL     OW97777   9.041   0.295   3.707 -0.2535  0.6375 -0.4070
28600SOL    HW197778   9.056   0.255   3.621 -0.4063 -0.2244 -0.0435
28600SOL    HW297779   9.128   0.325   3.734 -0.4341  2.2675 -1.4963
28601SOL     OW97780   1.121   7.447   4.517 -0.7353 -0.0241 -0.1671
28601SOL    HW197781   1.177   7.520   4.489  0.2126 -1.4213 -2.1463
28601SOL    HW297782   1.145   7.375   4.459 -4.0964 -0.9324 -0.6038
28602SOL     OW97783   8.289   3.043   1.660  0.4158  0.3427 -0.0332
28602SOL    HW197784   8.325   2.990   1.732 -0.4589  0.4746  0.5131
28602SOL    HW297785   8.206   3.001   1.639 -0.4323  1.6437  0.6005
28603SOL     OW97786   9.249   5.703   6.537 -0.3169 -0.1575  0.1715
28603SOL    HW197787   9.214   5.732   6.452  2.3882 -0.6794 -1.2335
28603SOL    HW297788   9.209   5.617   6.552 -1.4182  0.2825 -0.1536
28604SOL     OW97789   7.242   2.028   3.105 -0.1819  0.5300 -0.2042
28604SOL    HW197790   7.204   2.079   3.176  0.3954  0.1955  0.3518
28604SOL    HW297791   7.236   2.085   3.028 -1.5006  0.6029 -0.0701
28605SOL     OW97792   3.114   7.772   5.155 -0.2735  0.1220 -0.1022
28605SOL    HW197793   3.173   7.698   5.139  0.5817  0.9134 -0.6829
28605SOL    HW297794   3.099   7.770   5.250 -2.8678 -2.7027 -0.4291
28606SOL     OW97795   9.927   4.384   1.879 -0.1844  0.2287 -0.2529
28606SOL    HW197796  10.008   4.433   1.894 -0.1222  1.2570 -3.3172
28606SOL    HW297797   9.858   4.451   1.881 -0.9220 -0.5025  1.3712
28607SOL     OW97798   4.867   4.404   2.357 -0.0656 -0.2601 -0.1509
28607SOL    HW197799   4.960   4.379   2.355  0.0946  0.2210  0.8336
28607SOL    HW297800   4.866   4.489   2.401 -0.9554 -0.1300 -0.4073
28608SOL     OW97801   4.773   2.633   8.722 -0.2897 -0.3487  0.3497
28608SOL    HW197802   4.740   2.676   8.643  0.2963  1.6040  1.0980
28608SOL    HW297803   4.866   2.656   8.725 -0.2417 -0.6137  1.4386
28609SOL     OW97804   7.433   0.784   2.489 -0.4926  0.1712  0.2765
28609SOL    HW197805   7.359   0.746   2.538 -0.2329 -0.2459  0.3523
28609SOL    HW297806   7.433   0.737   2.406 -0.2309  0.0798  0.3288
28610SOL     OW97807   6.978   7.081   1.456  0.1681 -0.0914 -0.1829
28610SOL    HW197808   6.929   7.161   1.436  1.1477  0.8741  1.0709
28610SOL    HW297809   7.023   7.101   1.538  1.7730 -1.3391 -0.7167
28611SOL     OW97810   2.310   3.649   4.675  0.7098  0.9654  0.4620
28611SOL    HW197811   2.331   3.592   4.601 -0.8674  0.1998  0.5611
28611SOL    HW297812   2.391   3.697   4.692  2.3777 -1.7571  0.8335
28612SOL     OW97813   7.177   2.368   9.010 -0.4021  0.1194  0.2526
28612SOL    HW197814   7.250   2.319   9.047 -1.1352 -1.8248 -0.7803
28612SOL    HW297815   7.194   2.372   8.916 -0.3734  1.8782  0.2985
28613SOL     OW97816   5.084   2.799   9.701 -0.0405 -0.3202 -0.0576
28613SOL    HW197817   5.170   2.821   9.737 -0.4559  0.9890  0.1974
28613SOL    HW297818   5.022   2.840   9.761 -0.8097  0.0463 -1.0738
28614SOL     OW97819   9.732   3.886   2.929  0.0333  0.0683  0.1627
28614SOL    HW197820   9.784   3.966   2.940 -0.9857  0.6237  1.1893
28614SOL    HW297821   9.682   3.902   2.849  0.7819 -0.0869 -0.3359
28615SOL     OW97822  10.192   0.309   6.472 -0.3420 -0.4880  0.0652
28615SOL    HW197823  10.264   0.352   6.519  0.0968 -0.8618 -0.2610
28615SOL    HW297824  10.192   0.352   6.386 -1.8354  0.9604  0.7385
28616SOL     OW97825   0.130   4.597   6.634 -0.5077 -0.0801 -0.5069
28616SOL    HW197826   0.134   4.645   6.551 -1.9725  2.0105  0.5382
28616SOL    HW297827   0.040   4.563   6.638 -0.4554 -0.1434  0.2403
28617SOL     OW97828   1.645   6.201   2.041  0.2256 -1.0944  0.1997
28617SOL    HW197829   1.697   6.150   1.978 -0.6122 -0.4603 -1.0419
28617SOL    HW297830   1.657   6.292   2.014 -1.2316 -0.9122  0.1008
28618SOL     OW97831   0.057   8.702   2.315  0.1805 -1.1496 -0.4964
28618SOL    HW197832  -0.031   8.702   2.354  0.7437  0.3697  0.8864
28618SOL    HW297833   0.080   8.795   2.309  2.2883 -1.5487  0.6127
28619SOL     OW97834   9.330   0.994   1.086 -0.0038 -0.8228 -0.2149
28619SOL    HW197835   9.370   1.074   1.120 -0.4048 -1.4520  1.8560
28619SOL    HW297836   9.401   0.930   1.082 -0.1668 -1.0497  0.4647
28620SOL     OW97837   0.074   6.756   3.814  0.0948 -0.8657 -0.7936
28620SOL    HW197838   0.076   6.793   3.902 -1.4740 -4.5521  1.0321
28620SOL    HW297839  -0.006   6.789   3.774  0.2600 -0.0253 -0.4443
28621SOL     OW97840   6.461   7.488   7.117  0.1332  0.1108 -0.0080
28621SOL    HW197841   6.532   7.425   7.105 -1.0429 -0.9153 -2.0834
28621SOL    HW297842   6.475   7.553   7.048 -0.4119  0.4415  0.1897
28622SOL     OW97843   5.446   7.667   4.191 -0.3613 -0.2131 -0.0444
28622SOL    HW197844   5.427   7.761   4.195 -0.6747 -0.1566 -1.9148
28622SOL    HW297845   5.374   7.631   4.139 -0.5265 -1.5984  1.0831
28623SOL     OW97846   2.494   2.325   0.493 -0.3778 -0.3632 -0.0581
28623SOL    HW197847   2.516   2.328   0.586 -0.8228  1.0760  0.0390
28623SOL    HW297848   2.511   2.235   0.467  1.9682 -0.2542  0.8602
28624SOL     OW97849   8.442   6.181   4.997 -0.2483  0.2928 -0.0615
28624SOL    HW197850   8.385   6.191   4.921 -1.6667 -0.1025  0.9249
28624SOL    HW297851   8.421   6.255   5.053  0.2881  0.2015  0.2653
28625SOL     OW97852   6.526   4.476   3.011  0.2623 -0.2472 -0.1527
28625SOL    HW197853   6.511   4.396   2.961  1.2799 -0.2735 -0.4441
28625SOL    HW297854   6.553   4.540   2.945  0.4710  0.0431  0.2125
28626SOL     OW97855   1.892   6.468   3.439  0.4501  0.0278  0.1191
28626SOL    HW197856   1.832   6.397   3.462 -0.6173  0.8578 -0.0176
28626SOL    HW297857   1.911   6.511   3.522 -0.0326  0.4440  0.0147
28627SOL     OW97858   8.329   2.766   5.788 -0.2446  0.9264 -0.1020
28627SOL    HW197859   8.240   2.781   5.756 -0.5286  1.0997  0.7582
28627SOL    HW297860   8.325   2.682   5.834  0.3687  0.2423 -1.2412
28628SOL     OW97861   5.942   7.430   5.955  0.3716  0.7782  0.2673
28628SOL    HW197862   5.936   7.339   5.984  0.6725 -0.8159 -3.9599
28628SOL    HW297863   6.035   7.452   5.965  0.7973 -0.3285 -0.9514
28629SOL     OW97864   4.043   6.573   3.059  0.0800  0.3517  0.4889
28629SOL    HW197865   4.028   6.647   3.117  0.1205  0.3665  0.4808
28629SOL    HW297866   4.113   6.523   3.102 -0.1014  0.1968  0.6084
28630SOL     OW97867   2.026   0.266   5.818 -0.0365  0.3011  0.3597
28630SOL    HW197868   1.991   0.250   5.906 -2.5600  1.1204 -0.4004
28630SOL    HW297869   2.078   0.346   5.828  0.3055 -0.0254  1.2535
28631SOL     OW97870   4.880   2.451  10.390 -0.3891  0.0134 -0.2103
28631SOL    HW197871   4.864   2.542  10.416 -1.0524 -0.3676  0.8192
28631SOL    HW297872   4.916   2.410  10.469 -1.0572 -0.8511 -0.3353
28632SOL     OW97873   1.000   1.675   6.772 -0.4210  0.5341  0.3350
28632SOL    HW197874   1.013   1.761   6.733 -1.3052  1.2838  1.6316
28632SOL    HW297875   0.983   1.692   6.864 -1.0847 -1.0046  0.5341
28633SOL     OW97876   7.245   1.008   2.665 -0.1036  0.0602 -0.2148
28633SOL    HW197877   7.340   0.992   2.667  0.1288  0.9594 -2.0855
28633SOL    HW297878   7.206   0.923   2.687  1.0902 -0.0308  1.8713
28634SOL     OW97879   0.083   2.091   7.808 -0.1629 -0.4617  0.1016
28634SOL    HW197880   0.055   2.181   7.791 -1.0682 -0.7754 -0.1296
28634SOL    HW297881   0.010   2.037   7.778  0.4805 -1.2912 -0.0105
28635SOL     OW97882   9.607   0.024   4.797 -0.0522  0.5200  0.0682
28635SOL    HW197883   9.550  -0.052   4.810  0.4891  0.4322  2.3181
28635SOL    HW297884   9.599   0.075   4.878  1.4874  1.5696 -0.3796
28636SOL     OW97885  10.090   9.748   4.179  0.4563  0.2546  0.5072
28636SOL    HW197886  10.124   9.679   4.236  1.0834  1.1454  1.2472
28636SOL    HW297887  10.143   9.741   4.099  1.1226  0.4239  0.9198
28637SOL     OW97888   1.860   4.976   1.278 -0.3474 -0.2655 -0.0882
28637SOL    HW197889   1.819   4.942   1.199  0.5372  0.5861 -0.9463
28637SOL    HW297890   1.872   4.899   1.335 -0.0287 -1.0764 -1.2214
28638SOL     OW97891  10.178   4.979   1.964 -0.2890 -0.0664  0.3553
28638SOL    HW197892  10.188   4.912   2.032 -1.0905 -0.0035  0.5363
28638SOL    HW297893  10.093   5.019   1.980  0.0816  0.8592  0.1141
28639SOL     OW97894   4.360   0.430   5.893  0.3910  0.2462 -0.0475
28639SOL    HW197895   4.289   0.383   5.937 -0.5080  1.0010 -0.6594
28639SOL    HW297896   4.423   0.361   5.870 -1.0061 -0.7380 -1.1491
28640SOL     OW97897   7.040   9.132   7.217  0.2956 -0.1853  0.4982
28640SOL    HW197898   7.070   9.111   7.305  0.2547 -0.8885  0.3509
28640SOL    HW297899   7.115   9.173   7.175  1.3613 -2.5732 -0.1061
28641SOL     OW97900   9.047   8.402   9.213  0.4784  0.6422 -0.7361
28641SOL    HW197901   9.010   8.489   9.224 -0.5435  0.1183  0.2525
28641SOL    HW297902   9.103   8.390   9.290 -0.3332 -0.0041 -0.2247
28642SOL     OW97903   9.283   0.335   9.232  0.4514 -0.1183  0.4499
28642SOL    HW197904   9.279   0.392   9.309 -1.9757  3.0509 -1.7309
28642SOL    HW297905   9.197   0.295   9.227  0.5213 -0.1712 -0.6479
28643SOL     OW97906   7.120  10.045  10.309 -0.3749  0.6422  0.3476
28643SOL    HW197907   7.141  10.043  10.403  0.3504  0.4514  0.1934
28643SOL    HW297908   7.149  10.132  10.280  0.6698  0.2126  0.0405
28644SOL     OW97909   6.607   7.548   9.053  0.1335 -0.8694  0.1555
28644SOL    HW197910   6.695   7.508   9.052  0.0058 -1.1606  0.5276
28644SOL    HW297911   6.576   7.538   8.963  0.5638 -0.5854 -0.0274
28645SOL     OW97912   0.380   8.083   8.244 -0.3612 -0.0803  0.0017
28645SOL    HW197913   0.419   7.999   8.268  1.1324  0.3621 -0.7621
28645SOL    HW297914   0.430   8.148   8.294  0.5284  0.5821 -1.6893
28646SOL     OW97915   1.908   4.304   1.313  0.0029  0.6921  0.4888
28646SOL    HW197916   1.835   4.267   1.362 -0.6946  1.6709  0.2418
28646SOL    HW297917   1.866   4.361   1.247  0.9015 -0.3443 -1.0531
28647SOL     OW97918   8.894   6.319   4.117 -0.7282  0.6329 -0.0594
28647SOL    HW197919   8.970   6.275   4.078 -0.0999  1.0461  0.6584
28647SOL    HW297920   8.881   6.397   4.063  0.1718  1.2320  0.5613
28648SOL     OW97921   5.191   9.381   8.027 -0.8080 -0.5288 -0.0748
28648SOL    HW197922   5.125   9.441   7.994 -0.1273 -0.2869 -1.0158
28648SOL    HW297923   5.154   9.348   8.109 -1.1931  1.1579  0.4669
28649SOL     OW97924   9.474   5.068   4.639  0.0572  0.0396  0.7099
28649SOL    HW197925   9.512   5.006   4.701  0.6700 -0.6906 -0.3675
28649SOL    HW297926   9.548   5.120   4.608 -0.3837  1.0397  1.2522
28650SOL     OW97927   8.781   8.569   1.293  0.1411 -0.1374  0.1172
28650SOL    HW197928   8.844   8.539   1.359  1.9522  0.5068 -1.2277
28650SOL    HW297929   8.702   8.518   1.311  1.0902 -1.1464  1.7553
28651SOL     OW97930   0.621   7.128   6.201  0.2335 -0.4244 -0.0251
28651SOL    HW197931   0.614   7.033   6.209  2.4018 -0.8003 -1.7638
28651SOL    HW297932   0.531   7.157   6.184 -0.2940 -2.3042 -0.7177
28652SOL     OW97933   1.626   4.724   3.957  0.4566  0.5225 -0.3365
28652SOL    HW197934   1.589   4.797   4.006 -0.2843 -0.9414  1.4164
28652SOL    HW297935   1.562   4.654   3.966  0.0761  0.2298 -3.8273
28653SOL     OW97936   3.906   6.602   6.837 -0.0420 -0.0244  0.0306
28653SOL    HW197937   3.937   6.534   6.777  0.2753 -1.2442  1.5043
28653SOL    HW297938   3.865   6.554   6.909 -3.0296  1.4635 -0.5197
28654SOL     OW97939   4.774   9.769   0.276  0.1482  0.2384 -0.1318
28654SOL    HW197940   4.732   9.852   0.300  1.3664  0.9710 -0.4149
28654SOL    HW297941   4.786   9.723   0.359  1.9368  1.5833  0.4323
28655SOL     OW97942  10.387   8.206   2.719 -0.7159  0.0116 -0.1328
28655SOL    HW197943  10.333   8.282   2.697 -0.5965  0.1601  0.0869
28655SOL    HW297944  10.353   8.136   2.663 -0.3410  0.4184 -0.8779
28656SOL     OW97945   7.806   3.091   3.471 -0.1268  0.0472 -0.3394
28656SOL    HW197946   7.752   3.017   3.500 -0.4845  0.1262 -0.7929
28656SOL    HW297947   7.780   3.105   3.380  0.6349  0.1148 -0.5492
28657SOL     OW97948   4.415   9.646   7.536 -0.3329 -0.2670  0.2643
28657SOL    HW197949   4.347   9.582   7.556 -0.9988 -0.2040 -1.5588
28657SOL    HW297950   4.383   9.728   7.575  0.3307 -0.9136  2.2581
28658SOL     OW97951   0.083   9.767   9.854  0.0953  0.4516  0.2180
28658SOL    HW197952   0.129   9.685   9.837 -0.4095  0.3560 -0.7663
28658SOL    HW297953   0.068   9.767   9.948 -0.9975 -1.1839  0.0868
28659SOL     OW97954   4.434   2.476   5.348  0.0743 -0.2214  0.0475
28659SOL    HW197955   4.471   2.562   5.366 -0.2200 -0.3716  1.4416
28659SOL    HW297956   4.490   2.415   5.396  0.4970 -0.8668 -1.2091
28660SOL     OW97957   5.905   2.294   6.573 -0.1181  0.3357  0.0578
28660SOL    HW197958   5.816   2.258   6.579  0.4363 -0.8998  1.2341
28660SOL    HW297959   5.908   2.334   6.486 -1.9786  0.8523  0.1798
28661SOL     OW97960   5.413   9.046   6.031 -0.3306 -0.1037  0.6709
28661SOL    HW197961   5.336   9.063   5.976 -1.0351  2.5217  2.2980
28661SOL    HW297962   5.439   8.956   6.009 -2.5344 -0.3130 -1.4922
28662SOL     OW97963   6.886   0.571   4.104 -0.2896 -0.0233 -0.5814
28662SOL    HW197964   6.797   0.550   4.133  0.0610  0.1540  0.6677
28662SOL    HW297965   6.876   0.595   4.012 -1.7096  1.1435 -0.1533
28663SOL     OW97966  10.205   3.999   3.388 -0.4583 -0.4716 -0.3494
28663SOL    HW197967  10.271   3.946   3.430  2.0942  0.7499 -2.5239
28663SOL    HW297968  10.225   4.089   3.414 -2.0362 -0.1484 -0.1049
28664SOL     OW97969   3.714   9.137   2.926  0.3861  1.1591 -0.4950
28664SOL    HW197970   3.724   9.153   3.020 -1.3836 -2.2107  0.4226
28664SOL    HW297971   3.658   9.208   2.895  0.7260  2.1461  1.0576
28665SOL     OW97972   6.526   4.808   4.363 -0.0130  0.1293  1.2172
28665SOL    HW197973   6.610   4.854   4.357 -0.5929  1.2886  1.5504
28665SOL    HW297974   6.505   4.783   4.273  0.2574  0.6531  1.0031
28666SOL     OW97975   3.728   5.423   9.130  0.1616 -0.4609  0.4349
28666SOL    HW197976   3.800   5.485   9.144 -0.5049  0.2369  0.8564
28666SOL    HW297977   3.665   5.471   9.076 -0.4099 -0.7330  0.8492
28667SOL     OW97978  10.316   8.843   8.295  0.0681 -0.0490 -0.1576
28667SOL    HW197979  10.365   8.762   8.303 -0.1502 -0.4728 -2.3440
28667SOL    HW297980  10.309   8.857   8.200 -3.3233  0.4129  0.0504
28668SOL     OW97981   9.695   9.804   8.503  0.4788 -0.6271  1.0007
28668SOL    HW197982   9.646   9.880   8.473  1.7905 -0.1015  0.1432
28668SOL    HW297983   9.637   9.762   8.567 -1.4603 -0.5111 -0.5706
28669SOL     OW97984   6.542   4.040   7.400 -0.5975 -0.0745 -0.3261
28669SOL    HW197985   6.561   3.953   7.435 -0.6304  0.3756  0.8636
28669SOL    HW297986   6.626   4.085   7.401 -1.0426  0.7868  1.6632
28670SOL     OW97987  10.280   2.094   0.310 -0.5487  0.1202  0.1618
28670SOL    HW197988  10.336   2.025   0.344 -0.0366 -0.2384 -1.3320
28670SOL    HW297989  10.210   2.048   0.264 -0.6025  0.5769 -0.2324
28671SOL     OW97990   8.517   5.013   8.326  0.2010 -0.1151  0.7069
28671SOL    HW197991   8.533   5.055   8.410  0.1298  0.8623  0.2370
28671SOL    HW297992   8.575   5.058   8.265 -0.9643  0.3268 -0.1002
28672SOL     OW97993   3.089   7.594   0.401  0.4600 -0.3494  0.7030
28672SOL    HW197994   3.094   7.631   0.489 -0.4374 -0.1686  0.6856
28672SOL    HW297995   3.040   7.513   0.412 -0.4527  0.1269  0.2392
28673SOL     OW97996   8.847   0.657   1.589  0.3676  0.3194 -0.2618
28673SOL    HW197997   8.864   0.645   1.682 -1.6695 -0.6486  0.0483
28673SOL    HW297998   8.841   0.752   1.578 -0.5387  0.4151  0.8554
28674SOL     OW97999   5.724   7.326   5.083 -0.4571 -0.4735  0.1454
28674SOL    HW198000   5.704   7.349   4.993  0.7888 -0.1198 -0.0642
28674SOL    HW298001   5.650   7.273   5.112 -0.1277 -2.0065 -1.6208
28675SOL     OW98002   6.160   0.757   8.261 -0.4446 -0.1489 -0.3921
28675SOL    HW198003   6.168   0.776   8.354 -2.9793 -1.4396  0.1883
28675SOL    HW298004   6.096   0.821   8.229 -0.2753 -0.2957 -1.0480
28676SOL     OW98005  10.059   3.927   3.913 -0.2817 -0.2185  0.0675
28676SOL    HW198006  10.088   4.014   3.940 -1.2554  0.1526 -0.0437
28676SOL    HW298007  10.140   3.881   3.891  0.2892  0.4736  0.6494
28677SOL     OW98008   9.063   7.067   9.173  0.0579 -0.1263 -0.5726
28677SOL    HW198009   9.025   7.065   9.260  0.4389  0.1686 -0.3908
28677SOL    HW298010   8.991   7.049   9.113 -0.0727 -0.9880 -0.1575
28678SOL     OW98011   1.094   5.400   2.180 -0.3617  0.5777 -0.0948
28678SOL    HW198012   1.000   5.386   2.180 -0.1870 -0.7551  0.0872
28678SOL    HW298013   1.118   5.405   2.087 -0.3566 -1.1278 -0.2044
28679SOL     OW98014   8.855   0.051  10.163 -0.2437 -0.2496  0.2544
28679SOL    HW198015   8.782  -0.009  10.147 -1.2995  1.2727 -0.8927
28679SOL    HW298016   8.815   0.124  10.210  0.7458  0.1980  0.4133
28680SOL     OW98017   8.411   0.069   0.783 -0.4384  0.2445 -0.4533
28680SOL    HW198018   8.315   0.069   0.785 -0.5256 -0.2059 -2.4292
28680SOL    HW298019   8.433   0.137   0.719  0.5669  0.3880  0.0298
28681SOL     OW98020   5.724   9.074   7.295 -0.1526 -0.5680  0.8745
28681SOL    HW198021   5.798   9.135   7.290 -1.0287  0.3778 -2.3186
28681SOL    HW298022   5.763   8.988   7.276  0.1594 -0.0281 -1.1810
28682SOL     OW98023   4.638   0.347   8.456  0.2230  0.0517  0.2189
28682SOL    HW198024   4.600   0.305   8.378  2.1771 -0.0531 -0.7296
28682SOL    HW298025   4.690   0.278   8.497  1.2262  0.7889  0.2039
28683SOL     OW98026   1.448   9.168   8.567  0.4338  0.1298  0.3955
28683SOL    HW198027   1.463   9.244   8.623 -1.0339  0.5086  0.3153
28683SOL    HW298028   1.439   9.095   8.627  0.6315  0.2317  0.5492
28684SOL     OW98029  10.210   4.205   6.711 -0.1663 -0.0891 -0.0019
28684SOL    HW198030  10.209   4.118   6.671 -0.2193  0.1777 -0.5832
28684SOL    HW298031  10.265   4.194   6.789  0.2133 -0.5342 -0.3212
28685SOL     OW98032   8.274   7.026   1.328 -0.0244 -0.5334  0.0283
28685SOL    HW198033   8.260   7.100   1.268  0.6157 -1.0370 -0.7676
28685SOL    HW298034   8.195   7.023   1.382 -0.6561 -0.1169 -0.8517
28686SOL     OW98035   5.416   8.361   6.023  0.0438 -0.3187  0.3135
28686SOL    HW198036   5.393   8.305   6.097  0.1007 -2.4519 -1.2048
28686SOL    HW298037   5.332   8.391   5.989 -0.0514 -0.5850  0.3122
28687SOL     OW98038   6.601   7.349   3.438  0.2280  0.2713  0.7450
28687SOL    HW198039   6.582   7.282   3.372 -0.3730 -0.0341  1.2180
28687SOL    HW298040   6.645   7.418   3.389  1.1202 -0.5759  0.2939
28688SOL     OW98041   9.375   4.933   3.698 -0.4259 -0.4320 -0.1502
28688SOL    HW198042   9.291   4.888   3.697 -0.4906 -0.3097 -1.1599
28688SOL    HW298043   9.436   4.872   3.656 -0.0652 -0.4122  0.3346
28689SOL     OW98044   7.650   0.364  10.113  0.7744  0.8522  0.3703
28689SOL    HW198045   7.745   0.350  10.111  0.5821 -0.5972 -1.9652
28689SOL    HW298046   7.637   0.448  10.070  1.0611  1.9101  2.2552
28690SOL     OW98047   9.624   3.196   2.383  0.1572 -0.4057  0.0770
28690SOL    HW198048   9.576   3.125   2.426  1.7266 -0.5316  1.7332
28690SOL    HW298049   9.703   3.155   2.348 -0.5036 -0.0609 -1.9064
28691SOL     OW98050   5.354   6.278   6.527 -0.6547  0.2310  0.5951
28691SOL    HW198051   5.447   6.276   6.505 -0.5995  2.4496  0.3416
28691SOL    HW298052   5.310   6.298   6.444 -1.0940  1.5876  1.1241
28692SOL     OW98053   2.988  10.200   7.443 -0.3563 -0.1883  0.1314
28692SOL    HW198054   2.914  10.170   7.390 -0.0204 -1.9369  0.5725
28692SOL    HW298055   2.955  10.198   7.533 -0.3719  0.9989  0.1621
28693SOL     OW98056   9.582   4.094   5.702  0.2263  0.0652 -0.4088
28693SOL    HW198057   9.657   4.108   5.760 -0.9517 -2.6249  2.0204
28693SOL    HW298058   9.615   4.038   5.632  0.8245  0.1624 -0.2110
28694SOL     OW98059   0.178   4.016   1.215  0.1084  0.7192  0.2069
28694SOL    HW198060   0.248   4.059   1.167  0.3558 -0.5873 -0.6545
28694SOL    HW298061   0.121   3.981   1.148  0.0559 -0.5117  0.8692
28695SOL     OW98062   6.496   8.939   4.286 -0.0257  0.0063 -0.7334
28695SOL    HW198063   6.496   9.002   4.214  1.0964  1.2344  0.2871
28695SOL    HW298064   6.403   8.924   4.304 -0.3234  0.8244 -1.4658
28696SOL     OW98065   0.448   1.459   6.030 -0.0765 -0.5159 -0.0321
28696SOL    HW198066   0.365   1.493   5.998 -0.5537 -1.2782  0.3624
28696SOL    HW298067   0.466   1.383   5.975  0.4157 -0.2983 -0.1806
28697SOL     OW98068   4.648   1.043   5.066 -0.0057 -0.2584  0.3308
28697SOL    HW198069   4.649   1.138   5.071  1.1715 -0.3016  1.3359
28697SOL    HW298070   4.740   1.017   5.070 -0.1103 -1.3712 -2.2317
28698SOL     OW98071   2.962   4.715   9.704  0.6111 -0.4544 -0.0579
28698SOL    HW198072   2.933   4.695   9.615  0.2731 -0.4036  0.0421
28698SOL    HW298073   2.900   4.671   9.761  0.1679  0.4273  0.1584
28699SOL     OW98074   8.272   7.263   3.834  0.7456 -0.2575 -0.8763
28699SOL    HW198075   8.246   7.349   3.867  2.2196  0.2027 -0.8553
28699SOL    HW298076   8.358   7.247   3.872 -0.2012 -2.5314  0.5003
28700SOL     OW98077   5.223   1.206   7.195  0.0066 -0.7638  0.1204
28700SOL    HW198078   5.304   1.162   7.219 -0.9008 -2.6596 -0.1710
28700SOL    HW298079   5.155   1.160   7.243 -1.2336 -1.1626 -1.9371
28701SOL     OW98080   2.440   7.660  10.114 -0.1160 -0.2166 -0.1736
28701SOL    HW198081   2.402   7.627  10.033  2.8858 -1.3524 -1.2462
28701SOL    HW298082   2.465   7.750  10.094 -1.3225  0.2428  0.2614
28702SOL     OW98083   3.431   6.270   6.904  0.0815 -0.8376  0.1356
28702SOL    HW198084   3.338   6.279   6.924 -0.0348  1.9983 -1.1593
28702SOL    HW298085   3.470   6.353   6.931  1.9605 -1.3908 -0.6802
28703SOL     OW98086   0.864   3.613   2.873  0.3497 -0.0685 -0.0839
28703SOL    HW198087   0.876   3.687   2.813  3.3668  1.2080  1.8599
28703SOL    HW298088   0.850   3.653   2.959 -0.2934 -1.8211  0.6866
28704SOL     OW98089   2.465   9.345   6.745  0.2063 -0.2581  0.2339
28704SOL    HW198090   2.545   9.317   6.788  0.5292 -0.4040 -0.4385
28704SOL    HW298091   2.474   9.314   6.655 -0.0746  0.7550 -0.1618
28705SOL     OW98092   6.202   0.587   3.755  0.2520  0.2858 -0.1232
28705SOL    HW198093   6.289   0.567   3.721 -0.6791 -1.1740 -1.8473
28705SOL    HW298094   6.212   0.585   3.850  1.5459 -2.7574 -0.2209
28706SOL     OW98095   4.499   7.451   2.074 -0.0792  0.1511 -0.2304
28706SOL    HW198096   4.537   7.529   2.036  0.4949 -0.0558 -0.0876
28706SOL    HW298097   4.560   7.425   2.143 -1.2314  0.6758  1.0397
28707SOL     OW98098   7.213   8.078   3.861  0.0991  0.3723  0.6393
28707SOL    HW198099   7.234   8.149   3.922  1.4194 -0.4866  1.2413
28707SOL    HW298100   7.158   8.019   3.913  1.2975 -0.4037  1.0576
28708SOL     OW98101   3.439   8.642   9.389 -0.1615 -0.0571 -0.9315
28708SOL    HW198102   3.494   8.715   9.360 -1.8302  1.2739 -0.9162
28708SOL    HW298103   3.351   8.666   9.361 -1.1700 -0.8142  1.3677
28709SOL     OW98104   4.677   6.310   7.650 -0.2264 -0.6442  0.0641
28709SOL    HW198105   4.618   6.279   7.720  0.2870 -1.0907  0.3050
28709SOL    HW298106   4.625   6.301   7.570 -0.5784 -0.7892  0.3059
28710SOL     OW98107   2.818   6.186   8.870  0.2299 -0.3154  0.4660
28710SOL    HW198108   2.765   6.107   8.857 -1.2098  0.7566 -0.4230
28710SOL    HW298109   2.907   6.159   8.844 -0.3664 -1.4434 -0.5232
28711SOL     OW98110   0.016   1.322   7.159 -0.5551  0.3720  0.7769
28711SOL    HW198111   0.013   1.323   7.063 -0.5978  0.2897  0.7772
28711SOL    HW298112   0.004   1.414   7.184 -2.0677  0.1924  0.7526
28712SOL     OW98113   0.074   7.035   0.421  0.2170 -0.1965  0.2022
28712SOL    HW198114   0.019   7.111   0.439  2.0226  0.7298  2.3059
28712SOL    HW298115   0.049   6.971   0.488  0.8208 -0.2445  0.3870
28713SOL     OW98116   2.969   5.739   7.954 -0.4319  0.1224  0.2515
28713SOL    HW198117   3.007   5.759   7.868 -0.5015  1.4485  0.4988
28713SOL    HW298118   3.044   5.730   8.012 -0.4234  1.0040  0.3927
28714SOL     OW98119   5.690   9.611   1.152  0.1192  0.3360 -0.1077
28714SOL    HW198120   5.737   9.668   1.092  0.6382  1.1020  0.9995
28714SOL    HW298121   5.758   9.570   1.205 -0.3895  2.5222  2.4740
28715SOL     OW98122   1.088   2.699   6.783  0.0325 -0.2875  0.2456
28715SOL    HW198123   1.085   2.629   6.849  3.1104 -0.4140  0.3791
28715SOL    HW298124   1.040   2.662   6.708  1.6862 -2.6810  0.2453
28716SOL     OW98125   3.253   3.140   4.719  0.2033 -0.3203  0.4494
28716SOL    HW198126   3.320   3.121   4.654 -0.1734  1.2077 -0.4456
28716SOL    HW298127   3.299   3.191   4.786 -0.0307  0.7893 -0.1996
28717SOL     OW98128   4.101   4.094   1.220  0.0280  0.4243  0.4220
28717SOL    HW198129   4.142   4.109   1.134 -0.4481  0.4113  0.1914
28717SOL    HW298130   4.047   4.016   1.207  1.4285 -0.7305  1.2456
28718SOL     OW98131   5.966   3.845   1.587 -0.3343 -0.1522 -0.6818
28718SOL    HW198132   6.002   3.841   1.498  0.1948  0.1962 -0.4880
28718SOL    HW298133   5.883   3.892   1.577 -1.2125 -1.7497 -1.2743
28719SOL     OW98134   2.281   9.874   2.132  0.2603 -0.2113  0.0060
28719SOL    HW198135   2.313   9.792   2.168 -0.4725 -0.7446 -0.5240
28719SOL    HW298136   2.309   9.941   2.195 -0.6973 -1.0713  1.3837
28720SOL     OW98137   3.938   7.588   9.918 -0.3688  0.3981  0.5029
28720SOL    HW198138   3.851   7.627   9.911 -0.0923  1.0219  0.4478
28720SOL    HW298139   3.958   7.558   9.829 -0.3829  0.5767  0.4385
28721SOL     OW98140   9.306   7.220   2.015  0.0267 -0.4133  0.2242
28721SOL    HW198141   9.326   7.310   2.040  1.1491 -0.5488 -0.1400
28721SOL    HW298142   9.213   7.221   1.991 -0.1246  0.5041  0.8208
28722SOL     OW98143   6.302   3.599   9.893  0.2161 -0.5189  0.6502
28722SOL    HW198144   6.366   3.533   9.867  0.9672 -0.0177  1.2021
28722SOL    HW298145   6.345   3.682   9.878 -0.3491 -0.1708  0.9163
28723SOL     OW98146   9.267  10.057   3.807  0.4492 -0.4797  0.3673
28723SOL    HW198147   9.238  10.144   3.779  0.3632 -0.4916  0.4213
28723SOL    HW298148   9.218  10.040   3.887  0.5379 -0.5379  0.4096
28724SOL     OW98149   9.657   0.089   5.077  0.3155  0.4568 -0.4110
28724SOL    HW198150   9.725   0.093   5.145  0.2998  3.9539 -0.4239
28724SOL    HW298151   9.585   0.142   5.112  0.0703  1.8689 -2.8616
28725SOL     OW98152   0.674   7.945   3.978 -0.1983  0.2382 -0.2692
28725SOL    HW198153   0.600   7.947   4.039  1.5662  0.4216  2.0254
28725SOL    HW298154   0.678   8.033   3.942 -0.1009  0.7601  0.9517
28726SOL     OW98155   3.419   5.796   1.716  0.0407 -0.0416 -0.1470
28726SOL    HW198156   3.443   5.779   1.625 -0.6961 -2.2567  0.0100
28726SOL    HW298157   3.335   5.842   1.710 -0.3890 -0.8626 -0.5998
28727SOL     OW98158   7.026   0.327   1.300 -0.3546 -0.5034 -0.0216
28727SOL    HW198159   6.937   0.296   1.316 -0.8923  0.1264 -1.5631
28727SOL    HW298160   7.058   0.273   1.227 -0.2240  0.5497 -0.7769
28728SOL     OW98161   2.201   7.903   9.862  0.2164  0.7512 -0.0308
28728SOL    HW198162   2.148   7.824   9.852  0.1526  0.9178 -1.0412
28728SOL    HW298163   2.183   7.932   9.952 -1.4027  0.8005 -0.3399
28729SOL     OW98164   5.097   3.869   1.450 -0.5384  0.0093  0.0599
28729SOL    HW198165   5.009   3.851   1.417 -1.0517  2.0884  0.1472
28729SOL    HW298166   5.111   3.962   1.433  1.5444 -0.1937  0.3247
28730SOL     OW98167   7.988   2.880   0.086  0.1439 -0.0377  0.2622
28730SOL    HW198168   7.907   2.831   0.095  0.4440 -0.6162 -0.1481
28730SOL    HW298169   8.052   2.816   0.057  0.2424  0.8591 -1.6511
28731SOL     OW98170   7.300   4.222   1.740 -0.4411  0.3593  0.1751
28731SOL    HW198171   7.384   4.248   1.778 -0.5948 -0.6479  1.2776
28731SOL    HW298172   7.235   4.264   1.797 -0.6974  1.0240 -0.5943
28732SOL     OW98173   2.881   6.234   7.169 -0.8248 -0.1535 -0.3827
28732SOL    HW198174   2.969   6.271   7.177 -0.2081 -1.6574  0.2180
28732SOL    HW298175   2.837   6.290   7.105 -0.9763  3.4521  2.5280
28733SOL     OW98176   5.825   3.242   2.906  0.1804 -0.4888 -0.0436
28733SOL    HW198177   5.865   3.316   2.953 -0.7978 -0.8126  1.3615
28733SOL    HW298178   5.888   3.222   2.836  1.0767  0.8417  0.3309
28734SOL     OW98179   0.371   6.591   1.129  0.6240 -0.0707  0.0236
28734SOL    HW198180   0.350   6.594   1.036  1.0551  0.1015 -0.0718
28734SOL    HW298181   0.427   6.668   1.144  1.9029 -0.9924  0.0779
28735SOL     OW98182   8.124   6.665  10.081  0.2262  0.0437  0.7015
28735SOL    HW198183   8.072   6.727  10.133 -0.5391  0.4806 -0.5355
28735SOL    HW298184   8.214   6.697  10.089 -0.2894  2.0684 -0.8502
28736SOL     OW98185   4.771   5.620   6.269  0.1553  0.1888 -0.4780
28736SOL    HW198186   4.820   5.634   6.350  0.6849  1.0178 -0.9237
28736SOL    HW298187   4.829   5.569   6.214  0.1006  0.2700 -0.6127
28737SOL     OW98188   2.131   0.309   3.888  0.4903 -0.3031  0.2487
28737SOL    HW198189   2.039   0.289   3.907  0.2848 -1.2865 -1.4858
28737SOL    HW298190   2.178   0.290   3.969 -0.9599  1.3704  1.5467
28738SOL     OW98191   1.405   4.997   5.335 -0.7041  0.1164 -0.1070
28738SOL    HW198192   1.476   5.042   5.290  0.2264 -1.6721 -0.5353
28738SOL    HW298193   1.445   4.959   5.413 -1.7652  1.1068  0.9636
28739SOL     OW98194   6.969   5.435   6.055  0.2688  0.0524  0.1097
28739SOL    HW198195   6.876   5.455   6.054  0.5887  1.6980 -1.1047
28739SOL    HW298196   6.989   5.414   6.146 -1.0301  0.9921  0.6394
28740SOL     OW98197   9.747   7.445   0.631 -0.1762 -0.3443  0.6720
28740SOL    HW198198   9.804   7.492   0.691  0.2755  0.8114 -0.5954
28740SOL    HW298199   9.791   7.450   0.546 -0.1880 -2.9887  0.4346
28741SOL     OW98200   8.068   7.538   9.079  0.5533 -0.2111 -0.5499
28741SOL    HW198201   8.135   7.469   9.074  0.0141 -0.7103 -1.0496
28741SOL    HW298202   8.074   7.571   9.168 -1.8662 -3.6696  1.1386
28742SOL     OW98203   7.024   5.154   6.919 -0.2794  0.3116 -0.0573
28742SOL    HW198204   7.036   5.066   6.955 -2.2488 -1.0735 -2.4782
28742SOL    HW298205   7.085   5.160   6.846 -0.4052  0.8194 -0.1314
28743SOL     OW98206   9.958   0.962   1.418  0.3363  0.0866 -0.0425
28743SOL    HW198207   9.903   1.040   1.423 -0.2514 -0.2935 -0.4023
28743SOL    HW298208  10.011   0.975   1.339  1.5484  0.9428  0.8877
28744SOL     OW98209   2.930   2.601   3.562 -0.6379  0.3063  0.2892
28744SOL    HW198210   2.841   2.580   3.531 -0.3890  0.5575 -0.6198
28744SOL    HW298211   2.931   2.696   3.568  0.1579  0.4661 -1.6173
28745SOL     OW98212   4.463   6.427   7.125 -0.1074 -0.0180 -0.3878
28745SOL    HW198213   4.371   6.447   7.110  0.1563  2.4436  0.8141
28745SOL    HW298214   4.463   6.369   7.201 -0.6676 -0.7107 -0.8984
28746SOL     OW98215   6.873   3.127   7.340 -0.1174  0.0250  0.0697
28746SOL    HW198216   6.912   3.159   7.421 -0.4604 -1.1153  0.7045
28746SOL    HW298217   6.873   3.203   7.281  1.0226  0.6074  0.8006
28747SOL     OW98218   9.095   5.980  10.112 -0.6188 -0.7060  0.1895
28747SOL    HW198219   9.053   5.939  10.188 -0.5874 -0.7179  0.2009
28747SOL    HW298220   9.044   5.952  10.037 -0.9398 -0.3029  0.2543
28748SOL     OW98221   8.155   9.134   8.157  0.1171 -0.0018  0.3069
28748SOL    HW198222   8.084   9.084   8.198 -0.5272  0.8606  0.2774
28748SOL    HW298223   8.115   9.218   8.135  0.8958  0.1524 -0.5939
28749SOL     OW98224   3.269   7.011   3.029 -0.0155 -0.1623  0.4249
28749SOL    HW198225   3.326   6.961   3.088  0.7603  0.0394 -0.1295
28749SOL    HW298226   3.292   7.102   3.046  2.1354 -0.1210 -1.9398
28750SOL     OW98227   4.798   7.229   0.681  0.1480 -0.3208  0.6386
28750SOL    HW198228   4.729   7.163   0.676  0.3700 -0.4518 -1.6190
28750SOL    HW298229   4.859   7.195   0.747 -0.4028 -1.7341  0.4480
28751SOL     OW98230   2.963   2.458   1.505 -0.3554 -0.2396 -0.0319
28751SOL    HW198231   3.052   2.450   1.539 -0.4987  0.0871  0.4281
28751SOL    HW298232   2.955   2.387   1.442 -0.1358 -0.9285  0.7091
28752SOL     OW98233   0.947   4.580   6.344 -0.0276 -0.6455  0.1283
28752SOL    HW198234   0.985   4.668   6.341  0.4632 -0.8294  0.6864
28752SOL    HW298235   0.862   4.592   6.385 -0.5185 -0.2510 -0.9838
28753SOL     OW98236   1.314   4.201   8.140 -0.0410 -0.0283  0.3411
28753SOL    HW198237   1.257   4.243   8.205  0.3975  1.6430 -0.3031
28753SOL    HW298238   1.278   4.227   8.056  1.5213  0.9168 -0.0845
28754SOL     OW98239   8.773   3.363   4.662  0.2278 -0.4721  0.3348
28754SOL    HW198240   8.846   3.301   4.654 -0.2252 -0.8573 -1.0431
28754SOL    HW298241   8.810   3.447   4.634 -0.0016 -0.7880 -0.9422
28755SOL     OW98242   3.119   1.508   1.252  0.1134  0.6872 -0.0140
28755SOL    HW198243   3.132   1.494   1.158 -2.7025  2.8110 -0.8483
28755SOL    HW298244   3.061   1.437   1.279  1.3334 -0.2257  0.3050
28756SOL     OW98245   9.468   1.955   6.846 -0.5379 -0.4011 -0.3923
28756SOL    HW198246   9.389   1.918   6.886 -0.2435 -0.8381 -0.2061
28756SOL    HW298247   9.498   1.888   6.785 -0.4303 -0.1437 -0.6263
28757SOL     OW98248   1.497   6.382   9.568 -0.0130  0.4075 -0.0997
28757SOL    HW198249   1.548   6.463   9.570 -0.3220  0.6895 -1.9530
28757SOL    HW298250   1.406   6.410   9.569 -0.1536 -0.0233  1.2615
28758SOL     OW98251   4.801   6.219   2.413 -0.2143 -0.1819 -0.5266
28758SOL    HW198252   4.822   6.188   2.324 -0.2874 -0.6477 -0.3844
28758SOL    HW298253   4.824   6.312   2.412 -0.5005 -0.1102 -1.1302
28759SOL     OW98254   9.784   0.433  10.159 -0.6379  0.7688 -0.4576
28759SOL    HW198255   9.867   0.476  10.181 -1.1830  1.1793  0.9227
28759SOL    HW298256   9.777   0.362  10.222 -0.3476 -0.6242 -1.9304
28760SOL     OW98257   7.015   2.898   8.267  0.3696  0.3169  0.6396
28760SOL    HW198258   6.986   2.853   8.346 -1.9052 -0.1190 -0.3442
28760SOL    HW298259   6.999   2.991   8.285  1.9204  0.4530  1.4510
28761SOL     OW98260   9.858   2.487   6.374 -0.1696 -0.1919  0.7961
28761SOL    HW198261   9.919   2.554   6.343  0.7667 -1.1465  0.5427
28761SOL    HW298262   9.773   2.514   6.338 -0.0517  1.4845  1.6471
28762SOL     OW98263   7.480   6.111   7.867 -0.5887  0.2383  0.4123
28762SOL    HW198264   7.475   6.019   7.894  0.0158  0.5415  1.6189
28762SOL    HW298265   7.400   6.151   7.902  0.5411  0.7974  2.5643
28763SOL     OW98266   8.451   4.989   6.659  0.8130 -0.1306 -0.2861
28763SOL    HW198267   8.487   5.042   6.730  0.9231 -0.1005 -0.3631
28763SOL    HW298268   8.486   5.030   6.579 -3.0546  2.8556 -0.7559
28764SOL     OW98269   0.094   7.363   5.435 -0.0819  0.6384 -0.0994
28764SOL    HW198270   0.188   7.347   5.442 -0.2216  0.2230  1.1640
28764SOL    HW298271   0.056   7.277   5.418 -0.3751  0.4786  1.2564
28765SOL     OW98272   8.863   6.477   1.427  0.0082  0.1400  0.4566
28765SOL    HW198273   8.792   6.412   1.426  0.4906 -0.3925  0.0894
28765SOL    HW298274   8.849   6.528   1.347  0.2322 -0.1860  0.2055
28766SOL     OW98275   2.785   4.278   7.517  0.4276  0.5346 -0.3237
28766SOL    HW198276   2.793   4.217   7.444  0.3411  0.1484 -0.0103
28766SOL    HW298277   2.872   4.318   7.525  0.9406 -0.6920  0.4712
28767SOL     OW98278   2.066   3.048   3.768 -0.1598 -0.1678 -0.2202
28767SOL    HW198279   2.021   2.964   3.777 -1.8322  0.8914  2.3956
28767SOL    HW298280   2.133   3.047   3.837 -0.4948  0.7868  0.1390
28768SOL     OW98281   7.248   7.617   1.701 -0.2705 -0.2159 -0.1419
28768SOL    HW198282   7.260   7.529   1.737  1.4219 -0.1456 -0.4323
28768SOL    HW298283   7.317   7.625   1.635  0.3623  1.7278  0.6892
28769SOL     OW98284   9.888   8.164   8.125  0.4901 -0.2467  0.1564
28769SOL    HW198285   9.909   8.080   8.086 -0.3723  0.0843 -1.1069
28769SOL    HW298286   9.970   8.195   8.163  1.4153 -0.5820 -1.4747
28770SOL     OW98287   1.049   2.737   0.099  0.1430  0.7066  0.6569
28770SOL    HW198288   1.057   2.748   0.005 -0.0700  0.3835  0.5966
28770SOL    HW298289   1.065   2.824   0.136 -0.7011  1.0367  0.2698
28771SOL     OW98290   3.319   9.929   1.428 -0.6382 -0.8455 -0.0763
28771SOL    HW198291   3.277   9.848   1.454 -0.6365 -0.8945 -0.2239
28771SOL    HW298292   3.367   9.958   1.506 -1.8335 -0.2091  0.4525
28772SOL     OW98293   4.485   5.618   2.136  0.0684 -0.1185  0.5327
28772SOL    HW198294   4.460   5.560   2.208  0.4287  1.4068  1.9673
28772SOL    HW298295   4.542   5.684   2.177 -1.1320  1.8476 -0.7536
28773SOL     OW98296   6.835   7.405   0.047 -0.8629 -0.3283 -0.2122
28773SOL    HW198297   6.769   7.387  -0.020 -0.7227 -0.3778 -0.3401
28773SOL    HW298298   6.917   7.414  -0.003 -0.2560 -2.9415  0.1493
28774SOL     OW98299   5.449   0.552   2.359  0.3588 -0.0458  0.0980
28774SOL    HW198300   5.522   0.552   2.420  1.0748 -0.7044 -0.7353
28774SOL    HW298301   5.480   0.500   2.285  0.3707  2.5268 -1.8331
28775SOL     OW98302   1.166   0.609   7.546  0.3959 -0.2115 -0.4024
28775SOL    HW198303   1.238   0.628   7.606  0.7617  0.4922 -1.0446
28775SOL    HW298304   1.157   0.689   7.494  0.2136 -0.8778 -1.4108
28776SOL     OW98305   6.694   3.512   9.243 -0.0273  0.0103  0.4898
28776SOL    HW198306   6.772   3.460   9.260  1.2641  1.5985 -0.2583
28776SOL    HW298307   6.725   3.584   9.187 -2.3932 -0.3819 -1.5124
28777SOL     OW98308   1.737   7.128   0.125  0.0189  0.2693  0.0817
28777SOL    HW198309   1.668   7.192   0.142 -0.0199 -0.1913  1.8262
28777SOL    HW298310   1.707   7.081   0.047 -1.2802  0.5945  0.3654
28778SOL     OW98311   9.767   2.619   1.262 -0.3561  0.4263  0.5613
28778SOL    HW198312   9.689   2.569   1.237  1.2870 -1.2912 -1.6069
28778SOL    HW298313   9.773   2.689   1.197  2.2507 -2.2105 -2.3784
28779SOL     OW98314   2.328   9.041   2.323 -0.0226 -0.0582  0.3775
28779SOL    HW198315   2.404   9.057   2.380  0.6130 -0.3867 -0.3580
28779SOL    HW298316   2.351   8.962   2.274 -0.1633  0.7213 -0.9864
28780SOL     OW98317   6.962   8.496   1.889 -0.3230  0.0662 -0.9594
28780SOL    HW198318   7.009   8.578   1.877 -1.3240  1.3193  2.4257
28780SOL    HW298319   6.872   8.515   1.863 -0.2181 -0.4790 -1.7403
28781SOL     OW98320   4.166   8.621   1.104  0.0790  0.3479  0.3757
28781SOL    HW198321   4.166   8.696   1.044  0.2398 -0.6768 -0.9709
28781SOL    HW298322   4.095   8.565   1.071  0.3791 -0.3868  0.9625
28782SOL     OW98323   3.827   2.862   2.100 -0.5557 -0.0883 -0.2128
28782SOL    HW198324   3.909   2.820   2.125  1.5360  1.1692 -4.1060
28782SOL    HW298325   3.775   2.792   2.060  0.4268 -0.1784 -1.3980
28783SOL     OW98326   1.118  10.301   0.670 -0.3545  0.5175 -0.4863
28783SOL    HW198327   1.023  10.289   0.661 -0.2126  0.5357 -2.3510
28783SOL    HW298328   1.138  10.377   0.616  0.7215  0.5829 -0.0216
28784SOL     OW98329   7.367   0.818   4.252 -0.0511 -0.2558  0.5636
28784SOL    HW198330   7.303   0.849   4.187 -1.1326 -0.6568  1.3962
28784SOL    HW298331   7.340   0.862   4.333  0.4434 -0.8101  1.0304
28785SOL     OW98332   6.355   1.898   1.218 -0.2454  0.0115  0.0960
28785SOL    HW198333   6.304   1.941   1.150 -1.7284 -1.1274  0.4401
28785SOL    HW298334   6.383   1.815   1.179 -0.3260 -0.2424  0.5675
28786SOL     OW98335   2.428   2.953   7.444  0.4941  0.0573 -0.5855
28786SOL    HW198336   2.447   2.863   7.473 -1.5776  0.2160  1.6002
28786SOL    HW298337   2.342   2.948   7.403 -0.3020  1.1983  0.8303
28787SOL     OW98338   8.430   4.216   2.729  0.1181  1.0369  0.6836
28787SOL    HW198339   8.501   4.154   2.745 -0.3788 -0.1330 -1.3309
28787SOL    HW298340   8.351   4.171   2.759 -0.1901  0.8441 -0.3753
28788SOL     OW98341   4.135   8.744   9.071 -0.2558  0.3139  0.2005
28788SOL    HW198342   4.194   8.692   9.126  1.0511  1.2080 -0.3047
28788SOL    HW298343   4.095   8.680   9.012  0.2321 -0.3153  0.5330
28789SOL     OW98344   8.676   9.794   7.340  0.5647  0.2548 -0.4378
28789SOL    HW198345   8.634   9.711   7.320  0.0300  0.7078 -1.2462
28789SOL    HW298346   8.630   9.826   7.418  0.2584  0.1561 -0.5775
28790SOL     OW98347   1.945   5.611   1.108 -0.0643 -0.0681  0.1464
28790SOL    HW198348   1.876   5.625   1.172 -0.9804  0.7068 -0.9665
28790SOL    HW298349   1.935   5.683   1.046  1.1595 -0.4683 -0.5498
28791SOL     OW98350   8.471   7.907   3.791 -0.2120 -0.5522  0.0451
28791SOL    HW198351   8.558   7.890   3.827 -0.1130 -1.6863 -0.7047
28791SOL    HW298352   8.437   7.979   3.845  1.6060  0.6677 -0.3432
28792SOL     OW98353   8.746   7.481   9.670 -0.7614 -0.1714  0.2473
28792SOL    HW198354   8.697   7.432   9.736 -0.7373 -0.6237 -0.0679
28792SOL    HW298355   8.716   7.445   9.586 -0.2405 -0.1217  0.0373
28793SOL     OW98356  10.040   2.936   4.254  1.1214  0.1768  0.7215
28793SOL    HW198357   9.991   2.857   4.278 -0.9738  1.1492 -0.1941
28793SOL    HW298358  10.018   2.999   4.322  0.2743  0.9313 -0.2296
28794SOL     OW98359   8.132   0.928   0.707  0.0196 -0.0748  0.3135
28794SOL    HW198360   8.065   0.859   0.705 -1.4856  1.3454  0.2529
28794SOL    HW298361   8.160   0.931   0.798 -0.7030 -0.0435  0.5458
28795SOL     OW98362   2.133   4.390   4.616 -0.1820  0.1706 -0.0621
28795SOL    HW198363   2.085   4.468   4.645 -0.4379  0.5909 -1.5425
28795SOL    HW298364   2.093   4.318   4.665 -1.3809  0.6999 -0.2272
28796SOL     OW98365   2.039   6.993   3.954 -0.2507  0.3423 -0.7736
28796SOL    HW198366   2.099   6.946   3.896  0.8569  0.1755  0.4411
28796SOL    HW298367   1.957   6.944   3.949 -0.3401  0.6173 -2.5319
28797SOL     OW98368   7.895   4.555   7.777  0.4690  0.5846 -0.2249
28797SOL    HW198369   7.956   4.486   7.805 -0.6422 -0.7732 -1.0210
28797SOL    HW298370   7.880   4.537   7.684 -0.2734  1.5833 -0.3093
28798SOL     OW98371   0.600   7.785   6.708 -0.5830  0.2197  0.2418
28798SOL    HW198372   0.674   7.845   6.705 -1.6426  1.5598  0.3631
28798SOL    HW298373   0.607   7.735   6.627 -1.6739  2.9686 -1.6853
28799SOL     OW98374   8.724   5.808   1.793 -0.1505  0.1354 -0.2397
28799SOL    HW198375   8.687   5.860   1.721 -0.2337  0.5508  0.0998
28799SOL    HW298376   8.745   5.873   1.861 -2.8147 -0.4800  1.3324
28800SOL     OW98377   6.753   9.374   2.130 -0.1242  0.1429  0.2360
28800SOL    HW198378   6.709   9.353   2.048 -1.5018  1.5957  0.5434
28800SOL    HW298379   6.840   9.405   2.104  0.2141 -1.3615 -0.5032
28801SOL     OW98380   1.740   0.084   8.028  0.3973 -0.0562  0.2098
28801SOL    HW198381   1.831   0.072   8.002  0.8142 -1.1722  2.0155
28801SOL    HW298382   1.689   0.058   7.951  1.5662  2.1272 -1.4051
28802SOL     OW98383   4.288   0.653   5.317 -0.3183 -0.0753  0.0410
28802SOL    HW198384   4.265   0.740   5.348 -0.2320  0.1055 -0.3962
28802SOL    HW298385   4.230   0.638   5.242 -0.2776 -0.3623  0.0646
28803SOL     OW98386   9.365   4.470   6.930  0.2751 -0.4267  0.0638
28803SOL    HW198387   9.352   4.465   7.025  0.8868 -1.6962  0.1044
28803SOL    HW298388   9.433   4.405   6.912 -0.1204 -0.4894 -1.3063
28804SOL     OW98389   4.598   1.580   8.900  0.7006  0.2592 -0.2169
28804SOL    HW198390   4.652   1.659   8.906 -0.7416  1.6567 -3.3014
28804SOL    HW298391   4.510   1.610   8.923  0.3501 -0.7415 -0.2131
28805SOL     OW98392   9.778   3.087   8.543  0.2760 -0.0736  0.0823
28805SOL    HW198393   9.735   3.018   8.492  1.6714 -0.7680 -0.1980
28805SOL    HW298394   9.837   3.040   8.602  1.6490  0.8808 -0.4752
28806SOL     OW98395   3.816   9.012   1.717 -0.3067  0.0171  0.6258
28806SOL    HW198396   3.866   8.941   1.756 -1.8735 -1.7130 -0.3514
28806SOL    HW298397   3.763   9.046   1.790 -1.3501 -1.5036  0.6331
28807SOL     OW98398   2.739   7.363   7.977 -0.1912 -0.0503  0.1858
28807SOL    HW198399   2.753   7.284   8.031 -1.0354  1.5555  2.9706
28807SOL    HW298400   2.810   7.422   8.002  0.8636 -0.1053 -2.4233
28808SOL     OW98401   2.838   6.571   5.173 -0.0898  0.4825 -0.1749
28808SOL    HW198402   2.834   6.606   5.084 -0.5994 -0.2548 -0.4479
28808SOL    HW298403   2.891   6.634   5.221  0.2506  0.8498 -1.0195
28809SOL     OW98404   6.020   0.856  10.078  0.1657  0.0324 -0.5018
28809SOL    HW198405   6.078   0.853  10.154 -0.8344  1.0639  0.3400
28809SOL    HW298406   6.043   0.779  10.027  3.4219  1.2591 -1.0811
28810SOL     OW98407   6.581   4.700   1.755 -0.0752  0.0117 -0.4344
28810SOL    HW198408   6.636   4.717   1.831  0.4716 -1.0733 -0.5634
28810SOL    HW298409   6.517   4.771   1.755 -0.1178 -0.0043  1.0591
28811SOL     OW98410   1.734   4.482   0.175  0.1905  0.6171 -0.3275
28811SOL    HW198411   1.798   4.414   0.152  0.0298 -0.3103  1.7575
28811SOL    HW298412   1.689   4.501   0.092  1.5859 -0.3609 -1.3636
28812SOL     OW98413   1.723   1.679   2.045  0.1961 -0.0232  0.3376
28812SOL    HW198414   1.716   1.624   2.123 -0.0086 -0.6371 -0.1077
28812SOL    HW298415   1.651   1.742   2.053  0.4285  0.1758  0.8482
28813SOL     OW98416   7.609   0.463   2.659 -0.0193  0.1694 -0.3010
28813SOL    HW198417   7.607   0.372   2.691 -0.2998  0.0848 -0.5480
28813SOL    HW298418   7.680   0.504   2.708 -0.3608  0.0102  0.3373
28814SOL     OW98419   4.833   8.721   1.075 -0.7302  0.2233 -0.2036
28814SOL    HW198420   4.924   8.712   1.047 -0.9766  0.8862 -1.2773
28814SOL    HW298421   4.832   8.802   1.126 -0.2232 -1.1341  2.0827
28815SOL     OW98422   7.081   8.285   4.650  0.1063  0.1358 -0.5046
28815SOL    HW198423   7.040   8.285   4.737 -1.1485 -0.5525 -1.0748
28815SOL    HW298424   7.173   8.305   4.668  0.3502 -2.1013  1.2334
28816SOL     OW98425   9.007   2.504   3.563  0.4398 -0.6730  0.0152
28816SOL    HW198426   9.026   2.595   3.586 -1.1917 -0.3896  0.3884
28816SOL    HW298427   9.090   2.458   3.574  1.9113  1.1601 -2.3477
28817SOL     OW98428   2.952   8.037   9.304  0.0143  0.0096 -0.6438
28817SOL    HW198429   3.001   8.019   9.224  0.9731 -1.4963  0.2267
28817SOL    HW298430   3.009   8.092   9.356  0.2812 -0.7269 -0.1442
28818SOL     OW98431   7.295   6.704   5.195  0.3214  0.5299 -0.5893
28818SOL    HW198432   7.203   6.730   5.196  0.5906  1.5279 -1.0886
28818SOL    HW298433   7.293   6.610   5.179 -0.6896  0.1311  1.4518
28819SOL     OW98434   6.580   8.668   1.071 -0.2967 -0.0434 -0.1986
28819SOL    HW198435   6.618   8.584   1.097  0.1956  0.2742  0.1332
28819SOL    HW298436   6.572   8.662   0.976  1.7071  0.3106 -0.4460
28820SOL     OW98437   9.968   6.015   9.542 -0.1831  0.0074 -0.1735
28820SOL    HW198438  10.022   5.983   9.470  1.1520  0.2711  0.6924
28820SOL    HW298439   9.907   6.076   9.500 -0.0698 -0.5608 -1.2150
28821SOL     OW98440   8.463   1.380   1.926  0.3847  0.1275  0.0835
28821SOL    HW198441   8.552   1.350   1.946  1.1798  1.2734 -1.5583
28821SOL    HW298442   8.460   1.469   1.962 -0.1435  0.0574  0.2120
28822SOL     OW98443   1.792   8.138   7.502 -0.6031 -0.1886  0.4010
28822SOL    HW198444   1.832   8.054   7.480 -3.0364 -1.2908 -0.1722
28822SOL    HW298445   1.761   8.172   7.419  0.6319  1.4959  0.5819
28823SOL     OW98446   8.735   5.580   3.229 -0.5890 -0.5609  0.0871
28823SOL    HW198447   8.685   5.501   3.249 -1.1065 -1.0599 -2.7417
28823SOL    HW298448   8.808   5.548   3.175 -0.3715  0.8053 -0.4546
28824SOL     OW98449   7.421   1.541   0.771  0.2226  0.4284  0.2126
28824SOL    HW198450   7.492   1.592   0.731  0.3377 -0.7137 -1.0839
28824SOL    HW298451   7.377   1.498   0.698 -0.7107 -0.3014  1.1606
28825SOL     OW98452   7.893   6.237   7.804 -0.1281  0.0629  0.0862
28825SOL    HW198453   7.924   6.187   7.880 -0.8229  1.1285  1.0937
28825SOL    HW298454   7.966   6.295   7.782  1.3678 -2.4305 -2.1508
28826SOL     OW98455   1.851   5.425   6.433  0.2040  0.7020 -0.1897
28826SOL    HW198456   1.820   5.499   6.382  0.1439 -0.1374 -1.3994
28826SOL    HW298457   1.942   5.413   6.405  0.1381  0.1688 -0.1819
28827SOL     OW98458   4.926   6.142   6.376 -0.3210 -0.0737 -0.6144
28827SOL    HW198459   5.004   6.100   6.413  0.0302  1.8141  0.9702
28827SOL    HW298460   4.854   6.108   6.429 -0.1910  0.3516 -0.1547
28828SOL     OW98461   6.399   5.896   7.566  0.4804 -0.1962 -0.5221
28828SOL    HW198462   6.432   5.838   7.634  1.2752  0.0953 -0.6569
28828SOL    HW298463   6.437   5.861   7.485  2.2813  1.4312 -0.4415
28829SOL     OW98464   1.205   1.738   4.116 -0.3558  0.0579  0.1529
28829SOL    HW198465   1.165   1.823   4.098  0.0085  0.3286  0.5925
28829SOL    HW298466   1.205   1.731   4.211  1.0848  0.2964  0.1945
28830SOL     OW98467   1.937   3.386   5.589 -0.6572 -0.3379  0.2036
28830SOL    HW198468   2.023   3.348   5.605  1.0180  2.4488 -1.3082
28830SOL    HW298469   1.909   3.420   5.675 -0.8199 -2.1846  0.9207
28831SOL     OW98470   3.422  10.019   6.885 -0.3820  0.6031 -0.0403
28831SOL    HW198471   3.404  10.090   6.947 -0.3322  1.3445 -0.8501
28831SOL    HW298472   3.509   9.988   6.909  0.4941  2.2201 -0.9530
28832SOL     OW98473   8.514   0.733   9.468  0.1486 -0.0550 -0.0590
28832SOL    HW198474   8.605   0.761   9.481 -0.3268  1.2789  0.6679
28832SOL    HW298475   8.485   0.782   9.391  0.1483 -0.7673 -0.5200
28833SOL     OW98476  10.157  10.250   8.671 -0.3853  0.3104 -0.8722
28833SOL    HW198477  10.190  10.174   8.719 -0.1047  0.0499 -1.4570
28833SOL    HW298478  10.210  10.252   8.591 -2.0650 -0.3858 -2.0652
28834SOL     OW98479   8.732   7.993  10.079  0.4070 -0.5751 -0.0545
28834SOL    HW198480   8.755   7.900  10.075  0.2338 -0.5855 -0.8697
28834SOL    HW298481   8.686   8.010   9.997  1.4083  0.4942 -0.4222
28835SOL     OW98482  10.010   0.859   8.211 -0.3497 -0.0781 -0.4378
28835SOL    HW198483  10.096   0.895   8.194 -1.4373  2.1163 -1.7700
28835SOL    HW298484   9.991   0.805   8.134 -0.1101 -0.6726 -0.0805
28836SOL     OW98485   5.243   8.431   8.584  0.3138 -0.1237 -0.0563
28836SOL    HW198486   5.330   8.417   8.622 -0.0045  0.4477  0.9206
28836SOL    HW298487   5.194   8.474   8.653 -0.8431 -0.6992 -0.5000
28837SOL     OW98488   0.953   3.197   8.483  0.3036  0.0586  0.0210
28837SOL    HW198489   0.967   3.145   8.562 -0.0768  0.0609  0.0929
28837SOL    HW298490   1.040   3.209   8.447  1.0054  3.1068  2.3426
28838SOL     OW98491   1.600   2.796   9.598  0.1492 -0.2847  0.3391
28838SOL    HW198492   1.641   2.808   9.684  0.3735  0.4356  0.1345
28838SOL    HW298493   1.616   2.878   9.551  0.4620 -0.8467 -0.5730
28839SOL     OW98494   2.047   3.220   2.572  0.5799  0.0599  0.1009
28839SOL    HW198495   2.086   3.152   2.626 -0.4873  0.6389  1.6834
28839SOL    HW298496   2.099   3.299   2.592 -0.1507  0.3949  0.7269
28840SOL     OW98497   5.840   0.596   8.508  0.2507 -0.0059  0.5396
28840SOL    HW198498   5.844   0.562   8.598  1.7764 -0.5123  0.3127
28840SOL    HW298499   5.921   0.565   8.467 -1.2504 -1.4419 -1.6122
28841SOL     OW98500   5.303   9.230   9.217  0.0273 -0.4122 -0.4402
28841SOL    HW198501   5.270   9.210   9.304  0.1756  0.2914 -0.2124
28841SOL    HW298502   5.245   9.183   9.158  1.0019 -2.3647  0.0758
28842SOL     OW98503   2.345   2.296   4.393 -0.0727  0.4993 -0.5345
28842SOL    HW198504   2.348   2.246   4.474  2.3263 -1.1352 -1.5117
28842SOL    HW298505   2.412   2.363   4.403  1.0459 -0.4215 -1.5265
28843SOL     OW98506   8.133   0.080   5.577 -0.2014 -0.4601  0.0512
28843SOL    HW198507   8.055   0.046   5.621 -0.4179 -0.0719 -0.0309
28843SOL    HW298508   8.183   0.123   5.647 -1.2019  1.3547 -0.2987
28844SOL     OW98509   3.848   9.596   4.110  0.7313  0.3214 -0.4436
28844SOL    HW198510   3.829   9.690   4.106  2.6013  0.8897  1.6222
28844SOL    HW298511   3.873   9.572   4.021  0.3787  1.8147 -0.9642
28845SOL     OW98512   3.551   8.887   9.404  0.2526 -0.2459 -0.5800
28845SOL    HW198513   3.493   8.933   9.343  0.1559  2.6601  1.5127
28845SOL    HW298514   3.519   8.910   9.491  2.9711 -0.6509  0.6451
28846SOL     OW98515   3.014   0.262   2.360 -0.0890 -0.3781  0.0071
28846SOL    HW198516   3.049   0.204   2.293  1.2011 -1.1397  1.3131
28846SOL    HW298517   3.055   0.347   2.342 -1.6957  0.1404 -1.6697
28847SOL     OW98518  10.374   9.403   2.213 -0.0760  0.3478  0.0222
28847SOL    HW198519  10.432   9.345   2.164  0.3027  0.9261 -0.2274
28847SOL    HW298520  10.291   9.400   2.166  1.5249  4.6852 -3.8377
28848SOL     OW98521   2.553   9.178   8.737  0.5190 -0.0012 -0.0124
28848SOL    HW198522   2.596   9.122   8.671  0.3010 -0.2643  0.0671
28848SOL    HW298523   2.495   9.234   8.687 -1.9663 -2.2440  0.1520
28849SOL     OW98524   6.830   7.426   7.987  0.0303  0.4666 -0.1973
28849SOL    HW198525   6.744   7.468   7.987 -0.5082 -0.6124 -0.0759
28849SOL    HW298526   6.813   7.337   8.016  0.8244 -0.4735 -2.4357
28850SOL     OW98527   1.418   5.949   6.412  0.2906 -0.5987  0.6595
28850SOL    HW198528   1.415   5.884   6.341 -2.8975 -0.9437  0.9670
28850SOL    HW298529   1.411   6.033   6.367 -0.5960 -0.7641  0.4619
28851SOL     OW98530   5.653   3.803   1.215 -0.0984  0.4719  0.4633
28851SOL    HW198531   5.725   3.863   1.195  0.4570  0.3113  1.8476
28851SOL    HW298532   5.690   3.715   1.200 -0.1977  0.4074  0.5909
28852SOL     OW98533  10.333   6.432   0.402  0.6386  0.1071  0.3699
28852SOL    HW198534  10.241   6.457   0.409  0.4676 -0.2384 -0.5496
28852SOL    HW298535  10.380   6.497   0.454  0.1864  2.1869 -1.6743
28853SOL     OW98536   8.388   2.685   0.364 -0.2051 -0.1727 -0.0716
28853SOL    HW198537   8.396   2.600   0.407  0.3636 -0.0195  0.1322
28853SOL    HW298538   8.294   2.705   0.368 -0.4852 -1.1954 -0.9198
28854SOL     OW98539   2.371   0.096   2.911 -0.3632 -0.0982 -0.3839
28854SOL    HW198540   2.349   0.076   3.002  1.4201  0.4824  0.2098
28854SOL    HW298541   2.286   0.104   2.867 -1.2437 -1.8485  0.8803
28855SOL     OW98542   3.048   5.274   2.154  0.3827  0.2451 -0.2424
28855SOL    HW198543   3.001   5.356   2.168 -0.2360 -0.0565 -0.4638
28855SOL    HW298544   3.138   5.292   2.178  0.0605  0.7239  0.6562
28856SOL     OW98545   8.711   1.333  10.113 -0.0227 -0.1095 -0.1224
28856SOL    HW198546   8.786   1.348  10.055  0.5588 -0.0642  0.6264
28856SOL    HW298547   8.744   1.353  10.200 -0.1766 -2.4445  0.5420
28857SOL     OW98548   8.061   0.674   8.285 -0.4979 -0.1232 -0.0994
28857SOL    HW198549   8.156   0.666   8.274 -0.3910 -2.2674  1.7036
28857SOL    HW298550   8.025   0.602   8.233 -1.4686  2.2418 -3.0454
28858SOL     OW98551   4.374   7.435   9.752  0.3965 -0.5158  0.2082
28858SOL    HW198552   4.306   7.498   9.776  1.2794 -0.7464  3.8962
28858SOL    HW298553   4.348   7.404   9.666 -3.5367  0.2233  0.9359
28859SOL     OW98554   5.313   4.103   6.015  0.1383  0.2060  0.1366
28859SOL    HW198555   5.281   4.111   5.926 -0.0057 -1.8661 -0.0372
28859SOL    HW298556   5.280   4.019   6.046  3.0492 -0.7774  0.9070
28860SOL     OW98557   5.665   7.643   4.747  0.2620 -0.2723 -0.8356
28860SOL    HW198558   5.608   7.648   4.824 -1.0314  1.9631 -1.8441
28860SOL    HW298559   5.721   7.720   4.752  0.8987 -0.6633 -1.6013
28861SOL     OW98560   6.656   7.049  10.208  0.5155  0.4239  0.3505
28861SOL    HW198561   6.584   7.086  10.157  0.4024 -1.8916 -1.3703
28861SOL    HW298562   6.720   7.119  10.216  0.0062  1.2389 -2.0469
28862SOL     OW98563   8.798   4.017   7.843  0.2683  0.1169 -0.1959
28862SOL    HW198564   8.751   3.998   7.762  1.4013  0.2148 -0.8994
28862SOL    HW298565   8.889   3.997   7.823  0.3999 -1.2440  1.4971
28863SOL     OW98566   2.040   2.364   6.883  0.3217 -0.7666  0.9510
28863SOL    HW198567   2.088   2.421   6.823 -0.2902  1.4494  2.4136
28863SOL    HW298568   2.101   2.293   6.904  0.9349 -0.9831 -1.3350
28864SOL     OW98569   9.172   7.082   3.119 -0.4587  0.0982 -0.8832
28864SOL    HW198570   9.213   7.059   3.036  1.6694 -0.3120  0.2098
28864SOL    HW298571   9.135   7.169   3.104  1.5096  0.8330 -1.7314
28865SOL     OW98572   6.570   9.798  10.232 -0.4869  0.1154  0.6315
28865SOL    HW198573   6.651   9.789  10.282 -0.5346  1.3640  0.9700
28865SOL    HW298574   6.596   9.789  10.141 -0.1488 -0.5589  0.7864
28866SOL     OW98575   1.429   6.173   5.328  0.0143  0.2912 -0.2339
28866SOL    HW198576   1.358   6.156   5.390  1.7960  0.2513  1.9440
28866SOL    HW298577   1.398   6.136   5.245 -2.0611 -0.6403  0.8679
28867SOL     OW98578   6.238   0.782   0.892 -0.0677  0.2842  0.3222
28867SOL    HW198579   6.188   0.709   0.928 -0.5029  0.9078  1.0161
28867SOL    HW298580   6.183   0.859   0.908  1.4347  1.1187  1.8260
28868SOL     OW98581   2.767   8.938   6.012 -0.0986 -0.2879 -0.0194
28868SOL    HW198582   2.706   8.993   6.061 -0.6696  0.0187 -1.0323
28868SOL    HW298583   2.850   8.984   6.015 -0.2126 -0.1055  0.3636
28869SOL     OW98584   1.978   4.163   6.904  0.3347  0.4262  0.4543
28869SOL    HW198585   2.029   4.132   6.978  0.9501 -0.2155 -0.2267
28869SOL    HW298586   1.930   4.086   6.873  1.7786  0.1029 -1.1634
28870SOL     OW98587   0.715   0.002   2.850  0.2617  0.2022 -0.2206
28870SOL    HW198588   0.803   0.014   2.814  0.6405  3.1216  1.3871
28870SOL    HW298589   0.730  -0.033   2.938 -0.3057 -0.4791 -0.3805
28871SOL     OW98590   2.483   4.474   1.151  0.5230 -0.7791 -0.0263
28871SOL    HW198591   2.398   4.452   1.113  1.0422 -2.0139 -0.5289
28871SOL    HW298592   2.527   4.389   1.162  1.6033 -0.1800  0.4151
28872SOL     OW98593   8.995   7.993   8.680 -0.3805 -0.3604  0.0714
28872SOL    HW198594   9.074   8.046   8.693  0.1142 -1.3421  1.2742
28872SOL    HW298595   9.027   7.903   8.679 -1.4990 -0.7895  0.8502
28873SOL     OW98596   1.760   8.753   0.453 -1.2595  0.3125 -0.1683
28873SOL    HW198597   1.784   8.845   0.447 -0.1684  0.0013 -0.6768
28873SOL    HW298598   1.716   8.734   0.370 -0.0408 -0.0310 -0.7425
28874SOL     OW98599   6.310   8.025   6.886  0.1432 -1.3140  0.0605
28874SOL    HW198600   6.289   8.085   6.814 -2.0469 -3.3520 -1.1787
28874SOL    HW298601   6.405   8.029   6.894  0.2906  0.3634 -1.6915
28875SOL     OW98602   9.212   8.866   0.581  0.0723 -0.5087  0.1134
28875SOL    HW198603   9.212   8.851   0.675 -1.7763 -0.1610  0.2079
28875SOL    HW298604   9.149   8.936   0.568 -0.0852 -0.8992 -1.4434
28876SOL     OW98605   0.925   6.179   0.885  0.2812  0.5783 -0.1691
28876SOL    HW198606   1.007   6.134   0.867 -0.7445 -1.1640 -0.7381
28876SOL    HW298607   0.878   6.121   0.945 -1.2871  0.6265 -1.2913
28877SOL     OW98608   7.484   8.635   7.586 -0.3215 -0.0995  0.2688
28877SOL    HW198609   7.458   8.651   7.676  1.1138 -1.8655  1.0426
28877SOL    HW298610   7.446   8.550   7.564 -0.0407 -0.0216 -0.5539
28878SOL     OW98611   4.520   6.217   7.834 -0.4290  0.0616  0.1322
28878SOL    HW198612   4.564   6.178   7.910  0.4578  0.4484 -0.1677
28878SOL    HW298613   4.442   6.258   7.870  0.5287  1.1867  1.0482
28879SOL     OW98614   0.470   4.551   5.806 -0.1233 -0.1626  0.0705
28879SOL    HW198615   0.415   4.511   5.873 -0.4645  0.3484  0.0978
28879SOL    HW298616   0.422   4.538   5.725 -0.6470  0.9368  0.1944
28880SOL     OW98617   3.013   8.444  10.148 -0.0297 -0.0112  0.0938
28880SOL    HW198618   3.048   8.519  10.100  2.6481 -0.5167  1.0730
28880SOL    HW298619   3.088   8.408  10.194 -1.8617 -1.3671  2.2641
28881SOL     OW98620   3.633   7.647   2.532  0.1753 -0.4413 -1.0896
28881SOL    HW198621   3.620   7.681   2.444 -0.6986 -0.8349 -1.1270
28881SOL    HW298622   3.641   7.552   2.521  1.6107 -0.3570 -0.8916
28882SOL     OW98623   0.008   6.807   5.211  0.4321  0.5071  0.3408
28882SOL    HW198624  -0.038   6.723   5.215  0.9878  0.1275 -0.8769
28882SOL    HW298625   0.070   6.804   5.284  2.0040 -1.1156 -0.9765
28883SOL     OW98626   9.248   8.805   0.893  0.5308  0.4269 -0.3347
28883SOL    HW198627   9.228   8.878   0.952 -1.2153 -0.2555 -0.0175
28883SOL    HW298628   9.342   8.793   0.902  0.6009  1.5759  0.8743
28884SOL     OW98629   5.597  10.377   4.920  0.5865  0.0702  0.3344
28884SOL    HW198630   5.643  10.300   4.954 -0.0606 -0.4924 -0.0350
28884SOL    HW298631   5.511  10.373   4.961  0.1032 -0.1296 -0.6707
28885SOL     OW98632   2.036   7.328   7.929  0.0248  0.3521  0.3463
28885SOL    HW198633   2.057   7.390   7.999 -0.5248  1.1249 -0.1564
28885SOL    HW298634   2.047   7.242   7.969 -0.0886  0.7806  1.3216
28886SOL     OW98635   5.390   9.609   4.795  0.5137 -0.0066  0.0783
28886SOL    HW198636   5.439   9.688   4.775  1.2968  0.2310  2.5560
28886SOL    HW298637   5.455   9.538   4.789  0.2974 -0.1890 -0.1504
28887SOL     OW98638   1.722   7.711   6.148  0.0069  0.0259  0.3488
28887SOL    HW198639   1.747   7.794   6.108  0.3514 -0.2400  0.0024
28887SOL    HW298640   1.779   7.646   6.107 -0.1927 -0.3704  0.6827
28888SOL     OW98641   0.739   6.024   3.416 -0.3627 -0.2128  0.1329
28888SOL    HW198642   0.746   6.043   3.509  0.0429  0.2121  0.0187
28888SOL    HW298643   0.823   6.051   3.379 -1.1528  1.3421 -0.6351
28889SOL     OW98644   8.349   6.006   0.097 -0.6779  0.2539  0.2033
28889SOL    HW198645   8.426   6.060   0.112 -1.2292  1.4775 -1.1274
28889SOL    HW298646   8.279   6.069   0.077 -2.3625 -0.7230  2.5549
28890SOL     OW98647   3.225   7.658   3.348  0.1009  0.4728  0.0718
28890SOL    HW198648   3.296   7.662   3.412  0.2285  1.4293 -0.1224
28890SOL    HW298649   3.190   7.569   3.358  1.4203 -0.0765  0.0458
28891SOL     OW98650   5.159   4.485   1.262  0.2513  0.2848 -0.6922
28891SOL    HW198651   5.172   4.400   1.304  1.1296  0.0304 -1.4537
28891SOL    HW298652   5.143   4.545   1.335 -2.4518 -0.8408 -0.2278
28892SOL     OW98653   3.060   8.414   9.306  0.0891 -0.7356 -0.0291
28892SOL    HW198654   3.026   8.371   9.227  1.7516 -1.0290 -0.6224
28892SOL    HW298655   2.982   8.433   9.358 -1.0894 -0.3412 -1.8233
28893SOL     OW98656   0.081   7.180   6.922 -0.5377 -0.1544  0.1043
28893SOL    HW198657   0.059   7.233   6.998 -1.9499 -0.5368 -0.0142
28893SOL    HW298658   0.104   7.244   6.854 -1.0837  0.2677  0.3129
28894SOL     OW98659   7.136   6.759   0.543  0.2018  0.1353 -0.2050
28894SOL    HW198660   7.065   6.694   0.538  0.1554  0.1454  0.2436
28894SOL    HW298661   7.131   6.792   0.633 -2.9756  4.3577 -1.5920
28895SOL     OW98662   7.905   4.209   6.439  0.3099  0.3081 -0.1006
28895SOL    HW198663   7.817   4.240   6.461  0.8168  0.4790  1.9562
28895SOL    HW298664   7.952   4.286   6.409  0.2637  0.6098  0.5819
28896SOL     OW98665   9.988   7.895   2.158 -0.1845 -0.6444  0.2645
28896SOL    HW198666   9.935   7.884   2.237 -1.6405 -1.5664 -0.7881
28896SOL    HW298667  10.032   7.811   2.147  1.7516  0.1917  1.2595
28897SOL     OW98668   0.417   9.638   6.191  0.2045 -0.1536  1.0979
28897SOL    HW198669   0.349   9.580   6.157 -0.1471  0.8745 -0.0417
28897SOL    HW298670   0.368   9.707   6.236  0.4955  0.3506  0.6579
28898SOL     OW98671   8.019   0.288   5.427  0.3531 -0.3582  0.4367
28898SOL    HW198672   8.034   0.248   5.513 -1.0239 -0.0104  0.8592
28898SOL    HW298673   7.953   0.355   5.442  1.5227  1.1023 -0.5411
28899SOL     OW98674   0.120   0.070   0.784 -0.6614 -0.3918 -0.5651
28899SOL    HW198675   0.069  -0.006   0.757 -2.2418  0.7722 -1.0133
28899SOL    HW298676   0.097   0.083   0.876 -0.6180 -0.2718 -0.5711
28900SOL     OW98677   4.275   7.351   5.572 -0.4832 -0.0352  0.1125
28900SOL    HW198678   4.325   7.433   5.572 -1.8593  0.8334 -0.5366
28900SOL    HW298679   4.287   7.316   5.661  1.0662  0.2463  0.0444
28901SOL     OW98680   3.532   1.577  10.248 -0.2306  0.0585 -0.2945
28901SOL    HW198681   3.530   1.514  10.320  0.0107  0.9704  0.5228
28901SOL    HW298682   3.446   1.619  10.250 -0.6376 -0.6814 -1.2588
28902SOL     OW98683   0.122   7.739   5.311  0.3932  0.2529 -0.6727
28902SOL    HW198684   0.073   7.758   5.391 -0.4864 -0.6861 -0.9684
28902SOL    HW298685   0.214   7.750   5.336  0.1789 -0.7786  0.6921
28903SOL     OW98686  10.126   7.881   1.532  0.4389  0.8347  0.1323
28903SOL    HW198687  10.195   7.891   1.466  1.4312  2.2985  1.3204
28903SOL    HW298688  10.167   7.831   1.602 -0.7676 -1.1722 -0.4808
28904SOL     OW98689   0.865   9.071   7.636  1.3509  0.4526 -0.1098
28904SOL    HW198690   0.931   9.134   7.663  2.5648  0.0372 -1.9147
28904SOL    HW298691   0.910   9.015   7.572 -0.4510 -0.5004 -0.6180
28905SOL     OW98692   4.704  10.024   1.275 -0.1757 -0.4575 -0.0789
28905SOL    HW198693   4.784  10.042   1.226 -0.0516 -1.1037 -0.1112
28905SOL    HW298694   4.664   9.949   1.232 -0.9690  0.0486 -0.2598
28906SOL     OW98695   2.336   3.322   0.332  0.4492  0.0147 -0.3121
28906SOL    HW198696   2.373   3.396   0.380  2.6728 -0.7296 -0.7597
28906SOL    HW298697   2.241   3.332   0.341  0.7212  0.4697  3.3778
28907SOL     OW98698   5.119   4.210   6.468 -0.2603 -0.7462 -0.3429
28907SOL    HW198699   5.215   4.216   6.476 -0.1651 -2.3924  0.2403
28907SOL    HW298700   5.105   4.134   6.411 -1.2256 -0.7202 -0.1552
28908SOL     OW98701   9.943   7.850   3.796  0.1769 -0.5491 -0.0663
28908SOL    HW198702   9.931   7.945   3.790  0.3927 -0.5350 -0.2957
28908SOL    HW298703   9.976   7.835   3.884  0.5397 -0.3672 -0.1699
28909SOL     OW98704   0.920   4.329  10.099  0.3295  0.5079  0.1734
28909SOL    HW198705   0.925   4.237  10.124 -0.4232  0.1643 -0.8817
28909SOL    HW298706   0.905   4.376  10.182  2.1830 -0.1331  0.9308
28910SOL     OW98707   2.009   9.437   7.735  0.2402 -0.1436  0.3817
28910SOL    HW198708   2.100   9.465   7.731 -0.0635  0.7698 -0.7251
28910SOL    HW298709   1.967   9.500   7.793  0.1921 -0.2169  0.4269
28911SOL     OW98710   5.439   0.188   3.259  0.3607  0.3909  0.4315
28911SOL    HW198711   5.532   0.165   3.257  0.4667  0.8184 -1.5799
28911SOL    HW298712   5.435   0.265   3.315  1.0726 -0.1464  1.2561
28912SOL     OW98713   8.583   3.591   9.211 -0.2039  0.7549  0.2353
28912SOL    HW198714   8.665   3.638   9.222  0.5416  0.0947 -1.9787
28912SOL    HW298715   8.591   3.547   9.127 -2.4678 -0.1073  0.3819
28913SOL     OW98716   0.821   5.003   8.246 -0.1314  0.4126  0.3441
28913SOL    HW198717   0.820   4.916   8.207 -2.7662 -0.3207  1.7966
28913SOL    HW298718   0.893   5.000   8.309  0.7975 -0.1477 -0.7128
28914SOL     OW98719  10.067   2.446   8.011 -0.3007  0.0101  0.5002
28914SOL    HW198720  10.111   2.469   8.093 -0.0179  0.5231  0.2081
28914SOL    HW298721  10.051   2.352   8.018  1.5287 -0.3647  0.3080
28915SOL     OW98722   4.278   6.399   1.879  0.9912 -0.2059  0.1628
28915SOL    HW198723   4.307   6.336   1.944  0.2550  0.2354  0.9484
28915SOL    HW298724   4.325   6.480   1.901  0.3720  0.0801  0.4713
28916SOL     OW98725  10.288   5.675   2.308  0.2870 -0.4652  0.1759
28916SOL    HW198726  10.298   5.619   2.232 -0.9390  0.4347 -0.6917
28916SOL    HW298727  10.342   5.752   2.289 -1.0781  0.3794 -0.4541
28917SOL     OW98728   7.920   8.859   3.697  0.6375  0.3144 -0.1891
28917SOL    HW198729   7.861   8.910   3.641  0.8740 -0.5309 -1.2231
28917SOL    HW298730   7.996   8.840   3.642 -0.3889 -3.0852 -0.6673
28918SOL     OW98731   1.832   3.034   4.482 -0.4174  0.4177  0.2786
28918SOL    HW198732   1.856   3.049   4.573  2.3047 -0.0225 -0.2792
28918SOL    HW298733   1.916   3.028   4.436 -1.6574  3.5158 -2.7770
28919SOL     OW98734   5.147   9.496   2.838 -0.0725 -0.1425  0.7679
28919SOL    HW198735   5.170   9.517   2.929  1.4386 -1.5072  0.7649
28919SOL    HW298736   5.125   9.403   2.841 -0.3157 -0.1162 -0.2066
28920SOL     OW98737   7.096   1.291   8.791 -0.1915  0.0435  0.2386
28920SOL    HW198738   7.157   1.251   8.730  0.6455 -0.3922  1.3363
28920SOL    HW298739   7.011   1.254   8.767 -0.0088  0.4524 -1.1257
28921SOL     OW98740   5.989   9.821   6.483  0.0434 -0.0740  0.1126
28921SOL    HW198741   5.936   9.745   6.507  1.1627 -1.4069 -1.4012
28921SOL    HW298742   5.966   9.840   6.392  0.3673  0.8979  0.2163
28922SOL     OW98743   4.668   3.928   1.447 -0.1028 -0.3147 -0.1426
28922SOL    HW198744   4.635   4.016   1.429 -1.6209 -1.1912 -2.0494
28922SOL    HW298745   4.758   3.929   1.414 -0.5352  0.1823 -1.3606
28923SOL     OW98746   6.400   0.676  10.177 -0.0514 -0.2849 -0.3775
28923SOL    HW198747   6.335   0.633  10.232 -0.8729 -0.1126 -1.1883
28923SOL    HW298748   6.353   0.696  10.096  0.5461  1.3622 -0.3563
28924SOL     OW98749   9.722   9.718   4.609 -0.0473 -0.6792  0.2256
28924SOL    HW198750   9.664   9.775   4.558 -2.3059 -0.9039  2.3414
28924SOL    HW298751   9.711   9.631   4.570 -0.1799 -0.4909 -0.1639
28925SOL     OW98752   8.007   4.615   0.606 -0.2584  0.1002  0.1842
28925SOL    HW198753   7.925   4.658   0.634 -0.1082  0.5420 -0.0473
28925SOL    HW298754   8.051   4.592   0.688 -1.9588 -2.8407  0.4101
28926SOL     OW98755   5.619   1.422   5.196  0.1555 -0.0518 -0.2147
28926SOL    HW198756   5.580   1.474   5.126 -0.7456  0.7172  0.8221
28926SOL    HW298757   5.606   1.475   5.275  1.2474 -0.8414  0.5247
28927SOL     OW98758   3.152   2.199   9.623  0.6886 -0.3861 -0.8708
28927SOL    HW198759   3.178   2.238   9.707  0.9302 -0.9423 -0.6790
28927SOL    HW298760   3.061   2.173   9.636  0.8664 -0.9024 -0.6100
28928SOL     OW98761   4.381   8.169   8.383 -0.0008  0.2231 -0.4842
28928SOL    HW198762   4.305   8.225   8.398 -0.1757 -0.3318  0.8649
28928SOL    HW298763   4.455   8.230   8.378 -0.1755  0.6143  1.0902
28929SOL     OW98764   9.742   1.821   2.094 -0.3718  0.3272 -0.0860
28929SOL    HW198765   9.806   1.764   2.051  2.5922  1.7254  2.1201
28929SOL    HW298766   9.755   1.907   2.054 -1.1108  0.5763  0.1884
28930SOL     OW98767   4.509   5.832   3.125 -0.3841  0.3937  0.2388
28930SOL    HW198768   4.469   5.768   3.066 -0.4116  1.1441 -0.5760
28930SOL    HW298769   4.512   5.913   3.074  1.5056  0.5533  0.5227
28931SOL     OW98770   3.256   6.266   6.674  0.7020 -0.4787  0.3617
28931SOL    HW198771   3.220   6.180   6.698  1.9091 -1.1899 -0.2807
28931SOL    HW298772   3.316   6.287   6.745 -1.9479  1.4194  2.2303
28932SOL     OW98773   8.028   9.543   6.778 -0.1252  0.4449 -0.8780
28932SOL    HW198774   8.069   9.457   6.770 -1.1894  0.0321 -2.3198
28932SOL    HW298775   8.079   9.588   6.846  0.4563 -1.3016 -0.0967
28933SOL     OW98776   8.105   3.490   1.453  0.4995 -0.1408 -0.1508
28933SOL    HW198777   8.158   3.445   1.387  1.4138  0.0601  0.4326
28933SOL    HW298778   8.039   3.426   1.479  0.5347 -0.4409 -0.7762
28934SOL     OW98779   1.922   5.510   5.814  0.6540  0.5145 -0.0810
28934SOL    HW198780   1.923   5.567   5.738 -0.1164  1.0243  0.2805
28934SOL    HW298781   1.995   5.540   5.868  0.2888  1.1307  0.0794
28935SOL     OW98782   4.402   9.160   0.970 -0.1044 -0.0720  0.0174
28935SOL    HW198783   4.469   9.112   0.922  0.6373 -0.5085  1.4183
28935SOL    HW298784   4.328   9.167   0.910  1.4306  1.0615 -1.8509
28936SOL     OW98785   2.737  10.249   2.526  0.0886  0.0832 -0.1374
28936SOL    HW198786   2.757  10.238   2.619 -0.1281  1.5354  0.1034
28936SOL    HW298787   2.680  10.325   2.522  0.8047  0.5877 -1.5513
28937SOL     OW98788   1.483   3.042   9.820 -0.2263 -0.1685  0.4622
28937SOL    HW198789   1.447   2.976   9.762  1.3146  1.0690 -2.0778
28937SOL    HW298790   1.556   2.998   9.864 -0.5222 -0.7356  0.3949
28938SOL     OW98791   4.229   0.264  10.068 -0.0218 -0.5666  0.0156
28938SOL    HW198792   4.163   0.292  10.005  0.0745 -1.3329 -0.4395
28938SOL    HW298793   4.302   0.323  10.054  0.6451 -1.7178 -1.7676
28939SOL     OW98794   3.328   6.122   7.209  0.3962  0.1495 -0.3373
28939SOL    HW198795   3.268   6.102   7.137 -0.1691  0.7069 -0.0340
28939SOL    HW298796   3.413   6.094   7.177  0.1168  0.1533 -1.1270
28940SOL     OW98797   7.677   4.992   8.927  0.1296 -0.0671  0.1332
28940SOL    HW198798   7.741   4.931   8.963  0.3635  0.4616  0.6249
28940SOL    HW298799   7.593   4.947   8.935  0.1988 -0.0307  1.1743
28941SOL     OW98800   4.856   8.334   1.025  0.3468 -1.0479  0.2646
28941SOL    HW198801   4.888   8.330   1.115  0.3199  0.2287  0.3559
28941SOL    HW298802   4.762   8.319   1.032  0.1378  0.2476  0.6286
28942SOL     OW98803   3.648   6.003   5.609  0.5926  0.6217 -0.1934
28942SOL    HW198804   3.718   6.046   5.659 -1.1800  2.6481  0.7041
28942SOL    HW298805   3.597   5.957   5.676  1.3009 -1.3035 -0.9088
28943SOL     OW98806   0.044   2.823   7.751 -0.2328 -0.0744 -0.1919
28943SOL    HW198807   0.049   2.834   7.846 -3.4682 -0.3879  0.1207
28943SOL    HW298808   0.071   2.732   7.736  0.4125  0.0115  0.3901
28944SOL     OW98809   1.382   8.489   7.281  0.7331 -0.1470 -0.2433
28944SOL    HW198810   1.298   8.510   7.323  0.3797 -0.6230 -0.7111
28944SOL    HW298811   1.437   8.565   7.301  0.7902 -0.6425  1.6441
28945SOL     OW98812   4.167   8.213   5.130 -0.3253  0.6626 -0.0038
28945SOL    HW198813   4.163   8.129   5.174 -0.6371 -0.2035 -1.5858
28945SOL    HW298814   4.252   8.249   5.153  0.7400 -1.0824 -0.9823
28946SOL     OW98815   7.133   5.565   7.249  0.1263 -0.1637  0.4046
28946SOL    HW198816   7.127   5.536   7.340 -0.5753  2.3526  1.2640
28946SOL    HW298817   7.080   5.503   7.200 -0.3129 -1.0008  1.8847
28947SOL     OW98818   6.791   9.339   3.633  0.3523  0.1371 -0.2993
28947SOL    HW198819   6.752   9.277   3.694  0.8308  0.2474  0.1242
28947SOL    HW298820   6.754   9.315   3.548 -0.2924 -0.0350  0.0253
28948SOL     OW98821   0.496   8.022   9.542 -0.2081 -0.8926  0.1127
28948SOL    HW198822   0.566   8.079   9.573  0.2101 -1.0293 -0.5646
28948SOL    HW298823   0.487   8.042   9.449 -1.9780  0.0841  0.4401
28949SOL     OW98824   5.279   9.147   6.384 -0.8521  0.1552 -0.5162
28949SOL    HW198825   5.333   9.201   6.442 -0.2385 -2.3393  1.3669
28949SOL    HW298826   5.196   9.137   6.430 -0.1815 -2.2751  0.2807
28950SOL     OW98827   3.530   3.567   8.079  0.3022 -0.0973 -0.0081
28950SOL    HW198828   3.581   3.573   7.999  3.9590 -0.4615  2.0669
28950SOL    HW298829   3.516   3.473   8.092  0.9405 -0.1414  0.4239
28951SOL     OW98830   7.794   4.089   1.685 -0.1935 -0.1582 -0.0125
28951SOL    HW198831   7.789   4.184   1.672  0.5332  0.1190  1.4649
28951SOL    HW298832   7.832   4.056   1.603 -1.9788  0.5961 -1.2042
28952SOL     OW98833   3.784   2.534   1.149  0.1414 -0.2123 -0.0866
28952SOL    HW198834   3.736   2.491   1.220  1.6357 -2.1712 -0.1909
28952SOL    HW298835   3.783   2.470   1.078  0.3510  0.9406 -1.1547
28953SOL     OW98836   9.081   2.054   0.504  0.1750  0.1072 -0.0992
28953SOL    HW198837   9.147   2.058   0.573  0.3163  0.3993 -0.2502
28953SOL    HW298838   9.130   2.071   0.423 -0.0265 -0.0202 -0.2484
28954SOL     OW98839   0.365   0.552   4.367 -0.4620 -0.2236  0.3111
28954SOL    HW198840   0.455   0.562   4.398 -0.8015  0.1173  1.2483
28954SOL    HW298841   0.356   0.615   4.296  0.0990 -0.3940  0.0901
28955SOL     OW98842   1.110   9.311   9.537  0.1841  0.3229 -0.4227
28955SOL    HW198843   1.057   9.372   9.589 -1.7224 -0.1761 -1.6534
28955SOL    HW298844   1.097   9.340   9.447  0.0698 -1.2760 -0.9397
28956SOL     OW98845   9.630   0.733   6.576 -0.3548  0.2585  0.3624
28956SOL    HW198846   9.620   0.825   6.552  0.0192  0.1310 -0.3200
28956SOL    HW298847   9.724   0.719   6.578 -0.4097 -0.4175 -0.8197
28957SOL     OW98848   6.350   0.881   3.598  0.0729 -0.3953 -0.1165
28957SOL    HW198849   6.353   0.788   3.618  1.3067 -0.5506 -0.8987
28957SOL    HW298850   6.290   0.918   3.662 -0.7559 -1.7899 -0.0542
28958SOL     OW98851   1.813  10.304   1.069 -0.9549 -0.0734 -0.0265
28958SOL    HW198852   1.806  10.288   1.163 -2.5779  0.7952  0.0452
28958SOL    HW298853   1.859  10.228   1.035  0.2326 -0.1143  1.5372
28959SOL     OW98854   4.200   0.985   4.773  0.2425  0.3848  0.4328
28959SOL    HW198855   4.147   0.980   4.853  0.5231 -2.8769  0.5597
28959SOL    HW298856   4.146   0.944   4.706  1.7253 -1.0716  0.0692
28960SOL     OW98857   6.593   8.525   8.499 -0.0666  0.2212 -0.0418
28960SOL    HW198858   6.615   8.503   8.589  2.1559  0.9500 -0.3528
28960SOL    HW298859   6.610   8.619   8.492  1.3925 -0.1040 -1.5941
28961SOL     OW98860   9.658   7.200   3.190  0.0316  0.4113  0.2788
28961SOL    HW198861   9.626   7.118   3.227 -0.9846  0.8057  0.3051
28961SOL    HW298862   9.743   7.177   3.150 -0.7189 -0.8992 -0.6477
28962SOL     OW98863   1.184   5.253   3.867  0.4073 -0.0431  0.0710
28962SOL    HW198864   1.276   5.251   3.894  0.8185 -0.3406 -1.2676
28962SOL    HW298865   1.171   5.171   3.821 -0.3895  0.2435 -0.2272
28963SOL     OW98866   0.685   6.387   3.754  0.1083  0.1626 -0.9172
28963SOL    HW198867   0.605   6.440   3.753 -2.0971 -2.8177  0.5682
28963SOL    HW298868   0.683   6.339   3.671 -0.2973 -0.7127 -0.4182
28964SOL     OW98869   0.237   8.451   0.063  0.0891 -0.4528  0.4787
28964SOL    HW198870   0.311   8.392   0.052  0.5364  0.0726  0.6142
28964SOL    HW298871   0.232   8.499  -0.020 -0.0952 -0.4811  0.4732
28965SOL     OW98872   0.584   0.025   4.377  0.1487 -0.2313 -0.8191
28965SOL    HW198873   0.595  -0.044   4.312  2.5352  0.7245 -1.5612
28965SOL    HW298874   0.585  -0.021   4.461  1.3419 -1.1849 -1.3122
28966SOL     OW98875   2.305   9.417   9.292  0.3785  0.8686 -0.0156
28966SOL    HW198876   2.251   9.385   9.220 -0.6595  1.2049  0.6027
28966SOL    HW298877   2.246   9.470   9.345  1.1971  0.8448  0.9405
28967SOL     OW98878   6.905   1.409   1.913  0.1900  0.1438  0.1156
28967SOL    HW198879   6.825   1.411   1.965  0.0051 -0.4468 -0.1429
28967SOL    HW298880   6.970   1.371   1.973 -0.0692 -0.7186 -0.1338
28968SOL     OW98881   6.642   5.632   1.196 -0.7839 -0.4464  0.6650
28968SOL    HW198882   6.680   5.544   1.188  1.5049  0.4327  1.1932
28968SOL    HW298883   6.709   5.690   1.162 -2.1235  1.1717  0.6522
28969SOL     OW98884   1.087   9.361   6.273 -0.1900  0.0616 -0.4887
28969SOL    HW198885   1.137   9.281   6.252 -2.5178 -0.9369 -2.7724
28969SOL    HW298886   1.148   9.432   6.253  1.6678 -1.0866  0.7701
28970SOL     OW98887   8.739   4.400   5.615 -0.3901  0.3160  0.0705
28970SOL    HW198888   8.766   4.465   5.550 -0.9627 -0.0648 -0.5723
28970SOL    HW298889   8.646   4.417   5.628 -0.5607 -0.3945 -0.1488
28971SOL     OW98890   7.439   3.871   5.262 -0.1189  0.5660  0.2647
28971SOL    HW198891   7.480   3.856   5.177 -2.1641  2.1866 -1.0876
28971SOL    HW298892   7.474   3.956   5.291 -1.3034  1.2103 -0.1615
28972SOL     OW98893   0.657   8.353   0.422  0.6349 -0.0497 -0.1493
28972SOL    HW198894   0.713   8.335   0.347 -0.4413 -1.2410 -0.7109
28972SOL    HW298895   0.717   8.356   0.497  1.5669 -0.1145 -0.8747
28973SOL     OW98896   1.962   0.115   0.246 -0.1268 -0.3744 -0.1118
28973SOL    HW198897   1.929   0.075   0.326  1.7372 -1.5541  0.1263
28973SOL    HW298898   2.009   0.193   0.275  1.9020 -1.6376  0.1914
28974SOL     OW98899   2.630   9.562   5.245 -0.4589  0.5390  0.4358
28974SOL    HW198900   2.566   9.511   5.197 -0.5903  1.2064 -0.1183
28974SOL    HW298901   2.582   9.594   5.322 -0.4490  0.0667  0.6434
28975SOL     OW98902   1.588   7.689   2.337  0.5382  0.0352  0.2563
28975SOL    HW198903   1.528   7.705   2.410  1.3997 -3.4190  1.9201
28975SOL    HW298904   1.530   7.672   2.262 -0.3759  2.4283  0.3291
28976SOL     OW98905   5.325   4.923   1.985 -0.2035  0.6185  0.2386
28976SOL    HW198906   5.402   4.957   2.031 -0.0391 -0.6653  0.9414
28976SOL    HW298907   5.257   4.988   2.002  0.5825  1.5165  0.0264
28977SOL     OW98908   3.908   3.286   9.757 -0.4934 -0.3813 -0.0218
28977SOL    HW198909   3.928   3.235   9.678 -0.0388  1.3881 -1.1169
28977SOL    HW298910   3.993   3.307   9.795 -0.5337  1.1775 -0.7084
28978SOL     OW98911  10.167   1.904   8.534 -0.0099  0.1433  0.1139
28978SOL    HW198912  10.095   1.863   8.485 -0.6995 -0.2553  1.4092
28978SOL    HW298913  10.191   1.981   8.482 -2.3228  1.0783  0.3193
28979SOL     OW98914   3.617   6.751   4.696 -0.1162 -0.0249  0.1821
28979SOL    HW198915   3.548   6.715   4.640 -1.3651  0.1070  1.5704
28979SOL    HW298916   3.578   6.829   4.735  1.4787  1.0943 -0.3891
28980SOL     OW98917   3.101  10.363   5.285 -0.4752  0.1747 -0.0338
28980SOL    HW198918   3.013  10.325   5.294 -0.0664 -1.0081 -0.6917
28980SOL    HW298919   3.097  10.411   5.202 -0.9127  1.3642  0.6614
28981SOL     OW98920   6.749   0.654   8.613 -0.0786  0.0631  0.1272
28981SOL    HW198921   6.800   0.581   8.576  1.3512  0.8295  0.4915
28981SOL    HW298922   6.683   0.674   8.547  0.1853 -0.8789 -0.4386
28982SOL     OW98923   6.167   1.587   1.296 -0.0065  0.4561 -0.3714
28982SOL    HW198924   6.146   1.649   1.226 -0.8637  0.8070  0.1754
28982SOL    HW298925   6.210   1.514   1.251  0.4758  1.1760 -1.1065
28983SOL     OW98926   4.025   9.085   7.556 -0.4197  0.1412 -0.2962
28983SOL    HW198927   4.111   9.060   7.588 -1.2536 -1.7171  0.6981
28983SOL    HW298928   4.007   9.169   7.598  0.3945 -0.0678  0.5033
28984SOL     OW98929   1.823   4.428   5.964 -0.1086 -0.4249  0.3064
28984SOL    HW198930   1.906   4.431   6.012 -0.7071 -0.2075  1.3482
28984SOL    HW298931   1.838   4.483   5.887  1.7150 -2.7948 -1.1896
28985SOL     OW98932   5.077   8.210   5.681  0.3091 -0.1311  0.4964
28985SOL    HW198933   5.005   8.149   5.663  0.2058  0.1078  0.0942
28985SOL    HW298934   5.156   8.156   5.678  0.2561 -0.1736 -0.2727
28986SOL     OW98935   3.867   7.977   1.865  0.1083  0.3201  0.4937
28986SOL    HW198936   3.838   8.058   1.822  0.7302 -0.2774 -1.1531
28986SOL    HW298937   3.953   7.997   1.900 -0.1979  0.6788  1.0456
28987SOL     OW98938   3.542   1.664   4.474 -0.0216 -0.6305  0.0640
28987SOL    HW198939   3.518   1.698   4.561  0.1439  1.8759 -0.7828
28987SOL    HW298940   3.495   1.720   4.413  2.2565 -0.3100 -1.5119
28988SOL     OW98941   6.662   8.094   1.960  0.2418  0.3959  0.2806
28988SOL    HW198942   6.641   8.143   1.881  1.2091  1.4504  0.6420
28988SOL    HW298943   6.583   8.044   1.980 -0.5532  1.3205 -0.4748
28989SOL     OW98944   4.243   1.838   2.119 -0.5210  0.1952  0.5845
28989SOL    HW198945   4.174   1.902   2.130 -0.5850  0.1697  0.3362
28989SOL    HW298946   4.233   1.806   2.029 -1.1496 -0.9330  1.0397
28990SOL     OW98947   5.100  10.388   4.247  0.2930 -0.2654  0.0457
28990SOL    HW198948   5.185  10.429   4.233  0.7465 -1.2463 -0.1531
28990SOL    HW298949   5.093  10.323   4.176 -0.0705 -1.0577  0.7894
28991SOL     OW98950   4.619   6.830   1.909 -0.6165  0.2082 -0.0796
28991SOL    HW198951   4.604   6.913   1.864 -1.1819  0.6908  0.9549
28991SOL    HW298952   4.532   6.791   1.918 -0.4325 -0.1932  0.0071
28992SOL     OW98953   6.443   9.270   3.255  0.4472 -0.0857  0.5712
28992SOL    HW198954   6.442   9.182   3.218  0.5683  0.5004 -0.8793
28992SOL    HW298955   6.513   9.268   3.320  0.8385 -0.8980  0.1401
28993SOL     OW98956   8.765   9.497   5.813  0.2667  0.3139 -0.4331
28993SOL    HW198957   8.740   9.586   5.789  0.3689  0.5239  0.2400
28993SOL    HW298958   8.736   9.487   5.904  0.7679 -0.1445 -0.3164
28994SOL     OW98959   5.437   5.705   8.560  0.0781  0.4228 -0.0782
28994SOL    HW198960   5.361   5.672   8.609  1.1051 -2.2426 -0.1308
28994SOL    HW298961   5.426   5.668   8.472  1.2112  0.3334 -0.1963
28995SOL     OW98962   8.153   6.942   4.793  0.1490  0.1837  0.4872
28995SOL    HW198963   8.160   7.019   4.736 -0.2299  0.6645  1.0754
28995SOL    HW298964   8.144   6.869   4.733 -1.0708  0.7685 -0.0787
28996SOL     OW98965   7.040   7.069   7.976 -0.3951 -0.1456  0.3685
28996SOL    HW198966   7.112   7.054   8.037 -0.2425 -0.9532 -0.0003
28996SOL    HW298967   6.979   6.997   7.992 -0.7046  0.0426  0.0693
28997SOL     OW98968   9.723   8.642   9.759 -0.3086 -0.6888 -0.3522
28997SOL    HW198969   9.776   8.620   9.683  0.7283 -0.9061  0.4049
28997SOL    HW298970   9.777   8.616   9.834 -1.7084 -1.3991  0.4431
28998SOL     OW98971   2.404   3.151   5.655  0.1407  0.1960  0.0800
28998SOL    HW198972   2.381   3.200   5.577 -2.7812  0.3646  0.9448
28998SOL    HW298973   2.440   3.069   5.621 -3.1538 -0.7244 -1.5930
28999SOL     OW98974   4.065   4.110   7.720  0.2910 -0.5832 -0.1752
28999SOL    HW198975   4.045   4.024   7.756  0.1722 -0.1441  0.8663
28999SOL    HW298976   3.994   4.129   7.659 -0.3058 -0.7382  0.4650
29000SOL     OW98977   9.315  10.024   8.784  0.3971 -0.8162  0.3723
29000SOL    HW198978   9.233  10.074   8.786  1.0312  0.3349  3.3418
29000SOL    HW298979   9.365  10.062   8.712  0.1377  1.7189  1.4299
29001SOL     OW98980   2.804   0.536   0.699 -0.1513 -0.3739  0.1188
29001SOL    HW198981   2.806   0.440   0.708  3.7467 -0.2640  2.8715
29001SOL    HW298982   2.866   0.555   0.629 -1.8248  0.2033 -1.2748
29002SOL     OW98983   9.034   5.320   3.441  0.3330  0.6846 -0.2447
29002SOL    HW198984   8.978   5.244   3.457 -0.9890  1.9213  1.3807
29002SOL    HW298985   9.103   5.287   3.383 -0.3942 -1.6350  0.0963
29003SOL     OW98986   4.599   8.061   4.986 -0.8998 -0.2159  0.3531
29003SOL    HW198987   4.570   8.030   4.900  1.8274 -0.3184 -0.6501
29003SOL    HW298988   4.631   8.150   4.969  1.4560 -0.9087  0.7444
29004SOL     OW98989   6.149   0.278   8.824 -0.5148  0.4370 -0.3947
29004SOL    HW198990   6.103   0.343   8.771 -0.5724 -0.6142 -1.6764
29004SOL    HW298991   6.234   0.317   8.843 -1.0403  1.4219  0.0003
29005SOL     OW98992   0.827   1.396   8.133 -0.0743  0.4785  0.0846
29005SOL    HW198993   0.833   1.437   8.219 -0.6669  1.0776 -0.1469
29005SOL    HW298994   0.916   1.401   8.097  0.4398 -0.8245  1.1180
29006SOL     OW98995   0.993   9.091   2.880  0.5120  0.4683  0.2306
29006SOL    HW198996   1.033   9.049   2.956 -1.4468 -1.8544  0.0973
29006SOL    HW298997   1.053   9.069   2.808  0.3870 -0.7594  0.4636
29007SOL     OW98998   4.503   6.437   9.792 -0.0565 -0.5718  0.1168
29007SOL    HW198999   4.596   6.447   9.811  0.0201  0.6249 -0.7884
29007SOL    HW299000   4.489   6.486   9.710 -1.2152 -1.8254 -0.4945
29008SOL     OW99001   0.465   1.866   9.626 -0.0537  0.3196  0.1253
29008SOL    HW199002   0.416   1.949   9.630 -0.4512  0.0929 -0.0285
29008SOL    HW299003   0.518   1.866   9.706 -0.1157  0.6800  0.1710
29009SOL     OW99004   5.485   0.763   7.352  0.1530  0.2049  0.2779
29009SOL    HW199005   5.529   0.678   7.361  1.6132  0.9331  0.3474
29009SOL    HW299006   5.392   0.743   7.363  0.3995 -1.4807 -0.3800
29010SOL     OW99007   5.559   8.163   7.070 -0.0443  0.3423 -0.1392
29010SOL    HW199008   5.542   8.098   7.002 -0.3308 -0.6366  0.8468
29010SOL    HW299009   5.605   8.234   7.024 -0.0878 -0.3631 -1.3147
29011SOL     OW99010   6.436   1.236   4.617 -0.2540  0.2651  0.4396
29011SOL    HW199011   6.432   1.148   4.580 -2.0582 -0.4255  2.1352
29011SOL    HW299012   6.465   1.291   4.544  0.2221 -1.6000 -0.8516
29012SOL     OW99013   6.838   7.589   1.156 -0.4119 -0.1523 -0.2012
29012SOL    HW199014   6.849   7.495   1.170  0.0077  0.0971  1.3770
29012SOL    HW299015   6.786   7.595   1.076 -1.8622 -1.7836  0.5294
29013SOL     OW99016   9.791   9.504   6.694  0.1442 -0.0370 -0.3011
29013SOL    HW199017   9.718   9.500   6.633  0.3492  1.6433 -0.6929
29013SOL    HW299018   9.869   9.505   6.638  0.4445 -0.6507  0.0811
29014SOL     OW99019   4.668   7.341   2.704 -0.4705  0.7275 -0.3898
29014SOL    HW199020   4.651   7.381   2.619  3.6959 -1.8709 -2.8392
29014SOL    HW299021   4.639   7.250   2.694 -0.4261  0.5182  1.1900
29015SOL     OW99022   4.862   5.322   5.508 -0.1875 -0.4669 -0.5606
29015SOL    HW199023   4.814   5.261   5.453 -0.2496 -0.1252 -0.8833
29015SOL    HW299024   4.922   5.267   5.559 -0.0145 -0.7655 -1.0853
29016SOL     OW99025   6.164   9.959   4.443  0.0188  0.2597  0.0919
29016SOL    HW199026   6.147   9.872   4.407 -0.1044  0.6279 -0.7782
29016SOL    HW299027   6.118   9.960   4.527  0.3549 -0.6476  0.2992
29017SOL     OW99028   8.210   6.737   4.242  0.2212 -0.0085 -0.2317
29017SOL    HW199029   8.305   6.735   4.238  0.2703 -0.3606  0.8576
29017SOL    HW299030   8.188   6.693   4.324 -0.8748  0.1771 -0.4074
29018SOL     OW99031   2.386   9.654   9.994 -0.4453  0.2694  0.2170
29018SOL    HW199032   2.318   9.658  10.062  1.1503 -0.5765  1.9484
29018SOL    HW299033   2.462   9.696  10.035  0.1804  0.9704 -1.5851
29019SOL     OW99034   7.679   9.150   1.792 -0.3332  0.5735  0.0730
29019SOL    HW199035   7.603   9.123   1.845 -0.1144 -0.1696  0.0205
29019SOL    HW299036   7.656   9.123   1.703  0.4221 -0.5940  0.2192
29020SOL     OW99037   4.476   8.083   3.987  0.0796 -0.7446 -0.0341
29020SOL    HW199038   4.394   8.049   3.952 -0.8511  0.7203  0.6507
29020SOL    HW299039   4.514   8.009   4.035 -1.4114 -1.1249  0.5980
29021SOL     OW99040   1.150   8.028   3.865 -0.0767  0.3821 -0.5004
29021SOL    HW199041   1.108   8.053   3.947  2.7417 -1.3197  1.6687
29021SOL    HW299042   1.089   7.968   3.823 -0.8860 -0.1066  1.2811
29022SOL     OW99043   7.070   7.887   9.249  0.1076  0.2412  0.0192
29022SOL    HW199044   7.140   7.940   9.286 -0.1039  0.3136  0.3186
29022SOL    HW299045   7.011   7.870   9.322 -1.0194  1.5017 -0.5372
29023SOL     OW99046   7.692   0.473   8.992 -0.8262 -0.0214  0.5667
29023SOL    HW199047   7.742   0.434   8.921  0.2178  1.3994  0.4865
29023SOL    HW299048   7.648   0.398   9.034 -0.4384 -1.0261 -0.7455
29024SOL     OW99049   9.254   7.315   5.157 -0.6541 -0.4342  0.0280
29024SOL    HW199050   9.268   7.356   5.242 -1.4149 -0.2652  0.0785
29024SOL    HW299051   9.265   7.386   5.094 -3.0751  0.1508  0.1793
29025SOL     OW99052   9.077   1.060   1.894 -0.5442  0.1442 -0.2251
29025SOL    HW199053   9.131   1.130   1.858  1.6519 -1.7376 -0.8118
29025SOL    HW299054   9.033   1.099   1.969  1.6120  1.7999  0.2422
29026SOL     OW99055   5.337   1.213  10.150 -0.1427 -0.2427  0.0240
29026SOL    HW199056   5.308   1.206  10.059  1.2351 -1.1409 -0.3738
29026SOL    HW299057   5.319   1.127  10.187 -1.7708  0.4520  0.9808
29027SOL     OW99058   0.796   6.747   3.296 -0.2494 -0.3926  0.0020
29027SOL    HW199059   0.719   6.803   3.303 -0.1077 -0.1109 -0.6266
29027SOL    HW299060   0.761   6.657   3.301 -0.5205 -0.2612  0.5714
29028SOL     OW99061   4.405   5.428   1.687  0.3893  0.0329 -0.0702
29028SOL    HW199062   4.480   5.370   1.699 -0.9538 -1.5774  0.9984
29028SOL    HW299063   4.405   5.484   1.764  0.5180  0.0438 -0.0783
29029SOL     OW99064   1.217   0.341   7.632 -0.7330 -0.0057 -0.0952
29029SOL    HW199065   1.181   0.429   7.618  0.6366  0.4915 -0.5740
29029SOL    HW299066   1.281   0.330   7.563  1.6510  0.0123  1.9727
29030SOL     OW99067   0.389   8.980   1.938  0.0430 -0.7219  0.5696
29030SOL    HW199068   0.395   9.051   1.875 -0.0330 -1.2948 -0.0993
29030SOL    HW299069   0.296   8.960   1.944 -0.0736  0.1029  1.7581
29031SOL     OW99070   6.743   6.698   0.014  0.0951  0.6383  0.3392
29031SOL    HW199071   6.691   6.753   0.072 -0.9761 -0.2356  0.2521
29031SOL    HW299072   6.815   6.666   0.069  0.1403  1.2962  0.6651
29032SOL     OW99073   2.753   0.354   0.131  0.6191  0.9241  1.1342
29032SOL    HW199074   2.812   0.308   0.071 -0.5574 -1.3006  1.5953
29032SOL    HW299075   2.788   0.443   0.134  2.8199  0.1863 -0.0479
29033SOL     OW99076   8.932   7.052  10.056 -0.0358 -0.2768  0.1534
29033SOL    HW199077   8.884   7.064   9.973 -1.1396 -0.3258  0.7647
29033SOL    HW299078   8.965   6.963  10.052  1.7648  0.3803 -1.1430
29034SOL     OW99079   6.381   0.388   8.897 -0.5961 -0.4598  0.7203
29034SOL    HW199080   6.424   0.303   8.895 -2.0176 -1.2538  1.9308
29034SOL    HW299081   6.449   0.450   8.869  0.2807 -2.0271 -0.7847
29035SOL     OW99082   3.040   9.835   5.815  0.3020  0.0756  0.1771
29035SOL    HW199083   2.946   9.838   5.830  0.5450  0.6383  1.7327
29035SOL    HW299084   3.050   9.862   5.724 -1.2098 -2.8307 -0.9793
29036SOL     OW99085   2.941   5.951   8.332  0.0777 -0.6998 -0.0468
29036SOL    HW199086   3.014   5.920   8.386  0.7858 -1.3927 -1.3574
29036SOL    HW299087   2.869   5.963   8.393  1.0834 -0.6803  1.1725
29037SOL     OW99088   1.107   5.020   3.732  0.5305  0.2741  0.4640
29037SOL    HW199089   1.093   4.932   3.695 -0.8612  0.5096  0.3895
29037SOL    HW299090   1.026   5.040   3.778  1.3896  0.9311  1.7648
29038SOL     OW99091   9.970   7.135   7.349 -0.5858 -0.1934  0.4022
29038SOL    HW199092  10.035   7.158   7.283 -1.0820 -0.6834 -0.2709
29038SOL    HW299093   9.931   7.053   7.318 -1.4703  0.0456  0.8263
29039SOL     OW99094   2.878   3.482   5.326  0.3078  0.3631  0.0476
29039SOL    HW199095   2.804   3.454   5.380  1.1675 -2.9335 -0.2795
29039SOL    HW299096   2.848   3.473   5.236  0.5959  0.6086 -0.0766
29040SOL     OW99097   2.529   7.970   3.888  0.2396  0.5291  0.1382
29040SOL    HW199098   2.606   7.947   3.836 -0.4363  2.0001 -1.6299
29040SOL    HW299099   2.455   7.931   3.841 -0.3919  1.8371  0.0061
29041SOL     OW99100   0.226   5.749   2.395 -0.1753  0.3770  0.8118
29041SOL    HW199101   0.172   5.764   2.317  1.1251  0.1612 -0.1742
29041SOL    HW299102   0.292   5.818   2.392  1.0452 -0.7457  0.6468
29042SOL     OW99103  10.330   6.932   9.164 -0.1389  0.1526  0.2392
29042SOL    HW199104  10.418   6.894   9.172 -0.2196 -0.4375 -1.2608
29042SOL    HW299105  10.322   6.955   9.071 -1.6296  0.0011  0.2977
29043SOL     OW99106   4.489   7.949   8.256 -0.1917  0.1045  0.6616
29043SOL    HW199107   4.461   8.025   8.307 -1.8975 -0.2147  0.2870
29043SOL    HW299108   4.505   7.881   8.320  1.7939  0.8640  1.0372
29044SOL     OW99109  10.363   2.531   8.434  0.3512 -0.6438  0.6232
29044SOL    HW199110  10.430   2.596   8.414  0.4792 -0.7179  0.8037
29044SOL    HW299111  10.287   2.557   8.382  0.5947 -0.6911  0.2456
29045SOL     OW99112   0.741   1.504   3.941 -0.3124  0.5486 -0.0371
29045SOL    HW199113   0.765   1.490   3.849 -1.2383  1.5200 -0.4599
29045SOL    HW299114   0.764   1.596   3.957  0.6154  0.1580  0.9754
29046SOL     OW99115   1.095   9.683   8.008 -0.3822 -0.2435  0.2774
29046SOL    HW199116   1.094   9.680   8.104 -1.1509  0.1192  0.2872
29046SOL    HW299117   1.077   9.774   7.986 -0.4128 -0.3644 -0.2148
29047SOL     OW99118   2.139   0.339   6.662 -0.2696  0.2142 -0.7961
29047SOL    HW199119   2.215   0.367   6.611 -0.8998  0.2868 -1.7275
29047SOL    HW299120   2.162   0.359   6.753  0.6958  0.5129 -1.0949
29048SOL     OW99121   5.434   7.322   5.609 -0.0612  0.2283  0.1587
29048SOL    HW199122   5.340   7.337   5.615  0.1882  1.6325  1.0712
29048SOL    HW299123   5.460   7.368   5.528 -0.0410  0.5782  0.3609
29049SOL     OW99124   0.661   0.947   9.134  0.2372 -1.0402  0.1358
29049SOL    HW199125   0.710   0.911   9.208  1.0831  0.9972  0.6224
29049SOL    HW299126   0.571   0.919   9.150  0.5303 -1.2655  1.5335
29050SOL     OW99127   6.090   3.460   9.012 -0.1688  0.4616 -0.8219
29050SOL    HW199128   6.111   3.541   9.060 -0.2097 -0.7822  1.4448
29050SOL    HW299129   5.994   3.460   9.006 -0.6202 -1.3035  3.0552
29051SOL     OW99130   7.434   6.349   0.497  0.1480 -0.3157  0.6013
29051SOL    HW199131   7.423   6.441   0.472  0.4492 -0.1706  0.9914
29051SOL    HW299132   7.348   6.310   0.482  0.6679 -0.6095 -2.0812
29052SOL     OW99133   9.228   5.353   5.734  0.8082 -0.4658  0.2694
29052SOL    HW199134   9.236   5.335   5.640  0.2071 -1.4031  0.3819
29052SOL    HW299135   9.144   5.314   5.759  0.5760  0.4823  1.0415
29053SOL     OW99136   0.858   5.813   7.935 -0.4569  0.1233  0.0978
29053SOL    HW199137   0.765   5.808   7.910 -0.3304  0.2779 -0.4142
29053SOL    HW299138   0.859   5.784   8.026 -0.8829 -0.7930 -0.1741
29054SOL     OW99139   5.709   4.746   1.960  0.5822  0.1048  0.0025
29054SOL    HW199140   5.638   4.791   1.915  0.5027  0.6279  0.6280
29054SOL    HW299141   5.788   4.794   1.936  0.6504 -0.1407 -0.2605
29055SOL     OW99142   1.773   5.215   7.484  0.1817 -0.1161 -0.3488
29055SOL    HW199143   1.845   5.246   7.539  0.9391  1.9074 -2.3265
29055SOL    HW299144   1.751   5.129   7.519  2.3028  0.0071  1.4765
29056SOL     OW99145   2.842   5.721   5.923  0.6312 -0.2556 -0.0825
29056SOL    HW199146   2.799   5.667   5.857  1.1982 -1.1338  0.2399
29056SOL    HW299147   2.772   5.775   5.960  0.1970 -0.2032 -0.9561
29057SOL     OW99148   2.093   8.802   6.823  0.0483  0.0326  0.7938
29057SOL    HW199149   2.184   8.822   6.800  0.1668 -0.2206  1.0332
29057SOL    HW299150   2.069   8.867   6.889 -0.5052  1.1739 -0.4960
29058SOL     OW99151   4.923   0.349   6.581 -0.1823 -0.8549 -0.4865
29058SOL    HW199152   4.931   0.273   6.638 -0.7069 -1.7695 -1.5973
29058SOL    HW299153   5.012   0.367   6.550  0.3929  0.6218  1.7712
29059SOL     OW99154   8.472   8.938   9.111  0.0012  0.5228 -0.1390
29059SOL    HW199155   8.555   8.893   9.097 -1.3914 -1.5688 -2.6808
29059SOL    HW299156   8.416   8.873   9.154 -0.1137  2.2359  2.5339
29060SOL     OW99157   1.065   4.622   4.796  0.0547  0.1594 -0.3400
29060SOL    HW199158   1.078   4.611   4.890 -0.6554 -0.2616 -0.2865
29060SOL    HW299159   0.995   4.560   4.774 -0.3087  0.7944 -1.0019
29061SOL     OW99160   8.729   9.921   4.933 -0.7647 -0.4244 -0.2059
29061SOL    HW199161   8.791   9.852   4.909  2.3711  1.7931  0.7055
29061SOL    HW299162   8.722   9.975   4.854 -0.0138  0.3192  0.2161
29062SOL     OW99163   1.239   3.732   2.678 -0.0041 -0.4212 -0.0472
29062SOL    HW199164   1.196   3.653   2.711 -0.4852  0.1068  0.6184
29062SOL    HW299165   1.175   3.772   2.620  0.8937 -1.4187 -1.7853
29063SOL     OW99166   8.376   4.468   1.343  0.0636  0.4442  0.1860
29063SOL    HW199167   8.334   4.385   1.368  0.4757  0.4420  0.8981
29063SOL    HW299168   8.367   4.472   1.248  1.5391 -1.2537 -0.0831
29064SOL     OW99169   0.175   3.246   5.028 -0.0638  0.2653 -0.1647
29064SOL    HW199170   0.248   3.303   5.050  0.3257 -0.5439  0.7294
29064SOL    HW299171   0.216   3.164   4.999 -0.6111  0.0521 -0.3544
29065SOL     OW99172   4.045   6.259   8.315  0.4870  0.2301  0.1993
29065SOL    HW199173   4.077   6.184   8.265 -0.1955  1.2422 -1.8613
29065SOL    HW299174   4.119   6.319   8.319  0.3079  0.4939 -0.3345
29066SOL     OW99175   7.111   8.130   1.095  0.2286  0.4102 -0.2195
29066SOL    HW199176   7.189   8.178   1.123  0.7661  0.1641 -1.2529
29066SOL    HW299177   7.142   8.072   1.026 -1.1489  1.5745 -1.9194
29067SOL     OW99178   8.593   2.526  10.103  0.4025  0.2455  0.5447
29067SOL    HW199179   8.505   2.565  10.105  0.5729  0.6369  0.5783
29067SOL    HW299180   8.601   2.489  10.015 -0.2997 -0.9916  0.9735
29068SOL     OW99181   8.921   9.300   4.981 -0.1476  0.4029 -0.0405
29068SOL    HW199182   8.838   9.318   5.025 -1.5744 -1.1611 -1.9392
29068SOL    HW299183   8.897   9.285   4.890  2.2492 -0.0023 -0.6673
29069SOL     OW99184   1.727   9.389   9.115  0.1354  0.1086 -0.7707
29069SOL    HW199185   1.676   9.444   9.174 -0.1035 -0.9317  0.0129
29069SOL    HW299186   1.775   9.452   9.060  1.1262  1.1253  1.1424
29070SOL     OW99187  10.278   6.444   2.456  0.5039  0.1442 -0.3904
29070SOL    HW199188  10.313   6.377   2.514  1.2021  0.4866 -0.4099
29070SOL    HW299189  10.254   6.395   2.376  0.1508 -0.2192 -0.0678
29071SOL     OW99190   8.397   1.257   3.405 -0.4506  0.2216  0.0347
29071SOL    HW199191   8.475   1.256   3.350 -1.5761  1.6568 -1.7137
29071SOL    HW299192   8.389   1.348   3.434 -1.0260 -0.0882  0.8844
29072SOL     OW99193   8.692   7.169   9.152 -0.3572  0.5098  1.0001
29072SOL    HW199194   8.665   7.094   9.204 -2.7117  0.7109  0.2068
29072SOL    HW299195   8.633   7.169   9.077 -0.2208  2.9378  0.7977
29073SOL     OW99196  10.371   1.074   7.315 -0.5920  0.6975 -0.2976
29073SOL    HW199197  10.327   1.154   7.345 -0.6066  0.5418  0.1066
29073SOL    HW299198  10.299   1.012   7.301 -0.5487  0.6221 -0.1910
29074SOL     OW99199   1.764   0.167   7.252 -0.7096  0.0378 -0.5377
29074SOL    HW199200   1.774   0.104   7.324 -1.0690 -0.8623 -1.2475
29074SOL    HW299201   1.723   0.116   7.182  2.1478  0.1052 -2.4098
29075SOL     OW99202   3.351   0.285   0.875  0.1302 -0.5467 -0.0293
29075SOL    HW199203   3.273   0.230   0.867 -0.6066  0.1510  1.7310
29075SOL    HW299204   3.316   0.375   0.877  0.7023 -0.2904  2.9030
29076SOL     OW99205   8.093   1.491   1.648 -0.1707 -0.1028 -0.1011
29076SOL    HW199206   8.168   1.435   1.668  0.3459  0.9562  1.0662
29076SOL    HW299207   8.017   1.433   1.650  0.6701 -1.3763 -2.1654
29077SOL     OW99208   7.661   9.216   5.449 -0.3353 -0.1269  0.0415
29077SOL    HW199209   7.659   9.164   5.369  0.6225 -1.4549  0.8324
29077SOL    HW299210   7.741   9.268   5.442  0.0914 -0.7152  0.3851
29078SOL     OW99211   8.907   4.825   6.514  0.1431  0.7786  0.3689
29078SOL    HW199212   8.834   4.764   6.498 -0.4606  1.6183 -0.1723
29078SOL    HW299213   8.908   4.882   6.437  1.2670  0.8986  0.4588
29079SOL     OW99214   5.591   9.560   5.094 -0.4724 -0.1038 -0.1068
29079SOL    HW199215   5.646   9.482   5.088  0.2520  0.3061  0.9466
29079SOL    HW299216   5.514   9.539   5.041 -0.3581 -1.5948  0.2714
29080SOL     OW99217   6.827   0.828   1.623  0.0399 -0.0139  0.3587
29080SOL    HW199218   6.793   0.739   1.618 -0.0396 -0.0037  0.7065
29080SOL    HW299219   6.786   0.865   1.701 -0.9654  0.7647 -0.5082
29081SOL     OW99220   4.380   1.057   4.437 -0.3447 -0.6033  0.4557
29081SOL    HW199221   4.330   1.134   4.412  1.6514  0.2673 -1.1446
29081SOL    HW299222   4.406   1.073   4.528  0.7193  1.0461 -0.0930
29082SOL     OW99223   0.984   0.241   5.355 -0.2904  0.5295 -0.5936
29082SOL    HW199224   0.947   0.155   5.377 -0.3961  0.4648 -1.0184
29082SOL    HW299225   0.917   0.283   5.301  0.0368  0.6222 -0.9313
29083SOL     OW99226   9.154   4.035   4.639  0.6800  0.1625 -0.3058
29083SOL    HW199227   9.185   4.100   4.576  1.1586  0.7311  0.4965
29083SOL    HW299228   9.196   4.059   4.722 -0.2235 -0.3478  0.3263
29084SOL     OW99229   3.860   4.805   8.264 -0.0983  0.1817 -0.0870
29084SOL    HW199230   3.941   4.787   8.312 -0.2049  0.6545  0.2885
29084SOL    HW299231   3.878   4.887   8.217 -1.4564  2.2945  2.7586
29085SOL     OW99232   5.395  10.121   3.940  0.1441  0.5912  0.4646
29085SOL    HW199233   5.334  10.116   3.867  0.9910  1.8508 -0.3713
29085SOL    HW299234   5.482  10.114   3.900  0.6149  0.7493  1.4057
29086SOL     OW99235   3.154   9.826   9.492 -0.1608  0.0925 -0.0649
29086SOL    HW199236   3.119   9.782   9.414 -1.0373  1.7251 -0.6469
29086SOL    HW299237   3.247   9.804   9.493 -0.4687 -1.3887 -0.5500
29087SOL     OW99238   2.819   9.330   5.189  0.2993 -0.5950 -0.1022
29087SOL    HW199239   2.759   9.387   5.236  0.0793 -3.4168  3.5181
29087SOL    HW299240   2.901   9.336   5.238  1.7824  0.0465 -2.4684
29088SOL     OW99241   2.333   3.949   9.374 -1.0158 -0.2364 -0.3275
29088SOL    HW199242   2.294   3.881   9.318 -0.1365 -0.2950 -0.8979
29088SOL    HW299243   2.262   4.010   9.391 -1.4859 -0.6063 -0.9247
29089SOL     OW99244   8.792   4.992   8.785 -0.3985  0.1024  0.3716
29089SOL    HW199245   8.870   4.976   8.732  0.5231 -0.0256  1.7250
29089SOL    HW299246   8.810   4.950   8.869 -2.5669 -1.2926  0.2369
29090SOL     OW99247   3.691   8.686   2.140  0.3280  0.1821  0.4497
29090SOL    HW199248   3.782   8.712   2.156 -0.1739  1.9944  0.5872
29090SOL    HW299249   3.658   8.751   2.078 -1.3966  0.6945  1.7967
29091SOL     OW99250   0.403   8.824   2.200 -0.5785  0.0289  0.0957
29091SOL    HW199251   0.395   8.730   2.180  0.8261 -0.0428 -0.1724
29091SOL    HW299252   0.410   8.866   2.115 -0.2536  0.2916  0.2526
29092SOL     OW99253   4.986   8.051   0.247 -0.2145 -0.3053 -0.6790
29092SOL    HW199254   5.022   7.994   0.314 -0.2533 -0.3901 -0.7296
29092SOL    HW299255   5.057   8.060   0.183  0.0438  0.2921 -0.3097
29093SOL     OW99256   0.404   2.598   9.580 -0.1225  0.1621 -0.1096
29093SOL    HW199257   0.338   2.644   9.632 -0.4426  0.1212 -0.4777
29093SOL    HW299258   0.399   2.639   9.494 -2.3998 -2.3849 -1.3269
29094SOL     OW99259   5.115   3.855   2.400 -0.5233  0.2434  0.0848
29094SOL    HW199260   5.103   3.800   2.478 -0.1293  1.6941  1.2065
29094SOL    HW299261   5.054   3.927   2.412  0.3172  1.0496 -0.4230
29095SOL     OW99262   7.835   6.926   7.679  0.1573 -0.6108 -0.5878
29095SOL    HW199263   7.929   6.922   7.663  0.3360 -0.1415  0.2463
29095SOL    HW299264   7.797   6.859   7.622  0.7461  0.7313 -2.6488
29096SOL     OW99265   9.417   5.078   5.508  0.2624  0.5017  0.4719
29096SOL    HW199266   9.376   5.106   5.426  1.8797  1.6003 -0.0099
29096SOL    HW299267   9.479   5.148   5.529 -0.5025  0.5071  2.9600
29097SOL     OW99268   9.198   2.920   9.623 -0.3125 -0.4017  0.4458
29097SOL    HW199269   9.104   2.936   9.624  0.0171  1.9034 -0.2162
29097SOL    HW299270   9.228   2.952   9.538  1.2732  0.3584  1.2409
29098SOL     OW99271   6.032   9.715   2.387 -0.3973 -0.0405 -0.0255
29098SOL    HW199272   5.982   9.734   2.466  0.3057  0.2581  0.3508
29098SOL    HW299273   6.123   9.735   2.409 -0.4476  2.3486 -1.6326
29099SOL     OW99274  10.302   2.921   2.239  0.1848 -0.1511 -0.9992
29099SOL    HW199275  10.257   2.883   2.315 -0.0390  0.0613 -1.0245
29099SOL    HW299276  10.386   2.875   2.235 -0.7931 -1.9581 -2.1061
29100SOL     OW99277   6.079   7.617   6.218 -0.0473  0.7559 -0.0045
29100SOL    HW199278   5.997   7.569   6.233 -0.3588  1.6066  1.1958
29100SOL    HW299279   6.053   7.709   6.219  1.0138  1.0689  1.1455
29101SOL     OW99280   4.539   7.682   3.008  0.3959 -0.5353  0.2607
29101SOL    HW199281   4.453   7.699   2.971  0.6919  0.8021  0.1356
29101SOL    HW299282   4.531   7.596   3.049 -0.5253 -1.1641 -1.1442
29102SOL     OW99283   9.609   2.192   7.444  0.3854 -0.0279  0.0369
29102SOL    HW199284   9.617   2.251   7.519  0.4124  0.0135  0.0017
29102SOL    HW299285   9.543   2.234   7.388 -0.9442 -0.9304  0.8590
29103SOL     OW99286   0.236   1.366   3.823  0.2692  0.0509  0.3793
29103SOL    HW199287   0.321   1.323   3.819 -0.6004 -1.7659  0.6293
29103SOL    HW299288   0.179   1.303   3.865 -1.1234  1.4055  0.6131
29104SOL     OW99289   9.381   0.465   7.511 -0.1357 -0.0070  0.3972
29104SOL    HW199290   9.475   0.456   7.530 -0.4343  1.3692  2.9423
29104SOL    HW299291   9.377   0.470   7.416  2.5949  1.7953  0.2634
29105SOL     OW99292   7.346   3.949   8.766  0.5816  0.6765  0.5684
29105SOL    HW199293   7.385   4.024   8.721  1.2648 -0.0802 -0.1502
29105SOL    HW299294   7.266   3.930   8.717  0.3414  1.0209  0.8307
29106SOL     OW99295   8.210   3.355   8.955 -0.2284  0.0280 -0.1149
29106SOL    HW199296   8.145   3.289   8.978 -1.9355  1.7537  0.2071
29106SOL    HW299297   8.264   3.363   9.034 -0.6444 -0.2363  0.1985
29107SOL     OW99298   3.316   4.561   2.877  0.3149  0.2700 -0.8231
29107SOL    HW199299   3.393   4.578   2.933  0.8918 -1.4159 -1.0453
29107SOL    HW299300   3.353   4.527   2.796 -0.6650 -2.2899 -0.3019
29108SOL     OW99301   1.272   0.471   7.919 -0.5555  0.2827  0.0544
29108SOL    HW199302   1.350   0.454   7.970 -1.8169 -2.3531  1.3118
29108SOL    HW299303   1.303   0.473   7.828  0.7063 -4.0759  0.1620
29109SOL     OW99304   6.358   5.006   6.516  0.3101  0.0261  0.3669
29109SOL    HW199305   6.449   5.034   6.521  0.1787  0.3756  1.0031
29109SOL    HW299306   6.341   4.993   6.423  0.8330  0.5636  0.1943
29110SOL     OW99307   8.853   6.767   7.977  0.4002  0.2441 -0.0258
29110SOL    HW199308   8.894   6.852   7.959 -0.8597  1.0500  0.7840
29110SOL    HW299309   8.823   6.737   7.891 -0.0813  1.1237 -0.1788
29111SOL     OW99310   1.174   9.264   2.103  0.2888  0.7036  0.3088
29111SOL    HW199311   1.200   9.172   2.095 -2.1465 -0.2611  2.0790
29111SOL    HW299312   1.127   9.282   2.021 -2.3262 -0.8645  1.3414
29112SOL     OW99313   1.010   9.535   5.058  0.2660  0.0659 -0.1422
29112SOL    HW199314   0.944   9.473   5.088 -0.5776  0.6643 -0.7101
29112SOL    HW299315   1.036   9.502   4.972 -1.2262  1.2324 -1.0879
29113SOL     OW99316   1.396   5.433   6.130  0.1201 -0.1640 -0.3396
29113SOL    HW199317   1.396   5.515   6.081  0.8018  0.0060 -0.0621
29113SOL    HW299318   1.336   5.450   6.203  0.8582  0.3712  0.1625
29114SOL     OW99319   6.426   5.743   9.083  0.4873  0.2953 -0.5960
29114SOL    HW199320   6.449   5.829   9.048 -0.6638  0.5924 -0.6509
29114SOL    HW299321   6.473   5.737   9.166 -0.8365  1.7612  0.3149
29115SOL     OW99322   5.926   8.154   7.303 -0.3224  0.0850  0.0358
29115SOL    HW199323   6.015   8.166   7.336 -0.8954  1.4254  1.2061
29115SOL    HW299324   5.894   8.078   7.352  0.3379 -0.7601 -0.8038
29116SOL     OW99325   3.694   9.921   1.466 -0.1268 -0.4954  0.5177
29116SOL    HW199326   3.654  10.006   1.451 -1.2684 -1.2886 -1.2087
29116SOL    HW299327   3.737   9.930   1.551  0.8507  2.1861 -0.1339
29117SOL     OW99328   2.325   5.873   6.850  0.0810  0.3875 -0.4321
29117SOL    HW199329   2.239   5.866   6.810 -0.3864 -1.3626  0.7673
29117SOL    HW299330   2.379   5.809   6.804  0.3678  0.5068 -0.2689
29118SOL     OW99331   7.788   3.568   6.708  0.1627 -0.1889 -0.4247
29118SOL    HW199332   7.715   3.583   6.768  0.7401 -0.4680  0.3729
29118SOL    HW299333   7.827   3.655   6.696  1.4656 -0.4148  1.5229
29119SOL     OW99334   9.434   8.043   2.481 -0.8403 -0.7648  0.0542
29119SOL    HW199335   9.416   8.006   2.568 -0.6333  0.2968  0.5617
29119SOL    HW299336   9.355   8.092   2.459  0.4688  2.2521  1.4227
29120SOL     OW99337   0.453   0.622   9.563 -0.3082  0.1341  0.9640
29120SOL    HW199338   0.455   0.690   9.630 -0.7423  2.5270 -1.2763
29120SOL    HW299339   0.378   0.644   9.508  0.8450 -0.8179 -1.1308
29121SOL     OW99340   0.649   9.691   3.309 -0.1326 -0.4219  0.1708
29121SOL    HW199341   0.634   9.623   3.374 -1.1666  0.3546  0.7768
29121SOL    HW299342   0.742   9.712   3.318 -0.2485 -0.3408  1.4070
29122SOL     OW99343   1.023   1.766   7.361 -0.2545  0.7431 -0.1187
29122SOL    HW199344   0.956   1.818   7.405  0.7032  0.8302  1.2960
29122SOL    HW299345   1.013   1.678   7.398  0.0765  0.6423 -0.2664
29123SOL     OW99346   8.448   9.210   9.161  0.1795  0.1749  0.9052
29123SOL    HW199347   8.409   9.205   9.248  1.1064 -1.4526  1.2636
29123SOL    HW299348   8.468   9.120   9.138  3.2138  0.8161  0.5393
29124SOL     OW99349   6.601   8.555   6.129 -0.4637  0.5130  0.1317
29124SOL    HW199350   6.655   8.602   6.066  0.2651  0.7209  0.8905
29124SOL    HW299351   6.518   8.542   6.085 -0.2980  1.5232 -0.5036
29125SOL     OW99352   2.112   0.055  10.384  0.3445  0.3520  0.1632
29125SOL    HW199353   2.050  -0.003  10.340 -1.4548  2.1983  0.1107
29125SOL    HW299354   2.071   0.073  10.469  1.8244  0.0250  0.9822
29126SOL     OW99355   3.295  10.171   9.253 -0.4075 -0.2258 -0.5377
29126SOL    HW199356   3.378  10.129   9.228 -0.0417  0.6652 -0.8637
29126SOL    HW299357   3.234  10.146   9.184 -0.7107 -1.7192  0.2226
29127SOL     OW99358   0.690   2.352   7.244  0.4501  0.0716 -0.1841
29127SOL    HW199359   0.647   2.412   7.305  3.7424  2.5923 -0.1037
29127SOL    HW299360   0.739   2.291   7.300  1.4633  0.8125 -0.2337
29128SOL     OW99361   2.935   6.510  10.235  0.7373 -0.0418  0.4119
29128SOL    HW199362   2.971   6.421  10.240 -0.4842 -0.5427  0.6723
29128SOL    HW299363   3.007   6.563  10.202  1.6237 -1.0522  0.6644
29129SOL     OW99364   0.482   0.575   4.794  0.3545 -0.4889 -0.4134
29129SOL    HW199365   0.423   0.581   4.870  0.5612  1.3606 -0.3563
29129SOL    HW299366   0.427   0.596   4.719 -0.0010 -2.9326 -0.9379
29130SOL     OW99367   4.979   2.377   2.927 -0.3166  0.0802 -0.1420
29130SOL    HW199368   5.067   2.369   2.962  0.2560 -0.2408 -1.5897
29130SOL    HW299369   4.942   2.454   2.970  0.3636 -0.2690  1.0901
29131SOL     OW99370   5.861   2.149   1.397  0.2965  0.3593 -0.5471
29131SOL    HW199371   5.806   2.086   1.351  0.7223  0.7708 -1.6583
29131SOL    HW299372   5.932   2.168   1.336  1.7422 -0.2106  0.8723
29132SOL     OW99373   2.471   9.371  10.145 -0.1392  0.1058 -0.7410
29132SOL    HW199374   2.563   9.365  10.170 -0.2809  2.0920  0.4847
29132SOL    HW299375   2.459   9.463  10.120 -1.9417  0.0654 -0.1538
29133SOL     OW99376   7.253   7.561   6.687 -0.8853 -0.4072 -0.3937
29133SOL    HW199377   7.193   7.553   6.762 -0.1652 -0.5904  0.1707
29133SOL    HW299378   7.248   7.654   6.663  2.0367  0.7587  2.6271
29134SOL     OW99379   3.966   8.881  10.345 -0.2231  0.4134 -0.1063
29134SOL    HW199380   4.005   8.794  10.348  0.6251  0.8037  0.4093
29134SOL    HW299381   3.891   8.871  10.285  0.9445 -0.2336 -1.5341
29135SOL     OW99382   7.200   3.729   7.439  0.3380 -0.1713  0.4919
29135SOL    HW199383   7.281   3.701   7.398  0.2353 -1.0528  0.8441
29135SOL    HW299384   7.210   3.823   7.454  0.9127 -0.1037 -0.2962
29136SOL     OW99385   4.343   5.804   6.747  0.5859 -0.4500 -0.3669
29136SOL    HW199386   4.383   5.842   6.669  0.5723  0.1083 -0.1112
29136SOL    HW299387   4.390   5.722   6.761  0.7672 -0.4256 -0.8069
29137SOL     OW99388   9.547   7.571   0.928  0.1347  0.6587  1.0980
29137SOL    HW199389   9.512   7.488   0.961 -1.3485 -0.2001 -2.2057
29137SOL    HW299390   9.633   7.549   0.893 -1.1033 -0.0948 -1.6860
29138SOL     OW99391  10.226   1.939   8.187  0.6965  0.4021  0.1769
29138SOL    HW199392  10.224   2.020   8.239 -1.4753  0.6721 -0.2327
29138SOL    HW299393  10.146   1.893   8.212  0.8349 -0.6121 -1.1486
29139SOL     OW99394   2.877   6.118   5.147 -0.4990 -0.2207 -0.2644
29139SOL    HW199395   2.947   6.053   5.155 -0.8004 -0.4320  0.7331
29139SOL    HW299396   2.899   6.167   5.068  0.8276 -0.2228  0.0815
29140SOL     OW99397   7.442   2.602   7.923  0.4116 -0.0632  0.2035
29140SOL    HW199398   7.381   2.557   7.864 -1.6720  2.0611  0.6026
29140SOL    HW299399   7.407   2.586   8.010 -1.5206  3.6065  0.2812
29141SOL     OW99400   0.716   4.246   3.423 -0.0942  0.0657  0.8103
29141SOL    HW199401   0.643   4.305   3.407  1.4230  1.5223 -1.2656
29141SOL    HW299402   0.762   4.283   3.498 -1.3019 -0.7566  2.0087
29142SOL     OW99403   2.003   3.466   6.414 -0.1008  0.0061 -0.2290
29142SOL    HW199404   1.927   3.524   6.412 -0.5734 -0.5657  0.4887
29142SOL    HW299405   1.978   3.391   6.360 -1.3257 -1.6414  2.3933
29143SOL     OW99406   2.204   1.927   8.642  0.1196 -0.1457 -0.0964
29143SOL    HW199407   2.127   1.979   8.667 -1.0847 -0.9716 -1.8541
29143SOL    HW299408   2.255   1.986   8.586  0.4902  0.2220  0.6208
29144SOL     OW99409   8.971   0.753   8.114  0.1035  0.1574 -0.2294
29144SOL    HW199410   9.016   0.810   8.176 -0.4323 -0.7357  1.0397
29144SOL    HW299411   8.939   0.811   8.046  0.9591  1.1421  0.1901
29145SOL     OW99412   0.283   3.845   3.885  0.0951  0.1869 -0.2466
29145SOL    HW199413   0.363   3.793   3.877  0.7737  1.1269  0.1962
29145SOL    HW299414   0.235   3.804   3.957  0.5162  0.0378 -0.0449
29146SOL     OW99415   3.395  10.186   3.348  0.1201 -0.0279  0.0664
29146SOL    HW199416   3.381  10.229   3.264 -0.1198 -0.2218  0.0064
29146SOL    HW299417   3.371  10.251   3.413 -2.5042 -0.7991 -0.0263
29147SOL     OW99418   8.400   8.824   1.920  0.6840  0.3235  0.0857
29147SOL    HW199419   8.360   8.900   1.878  0.9968 -0.2876 -1.3830
29147SOL    HW299420   8.490   8.822   1.888  0.3463 -1.3266 -0.8948
29148SOL     OW99421   0.040   8.575   6.040 -0.1410 -0.7311 -0.6395
29148SOL    HW199422   0.094   8.608   5.969 -1.7294  1.1173 -1.0871
29148SOL    HW299423   0.054   8.637   6.112 -0.5617 -1.0573 -0.2683
29149SOL     OW99424   9.714   8.555   2.841 -1.0677 -0.4263 -0.0423
29149SOL    HW199425   9.771   8.618   2.885 -0.1252 -1.0841 -0.2801
29149SOL    HW299426   9.655   8.608   2.789 -0.0282  0.2582 -0.5556
29150SOL     OW99427   4.345   7.247   5.838  0.2145 -0.2471  0.9177
29150SOL    HW199428   4.386   7.293   5.912  1.1441 -0.6528  0.6676
29150SOL    HW299429   4.298   7.174   5.878 -0.8273  0.5756  1.2673
29151SOL     OW99430   0.190   7.673   6.481  0.1257 -0.0418  0.1455
29151SOL    HW199431   0.120   7.654   6.418  0.3214  0.3139 -0.1822
29151SOL    HW299432   0.159   7.749   6.529  1.0638  1.2718 -1.2379
29152SOL     OW99433   8.677   3.960   2.318  0.0601 -0.2757 -0.0617
29152SOL    HW199434   8.689   4.050   2.287 -2.8087 -0.5763 -2.5628
29152SOL    HW299435   8.710   3.961   2.408  2.0267  2.6949 -0.6546
29153SOL     OW99436   4.865   8.864   8.194  0.0019 -0.3138  0.1587
29153SOL    HW199437   4.954   8.829   8.184  0.6829  1.3506 -0.0207
29153SOL    HW299438   4.823   8.805   8.257  1.2086 -1.1769  0.1995
29154SOL     OW99439   4.469   3.733   0.982  0.6180 -0.1814  0.2991
29154SOL    HW199440   4.458   3.807   1.041  0.6251  0.2187 -0.1891
29154SOL    HW299441   4.383   3.689   0.983 -0.0173  0.9637 -0.8879
29155SOL     OW99442   8.977   2.922   7.287  0.0160  1.0885 -0.0701
29155SOL    HW199443   9.055   2.959   7.245  1.8442 -0.8505  1.3529
29155SOL    HW299444   8.981   2.829   7.266 -0.5166  0.5406  2.0660
29156SOL     OW99445   2.618   7.006   9.306  0.4520  0.4907  0.1427
29156SOL    HW199446   2.600   7.002   9.212 -2.1057  1.1603  0.5237
29156SOL    HW299447   2.698   7.058   9.313  1.4830 -0.7442 -1.6913
29157SOL     OW99448   4.025   0.213   0.894 -0.2266  0.1150  0.0585
29157SOL    HW199449   4.033   0.251   0.807 -1.8036  0.5881  0.0895
29157SOL    HW299450   4.044   0.120   0.881  4.3792  0.8029  0.0957
29158SOL     OW99451   0.654   5.782   5.093  0.6121  0.5157 -0.0608
29158SOL    HW199452   0.634   5.863   5.046 -1.5922  0.9293  1.4179
29158SOL    HW299453   0.621   5.712   5.036  0.5354  0.8050 -0.3757
29159SOL     OW99454   1.193   6.830   2.528  0.2462 -0.1447  0.2434
29159SOL    HW199455   1.242   6.913   2.525  0.8680 -0.5053  0.2074
29159SOL    HW299456   1.128   6.843   2.598  0.2497  0.4191  0.1460
29160SOL     OW99457   2.112   3.846   5.074  0.1527  0.2396  0.0613
29160SOL    HW199458   2.119   3.771   5.014  1.3284  1.1406 -0.9978
29160SOL    HW299459   2.189   3.839   5.130 -0.9555 -0.6081  1.5257
29161SOL     OW99460   7.874   7.513   5.430 -0.4445  0.0498  0.0588
29161SOL    HW199461   7.866   7.582   5.363  0.7193 -1.2866 -1.5487
29161SOL    HW299462   7.860   7.432   5.382  1.0632 -0.9994  1.2978
29162SOL     OW99463   4.700   2.900   7.717  0.6251  0.3879 -0.0436
29162SOL    HW199464   4.771   2.932   7.772  0.5650 -1.8374  1.4323
29162SOL    HW299465   4.631   2.966   7.726  1.8099  1.6606 -0.0625
29163SOL     OW99466   0.239   1.234   2.964 -0.1835 -0.0233  0.3927
29163SOL    HW199467   0.257   1.197   3.050  3.4274  1.0438  0.2546
29163SOL    HW299468   0.196   1.318   2.982 -0.7833 -0.4561  1.0349
29164SOL     OW99469   8.886   8.397   5.055 -0.0664 -0.2183 -0.0508
29164SOL    HW199470   8.859   8.375   4.966  1.0098  1.2429 -0.7936
29164SOL    HW299471   8.973   8.356   5.065 -0.3658 -0.7427  0.5025
29165SOL     OW99472   1.158   1.179   8.521 -0.1794 -0.5138  0.5760
29165SOL    HW199473   1.068   1.176   8.488 -0.2427 -1.3632  0.7956
29165SOL    HW299474   1.160   1.113   8.591  0.2540  0.4709  1.5184
29166SOL     OW99475   7.920   2.803   1.813 -0.3795  0.6276  0.4615
29166SOL    HW199476   7.874   2.870   1.863 -3.7662 -0.2791 -1.1371
29166SOL    HW299477   7.868   2.792   1.733  1.5756 -1.9545 -0.6139
29167SOL     OW99478   5.587   0.950  10.211  0.1792 -0.0450 -0.3382
29167SOL    HW199479   5.656   0.929  10.148  2.5295  0.8475  1.7632
29167SOL    HW299480   5.574   1.044  10.202  0.6832  0.1292  0.5796
29168SOL     OW99481   6.242   8.466  10.134  0.0951 -0.2029 -0.7598
29168SOL    HW199482   6.238   8.385  10.084  0.3058 -0.1113 -0.9290
29168SOL    HW299483   6.168   8.518  10.103 -0.2540 -0.4749 -0.3913
29169SOL     OW99484   3.089   8.797   2.225 -0.1657 -0.1918  0.0875
29169SOL    HW199485   3.184   8.810   2.228 -0.4027  1.7642  2.9793
29169SOL    HW299486   3.077   8.707   2.257  0.7099 -1.0996 -1.9500
29170SOL     OW99487   9.053   0.286   5.617  0.0328  0.0788  0.9211
29170SOL    HW199488   9.000   0.301   5.695  2.0996  0.0943  2.3858
29170SOL    HW299489   9.113   0.360   5.614 -1.7038  1.5777 -2.2773
29171SOL     OW99490   7.404   8.712   7.003  0.1545  0.0157 -1.0976
29171SOL    HW199491   7.381   8.801   6.975 -1.5768 -0.2499 -0.6429
29171SOL    HW299492   7.431   8.722   7.095 -0.3035  0.0590 -0.9617
29172SOL     OW99493   2.307   0.738   8.749 -0.0199  0.0101  0.5441
29172SOL    HW199494   2.293   0.717   8.656  0.2236  1.9872  0.0117
29172SOL    HW299495   2.293   0.656   8.795 -0.8487 -0.8596 -1.1879
29173SOL     OW99496   1.412   7.352   4.977 -0.3148 -0.3625  0.4514
29173SOL    HW199497   1.439   7.267   5.014 -1.0673 -0.4095  0.9240
29173SOL    HW299498   1.322   7.363   5.007  0.0657  1.0434  1.1711
29174SOL     OW99499   9.256   8.939   7.950 -0.3480 -0.4462  0.5954
29174SOL    HW199500   9.264   9.034   7.961  0.5778 -0.4082 -0.2635
29174SOL    HW299501   9.343   8.911   7.920 -0.6372 -1.5582  0.7550
29175SOL     OW99502   2.297   6.352   8.154  0.1911 -0.0038  0.3188
29175SOL    HW199503   2.291   6.424   8.217  0.3623  0.7178 -0.4818
29175SOL    HW299504   2.211   6.349   8.113  0.0584 -0.5213  0.6279
29176SOL     OW99505   9.509   3.396   0.206  0.5096  0.2567  0.0508
29176SOL    HW199506   9.548   3.351   0.281  1.3663  1.4894  0.3694
29176SOL    HW299507   9.559   3.364   0.130 -0.4892 -1.1420 -0.0537
29177SOL     OW99508   7.332   4.880   9.981  0.5274 -0.4387  0.1554
29177SOL    HW199509   7.260   4.822  10.009  0.1258  0.4088  0.9338
29177SOL    HW299510   7.348   4.855   9.890 -2.9894  1.4909 -1.1848
29178SOL     OW99511   9.455   9.185   9.566 -0.3854  0.2831 -0.2746
29178SOL    HW199512   9.436   9.275   9.592 -0.1518  0.1736  0.3049
29178SOL    HW299513   9.537   9.191   9.517 -0.2447  0.3605 -0.0330
29179SOL     OW99514   6.700   6.433   0.210  0.5118 -0.3452  0.1478
29179SOL    HW199515   6.691   6.354   0.157 -0.4158  0.2918 -0.6643
29179SOL    HW299516   6.704   6.401   0.301  1.1559 -1.3746 -0.2250
29180SOL     OW99517   4.054   1.744   4.690  0.0381  0.4574 -0.2322
29180SOL    HW199518   4.015   1.716   4.773 -1.0027  0.7308 -0.6021
29180SOL    HW299519   3.987   1.723   4.625  1.8502 -2.2341 -1.4202
29181SOL     OW99520   4.547   0.377   1.368 -0.2040 -0.1820 -0.3213
29181SOL    HW199521   4.577   0.370   1.459  0.2245 -0.3737 -0.4714
29181SOL    HW299522   4.508   0.291   1.350  0.0721 -0.2840 -0.4405
29182SOL     OW99523   6.021   9.472   1.496 -0.4607  0.5699  0.3224
29182SOL    HW199524   5.999   9.456   1.588 -0.2584 -0.6291  0.1710
29182SOL    HW299525   6.112   9.442   1.487 -0.4786  0.6827 -0.2732
29183SOL     OW99526   5.581   9.792   0.522  0.7937  0.4952 -0.6019
29183SOL    HW199527   5.608   9.753   0.439  1.5924  1.4768 -0.8132
29183SOL    HW299528   5.661   9.830   0.558  0.1000  1.6839 -0.2640
29184SOL     OW99529   5.515   8.496   0.683  0.9987  0.1034  0.5028
29184SOL    HW199530   5.577   8.500   0.610 -0.1079  0.1800 -0.4556
29184SOL    HW299531   5.468   8.579   0.679 -0.6294 -0.8028 -0.1321
29185SOL     OW99532   3.055   0.998   1.834  0.1251  0.3820  0.2777
29185SOL    HW199533   3.074   1.087   1.802 -0.1351 -0.1678 -1.5177
29185SOL    HW299534   2.962   0.987   1.819  0.4898 -0.8459 -1.2811
29186SOL     OW99535   0.532   8.745   3.188 -0.3533 -0.4925 -0.4703
29186SOL    HW199536   0.452   8.717   3.144 -0.6418 -0.5589  0.0871
29186SOL    HW299537   0.575   8.663   3.213 -0.6479 -0.4596  0.1752
29187SOL     OW99538   8.411   3.277   2.789 -0.1910  0.0946 -0.7904
29187SOL    HW199539   8.416   3.273   2.694  2.3430  1.0921 -0.7695
29187SOL    HW299540   8.490   3.232   2.819 -0.3263  0.8512  0.8076
29188SOL     OW99541   6.052   5.847   6.856 -0.1326 -0.2210 -0.0117
29188SOL    HW199542   6.071   5.764   6.810 -1.4432 -0.3241 -0.4082
29188SOL    HW299543   6.078   5.830   6.946  0.2184 -0.8453 -0.2172
29189SOL     OW99544   2.676   2.559   3.766  0.3539 -0.1768 -0.1782
29189SOL    HW199545   2.635   2.614   3.700  0.1855 -1.6598 -1.3815
29189SOL    HW299546   2.610   2.551   3.836 -0.1543  0.0346 -0.6301
29190SOL     OW99547   1.256   3.532   6.775  0.2677 -0.0276 -0.7660
29190SOL    HW199548   1.232   3.505   6.864  2.0241 -1.7296 -0.7514
29190SOL    HW299549   1.298   3.618   6.787  2.3838 -1.1514  0.3887
29191SOL     OW99550   2.145   1.518   5.010  0.1169 -0.1045  0.3244
29191SOL    HW199551   2.157   1.423   5.011  0.6043 -0.0892 -1.2106
29191SOL    HW299552   2.234   1.554   5.015  0.1930  0.1808 -2.0723
29192SOL     OW99553   3.875   5.962   9.434  0.2328 -0.7536  0.0985
29192SOL    HW199554   3.805   6.013   9.392 -0.6929 -1.8068  0.3048
29192SOL    HW299555   3.859   5.872   9.405  1.4846 -1.0219  0.1943
29193SOL     OW99556  10.209   5.052   5.786 -0.0283  0.1539 -0.2211
29193SOL    HW199557  10.303   5.065   5.785 -0.1338  1.2201  1.3055
29193SOL    HW299558  10.193   4.988   5.716  1.6136  1.1947 -1.6205
29194SOL     OW99559   6.439   0.443   2.618 -0.1186  0.1476 -0.6340
29194SOL    HW199560   6.374   0.438   2.688  1.0634 -0.5202  0.4657
29194SOL    HW299561   6.458   0.536   2.610  0.1303  0.1904  0.3355
29195SOL     OW99562   0.764   9.900   3.649  0.2129 -0.0143  0.2607
29195SOL    HW199563   0.845   9.872   3.605  0.3130 -0.4491  0.7140
29195SOL    HW299564   0.749   9.834   3.716 -0.6710 -0.0807  0.0077
29196SOL     OW99565   7.797  10.321   1.584  0.0524  0.0643 -0.5187
29196SOL    HW199566   7.857  10.365   1.645 -1.9525  1.3247  0.6628
29196SOL    HW299567   7.840  10.329   1.499  1.7962  0.4463  0.3541
29197SOL     OW99568   1.198   7.942   1.801  0.1513 -0.1053 -0.4136
29197SOL    HW199569   1.211   7.858   1.758  2.1893  0.4693 -1.0889
29197SOL    HW299570   1.250   7.936   1.881 -1.6090 -0.2835  0.7622
29198SOL     OW99571   8.694   6.236   5.317 -0.1223  0.2154 -0.0153
29198SOL    HW199572   8.778   6.278   5.337 -0.6828  0.7679  1.3167
29198SOL    HW299573   8.639   6.307   5.282  0.3302 -0.4086 -2.1504
29199SOL     OW99574   4.831   3.160   7.767 -0.0971  0.4943 -0.2098
29199SOL    HW199575   4.861   3.135   7.855 -1.4394 -0.6418 -0.0374
29199SOL    HW299576   4.910   3.154   7.713  0.0975 -2.4832  0.2090
29200SOL     OW99577   2.263   7.504   4.340 -0.3220 -0.0127 -0.1287
29200SOL    HW199578   2.330   7.566   4.369  1.5265 -1.9923  0.0961
29200SOL    HW299579   2.248   7.526   4.248  0.7679  0.3760 -0.2318
29201SOL     OW99580   4.388   4.522   3.226 -0.6849  0.2500  0.4267
29201SOL    HW199581   4.406   4.601   3.175  0.2391 -1.1582 -1.5575
29201SOL    HW299582   4.473   4.479   3.235 -0.7455  0.4905  3.4398
29202SOL     OW99583   9.102   8.129   5.860  0.2982  1.0423  0.0857
29202SOL    HW199584   9.047   8.206   5.879 -3.4352 -1.1987 -0.6803
29202SOL    HW299585   9.073   8.100   5.774  0.1046 -2.3221  1.1467
29203SOL     OW99586   2.596   9.080   7.506 -0.3354  0.1982 -0.1155
29203SOL    HW199587   2.633   9.040   7.427  1.1216  1.5644 -0.1782
29203SOL    HW299588   2.635   9.031   7.578  0.1534  0.4260 -0.2194
29204SOL     OW99589   0.230  10.180   7.751 -0.2416  0.0816 -0.5421
29204SOL    HW199590   0.269  10.240   7.814 -0.3574 -1.0725  0.6674
29204SOL    HW299591   0.248  10.093   7.786  0.6997 -0.6646 -2.6878
29205SOL     OW99592   3.128  10.119   7.048 -0.2114 -0.0382  1.0703
29205SOL    HW199593   3.084  10.196   7.085  0.0584 -0.4827  2.3641
29205SOL    HW299594   3.141  10.061   7.122 -0.4457 -1.3725  0.0982
29206SOL     OW99595   0.788   5.540   5.008  0.0054  0.5346  0.1904
29206SOL    HW199596   0.699   5.535   4.975  0.4050  1.2475 -1.0629
29206SOL    HW299597   0.808   5.451   5.038 -1.2135  0.4460  0.7844
29207SOL     OW99598   8.491   5.374   3.239  0.0213 -0.7205  0.4029
29207SOL    HW199599   8.552   5.334   3.301 -0.1240 -2.4730 -0.5047
29207SOL    HW299600   8.413   5.393   3.291 -0.1071 -2.1737  0.7964
29208SOL     OW99601   9.220   6.738   7.815 -0.0493 -0.0310  0.4685
29208SOL    HW199602   9.238   6.701   7.728  1.3296  1.2207  0.1659
29208SOL    HW299603   9.182   6.666   7.864  1.3478 -1.4885 -0.4643
29209SOL     OW99604   5.304   5.657   9.071 -0.5308 -0.0680 -0.6563
29209SOL    HW199605   5.258   5.672   9.153  0.3210  0.0030 -0.1860
29209SOL    HW299606   5.254   5.589   9.027 -0.6353 -0.5580  0.2084
29210SOL     OW99607   3.652   0.548   7.295 -0.1739 -0.4373  0.1103
29210SOL    HW199608   3.663   0.456   7.271 -2.5889 -0.8366  0.2858
29210SOL    HW299609   3.610   0.587   7.219  1.5676  0.7603 -0.2863
29211SOL     OW99610   6.989   4.661   5.765  0.2773 -0.0781  0.6234
29211SOL    HW199611   6.946   4.575   5.766  2.0250 -1.0127  0.9608
29211SOL    HW299612   7.081   4.640   5.748  0.3822  1.9320 -1.8332
29212SOL     OW99613   9.715   8.698   3.928 -0.0985 -0.4840  0.4398
29212SOL    HW199614   9.699   8.612   3.966 -1.5156  0.2278  1.5692
29212SOL    HW299615   9.715   8.758   4.003  1.4566  0.4505 -0.2460
29213SOL     OW99616   3.198   4.371   6.504  0.1723  0.2716  0.2909
29213SOL    HW199617   3.181   4.284   6.542  3.2936  0.7026  3.1494
29213SOL    HW299618   3.224   4.425   6.579  1.5985  2.7459 -1.8477
29214SOL     OW99619   5.908  10.218   2.042  0.2849 -0.0193  0.8910
29214SOL    HW199620   5.825  10.188   2.006  0.4511 -0.5004  0.8947
29214SOL    HW299621   5.944  10.141   2.087  0.7395  0.1749  0.8720
29215SOL     OW99622   8.861   5.262   3.196  0.2900  0.0842  0.4263
29215SOL    HW199623   8.913   5.340   3.176 -0.8219  0.6673 -0.2736
29215SOL    HW299624   8.791   5.262   3.131 -0.1870 -1.0810  0.9048
29216SOL     OW99625   2.566   5.333   8.735 -0.5282 -0.3040 -0.1486
29216SOL    HW199626   2.545   5.256   8.788  0.9719 -0.0498  0.8545
29216SOL    HW299627   2.483   5.382   8.731 -2.0687 -2.8408 -2.4445
29217SOL     OW99628   3.629   2.111   3.025 -0.1147 -1.0341 -0.3890
29217SOL    HW199629   3.687   2.036   3.018  0.2650 -1.0482  2.0906
29217SOL    HW299630   3.585   2.115   2.940  1.9026 -2.3203 -1.5734
29218SOL     OW99631   9.534   2.600   0.115 -0.2547 -0.3306  0.1614
29218SOL    HW199632   9.498   2.688   0.103  0.0414 -0.1472  0.5806
29218SOL    HW299633   9.510   2.553   0.035  1.3554  0.7348 -1.0299
29219SOL     OW99634   7.221   8.973   2.394 -0.2545  0.5941 -0.6711
29219SOL    HW199635   7.263   8.912   2.333  1.3419  1.6557 -0.7017
29219SOL    HW299636   7.293   9.006   2.448 -1.3347  1.2348  0.4174
29220SOL     OW99637   0.183   8.186   0.804  0.6335  0.3753  0.3778
29220SOL    HW199638   0.111   8.202   0.743  1.5390 -1.4076 -1.2737
29220SOL    HW299639   0.141   8.172   0.889 -0.7413  1.9024  0.0095
29221SOL     OW99640   0.724   0.250   2.002 -0.1669 -0.8457 -0.2651
29221SOL    HW199641   0.727   0.247   1.906  1.2491  0.2925 -0.2873
29221SOL    HW299642   0.799   0.197   2.030 -1.5759 -2.6430  0.3009
29222SOL     OW99643   1.824   6.011  10.113 -0.0121  0.6791  0.4154
29222SOL    HW199644   1.852   6.101  10.099  1.5994  0.1876  0.2564
29222SOL    HW299645   1.728   6.016  10.118  0.0719  2.4556  0.9536
29223SOL     OW99646   6.750   0.959   4.279  0.2185  0.4489 -0.4281
29223SOL    HW199647   6.774   0.878   4.323 -2.0284  0.8184  1.6923
29223SOL    HW299648   6.832   0.990   4.240  1.4925 -1.9340  0.1459
29224SOL     OW99649   8.133   4.461   1.117  0.1106 -0.4447 -0.0424
29224SOL    HW199650   8.152   4.388   1.177 -2.1630 -0.6850  0.4926
29224SOL    HW299651   8.038   4.469   1.119  0.2730  2.8359  0.2371
29225SOL     OW99652   8.699   7.456   7.450  0.1194  0.2793  0.2159
29225SOL    HW199653   8.775   7.420   7.495 -0.3494 -0.8157  0.1826
29225SOL    HW299654   8.734   7.523   7.391  0.7608  1.6310  2.0610
29226SOL     OW99655   1.004   3.964   8.601 -0.4954  0.0485  0.0458
29226SOL    HW199656   1.092   3.961   8.564 -1.0755 -1.0866 -1.3503
29226SOL    HW299657   0.960   4.032   8.550 -0.4422  0.6240  0.7494
29227SOL     OW99658   5.428   5.573   7.516  0.1011  0.0976  0.4600
29227SOL    HW199659   5.410   5.616   7.600 -2.0846 -0.4874  0.3619
29227SOL    HW299660   5.512   5.529   7.529 -0.0999  0.1761  2.3076
29228SOL     OW99661   6.696   8.628   0.490  0.5988 -0.1868 -0.1720
29228SOL    HW199662   6.776   8.680   0.479  0.7529 -0.3386  0.2167
29228SOL    HW299663   6.693   8.573   0.412  1.0023 -0.3487 -0.0767
29229SOL     OW99664   2.072   3.477   0.893  0.1963  0.5098  0.1762
29229SOL    HW199665   1.985   3.446   0.919  0.8113 -1.8840 -0.3820
29229SOL    HW299666   2.060   3.570   0.873 -1.5188  1.0808  3.2566
29230SOL     OW99667   9.144   4.963   6.039 -0.1829 -0.1229 -0.4954
29230SOL    HW199668   9.171   4.938   5.951 -0.3165 -1.2813 -0.2327
29230SOL    HW299669   9.057   5.001   6.028 -0.3319 -0.5519 -0.8367
29231SOL     OW99670   2.292   7.560   6.905 -0.5401 -0.5003 -0.0876
29231SOL    HW199671   2.267   7.646   6.939 -1.0600 -0.3691 -0.7723
29231SOL    HW299672   2.248   7.498   6.963 -1.0280 -0.2881 -0.2245
29232SOL     OW99673   6.784   4.813   5.654  0.3114  0.3956  0.0233
29232SOL    HW199674   6.839   4.868   5.598  0.0794  1.8359  1.1285
29232SOL    HW299675   6.846   4.770   5.713  0.7051 -2.2897 -2.1764
29233SOL     OW99676   2.511   8.933   0.805  0.4402  0.2511 -0.0989
29233SOL    HW199677   2.563   8.998   0.758 -1.3636  1.4532 -0.5360
29233SOL    HW299678   2.519   8.958   0.897  1.1278  0.0221 -0.0866
29234SOL     OW99679   9.911   8.084   1.802 -0.3921  0.5000 -0.3488
29234SOL    HW199680   9.978   8.025   1.836 -1.3055 -1.2279 -1.3889
29234SOL    HW299681   9.956   8.135   1.735  0.6945  1.8783  1.3519
29235SOL     OW99682   8.121   2.630   7.943  0.2760 -0.2036  0.2703
29235SOL    HW199683   8.134   2.724   7.958 -0.0007 -0.1856  0.3937
29235SOL    HW299684   8.083   2.598   8.025 -0.1999 -0.3108  0.0082
29236SOL     OW99685   8.658   0.071   8.983  0.1206  0.1587  0.2355
29236SOL    HW199686   8.654  -0.022   8.963  0.0845  0.0497  0.7331
29236SOL    HW299687   8.686   0.112   8.901  0.6071 -0.3353  0.1489
29237SOL     OW99688   5.878   8.112   7.804 -0.0874 -0.0434 -0.1821
29237SOL    HW199689   5.861   8.101   7.898 -0.0815 -0.2747 -0.2079
29237SOL    HW299690   5.934   8.190   7.799  0.1980 -0.2305  0.0352
29238SOL     OW99691   5.834   4.298   6.651  0.2552  0.2525 -0.3822
29238SOL    HW199692   5.874   4.218   6.686  0.8293  0.1286 -1.2837
29238SOL    HW299693   5.893   4.368   6.678 -1.0542  0.6232  1.7648
29239SOL     OW99694   4.747   3.609   2.872 -0.8991 -0.0498 -0.4995
29239SOL    HW199695   4.836   3.579   2.886 -0.4341  1.4511 -0.0982
29239SOL    HW299696   4.709   3.616   2.960 -0.6943  1.3747 -0.5052
29240SOL     OW99697   5.324   1.865   3.601 -0.2184  0.0771 -0.6065
29240SOL    HW199698   5.310   1.959   3.612 -1.1513 -0.2354  1.2634
29240SOL    HW299699   5.418   1.854   3.611 -0.3462  0.5730  1.8354
29241SOL     OW99700   1.504   5.251   5.531 -0.3538 -0.0116 -0.0622
29241SOL    HW199701   1.586   5.291   5.501 -1.0718  0.6327 -1.2231
29241SOL    HW299702   1.443   5.263   5.458 -1.5494 -0.3019  0.8589
29242SOL     OW99703   0.624  10.222   1.416  0.7247 -0.0729  0.0857
29242SOL    HW199704   0.637  10.269   1.498  0.1816  0.8902 -0.3593
29242SOL    HW299705   0.683  10.265   1.354 -1.3311  1.5543 -0.8819
29243SOL     OW99706   4.260   2.327   8.219 -0.2820 -0.1919  0.2297
29243SOL    HW199707   4.242   2.398   8.158 -2.5943 -1.1880 -0.3434
29243SOL    HW299708   4.355   2.316   8.215 -0.0228  1.8756 -0.7450
29244SOL     OW99709   4.015   5.094   7.056 -0.4683 -0.4719 -0.3761
29244SOL    HW199710   4.027   5.184   7.026  1.6001 -0.2538  0.9641
29244SOL    HW299711   4.082   5.044   7.010 -0.3530 -0.9726  0.3215
29245SOL     OW99712   6.456   0.648   8.155 -0.2360 -0.0363 -0.1258
29245SOL    HW199713   6.374   0.689   8.126 -1.4787 -1.2641  1.4396
29245SOL    HW299714   6.440   0.554   8.146  1.2272 -0.2877 -0.2990
29246SOL     OW99715   4.698   6.650   1.717 -0.5796  0.0016  0.3510
29246SOL    HW199716   4.657   6.681   1.636 -0.8400  1.5584  1.0350
29246SOL    HW299717   4.670   6.713   1.783  0.1248 -0.8935  1.5333
29247SOL     OW99718   0.551   3.816   3.711  0.3278  0.1706  0.5977
29247SOL    HW199719   0.573   3.770   3.793 -1.6837  1.6848  2.0931
29247SOL    HW299720   0.584   3.905   3.724  0.8460  0.1933 -0.7021
29248SOL     OW99721   6.359   4.368   8.872 -0.3076 -0.3483  1.0493
29248SOL    HW199722   6.416   4.445   8.881 -2.1386  0.9011  2.7684
29248SOL    HW299723   6.306   4.387   8.795 -0.4052 -0.1186  1.1717
29249SOL     OW99724   8.858  10.209   3.586  0.2966  0.0764 -0.5980
29249SOL    HW199725   8.839  10.170   3.672 -0.3863  0.4345 -0.5798
29249SOL    HW299726   8.818  10.296   3.590  1.3533  0.5950 -0.8251
29250SOL     OW99727   3.563   8.794   4.831  0.1261  0.0738  0.3900
29250SOL    HW199728   3.642   8.794   4.885 -1.0730  2.4793  2.3403
29250SOL    HW299729   3.589   8.837   4.750  0.9916  0.0682  0.6587
29251SOL     OW99730   7.658   1.416   5.289 -0.3615  0.5534  0.4067
29251SOL    HW199731   7.660   1.431   5.384 -0.0851 -0.0783  0.5026
29251SOL    HW299732   7.566   1.426   5.265 -0.5714 -0.2007  0.8904
29252SOL     OW99733   7.838   4.660   1.351  0.3105  0.1177  0.2274
29252SOL    HW199734   7.785   4.622   1.421 -0.0419  0.4871  0.1688
29252SOL    HW299735   7.856   4.588   1.292 -2.3613  0.4622 -1.1387
29253SOL     OW99736   5.282   0.060   8.842 -0.0826 -0.3794 -0.1115
29253SOL    HW199737   5.337   0.119   8.789  2.7315 -1.3432  1.5012
29253SOL    HW299738   5.261   0.110   8.920 -1.2017 -0.1616 -0.5405
29254SOL     OW99739   1.352   5.838   0.340 -0.3156  0.2486 -0.4936
29254SOL    HW199740   1.414   5.804   0.405 -0.4183  2.0066  0.6030
29254SOL    HW299741   1.347   5.770   0.273  0.0355 -1.5096  1.1805
29255SOL     OW99742   4.854   3.381   4.945  0.3263  0.6233  0.1935
29255SOL    HW199743   4.870   3.338   5.029  0.2006  4.1938  2.2301
29255SOL    HW299744   4.917   3.453   4.942  1.0105  0.0916 -3.3233
29256SOL     OW99745   0.799   7.657   8.575  0.1011  0.7593  0.1461
29256SOL    HW199746   0.786   7.728   8.512  2.9580  0.7968 -0.5650
29256SOL    HW299747   0.783   7.697   8.660  0.1112  1.8442 -0.3382
29257SOL     OW99748   6.799   2.190   7.117  0.1692  0.1778 -0.5627
29257SOL    HW199749   6.785   2.245   7.040 -0.3336 -1.4541 -1.6859
29257SOL    HW299750   6.724   2.207   7.174  0.0277  0.6459 -0.8892
29258SOL     OW99751   9.340   8.495   8.024 -0.8577 -0.2642  0.3158
29258SOL    HW199752   9.364   8.525   8.111  0.5974 -0.3663 -0.0363
29258SOL    HW299753   9.391   8.415   8.010 -1.7893 -0.7841 -0.2695
29259SOL     OW99754   0.943   9.874   2.541  0.1049 -0.2774 -0.3958
29259SOL    HW199755   0.896   9.948   2.501  0.4669  0.5185  0.6046
29259SOL    HW299756   1.023   9.867   2.489 -0.6387 -1.0111 -1.4938
29260SOL     OW99757   0.602   8.562   5.082 -0.2648 -0.3657  0.4446
29260SOL    HW199758   0.656   8.620   5.029 -2.3389  0.2155 -1.1743
29260SOL    HW299759   0.656   8.541   5.158  2.2756 -0.0479 -1.1813
29261SOL     OW99760   7.270   8.920   0.666  0.3760 -0.3557  0.3243
29261SOL    HW199761   7.179   8.939   0.641  0.4035  0.0042  0.4944
29261SOL    HW299762   7.282   8.828   0.642 -0.7814 -1.1294  2.4977
29262SOL     OW99763   6.664   2.872   6.397 -0.0445 -0.3234  0.4895
29262SOL    HW199764   6.756   2.865   6.422  0.6241  0.5114 -1.5048
29262SOL    HW299765   6.656   2.960   6.360 -1.5072 -0.5951  0.0838
29263SOL     OW99766  10.276   5.270   6.117 -0.1404  0.2388 -0.8875
29263SOL    HW199767  10.212   5.200   6.105 -0.8978  1.0366 -1.7126
29263SOL    HW299768  10.333   5.239   6.187 -1.2461 -0.6336 -0.3377
29264SOL     OW99769   4.386   9.470   5.402 -0.5762 -0.3463  0.2171
29264SOL    HW199770   4.318   9.421   5.356 -0.0052 -2.4685  1.4652
29264SOL    HW299771   4.348   9.556   5.418 -1.2913  0.0508 -2.9493
29265SOL     OW99772   3.338   9.919   6.627  0.1365 -0.7808 -0.2573
29265SOL    HW199773   3.269   9.972   6.587  1.1476  0.5140 -0.3806
29265SOL    HW299774   3.341   9.949   6.718  0.2237 -1.1625 -0.1354
29266SOL     OW99775   9.328   5.098   8.517 -0.0958 -0.4674 -0.6146
29266SOL    HW199776   9.418   5.095   8.486  0.7443  4.1075  0.5220
29266SOL    HW299777   9.275   5.112   8.438  0.6525  0.1205 -1.0263
29267SOL     OW99778   6.006  10.380   8.143 -0.3970 -0.2562  0.5101
29267SOL    HW199779   5.924  10.332   8.127  0.2157 -0.5738 -1.9795
29267SOL    HW299780   6.042  10.396   8.056  0.9806  2.0784  1.4248
29268SOL     OW99781   7.393   0.685   0.841  0.6913 -0.3848  0.0426
29268SOL    HW199782   7.382   0.621   0.912 -0.0546  0.9355  1.1633
29268SOL    HW299783   7.478   0.726   0.859  1.2432 -1.1364 -0.7670
29269SOL     OW99784   6.561   5.869   9.891 -0.3670  0.1907  0.2428
29269SOL    HW199785   6.529   5.932   9.955  0.9533  1.0361  0.1173
29269SOL    HW299786   6.634   5.825   9.936 -0.3163 -0.1878 -0.2018
29270SOL     OW99787  10.302   0.672   7.679 -0.1736 -0.0626 -0.0966
29270SOL    HW199788  10.339   0.758   7.702 -1.1205  1.2309 -2.9901
29270SOL    HW299789  10.221   0.692   7.632 -0.9220 -2.6078 -0.0287
29271SOL     OW99790   9.403   3.935   3.964 -0.3417 -0.6520  0.0188
29271SOL    HW199791   9.494   3.925   3.993 -0.4632 -1.7867  0.0396
29271SOL    HW299792   9.351   3.909   4.040 -0.6852 -0.7918 -0.2624
29272SOL     OW99793   6.211   8.127   4.593  0.0650 -0.3796 -0.1937
29272SOL    HW199794   6.233   8.078   4.513 -2.4206  0.4394 -1.4818
29272SOL    HW299795   6.281   8.105   4.654  3.5479  0.8000 -3.2964
29273SOL     OW99796   4.462   8.865   2.849 -0.6497  0.1620 -0.2382
29273SOL    HW199797   4.367   8.856   2.847 -0.7161  1.0521 -1.7041
29273SOL    HW299798   4.492   8.825   2.768  0.3711 -1.3200  0.8110
29274SOL     OW99799   0.905   4.806   5.673 -0.2979 -0.2382 -0.5611
29274SOL    HW199800   0.908   4.799   5.768 -0.0116 -0.3200 -0.5777
29274SOL    HW299801   0.992   4.782   5.643  0.1554  1.4637 -0.7336
29275SOL     OW99802   3.850   3.834   6.154 -0.3121 -0.1654  0.1926
29275SOL    HW199803   3.864   3.900   6.221 -1.6639 -1.1048  1.4718
29275SOL    HW299804   3.833   3.884   6.074 -3.4051  1.1991  1.5225
29276SOL     OW99805   6.012   0.343   7.597  0.3836  0.7398  0.4277
29276SOL    HW199806   5.951   0.404   7.638 -1.0082  0.4019 -0.9983
29276SOL    HW299807   6.018   0.373   7.506 -2.2156 -2.4215 -1.0103
29277SOL     OW99808   2.039   9.006   7.015 -0.1169  0.6101 -0.6830
29277SOL    HW199809   1.999   8.991   7.101  0.4757  0.8840 -0.3540
29277SOL    HW299810   2.069   9.097   7.017 -0.2449  0.6688 -1.2408
29278SOL     OW99811   0.293   5.296   3.448 -0.3289 -0.3893  0.1630
29278SOL    HW199812   0.309   5.283   3.542  1.0189  1.6498  0.2917
29278SOL    HW299813   0.236   5.373   3.444 -0.3898 -0.4702 -0.6764
29279SOL     OW99814   4.819   5.477   1.737  0.0753 -0.3305 -0.4505
29279SOL    HW199815   4.826   5.571   1.754 -0.7901 -0.1261 -1.1675
29279SOL    HW299816   4.739   5.451   1.783  0.5017 -0.7874  0.0361
29280SOL     OW99817   2.180   5.670   1.306  0.1947  0.4708  0.1397
29280SOL    HW199818   2.112   5.672   1.239  0.1617 -0.4315  0.1350
29280SOL    HW299819   2.172   5.583   1.345 -0.1399  1.1648  1.6779
29281SOL     OW99820   0.120   9.281   8.737  0.5986  0.1035 -0.1968
29281SOL    HW199821   0.191   9.226   8.771 -0.9289 -2.3040 -0.6790
29281SOL    HW299822   0.049   9.270   8.799  0.4244  2.1133  0.0190
29282SOL     OW99823   4.175   7.461   3.171 -0.2692 -0.0049 -0.3228
29282SOL    HW199824   4.203   7.459   3.080 -0.2719  0.2652 -0.3300
29282SOL    HW299825   4.245   7.415   3.218 -0.7996 -1.1162 -0.5923
29283SOL     OW99826   5.146   3.861   3.535  0.0213  0.1452  0.1038
29283SOL    HW199827   5.128   3.931   3.472 -0.7808  1.2888  1.5425
29283SOL    HW299828   5.212   3.899   3.594  1.8352 -1.4054 -0.7948
29284SOL     OW99829   0.408   3.219   1.799  0.2654  0.0143  0.0255
29284SOL    HW199830   0.441   3.131   1.783  0.9655  0.1444  0.6747
29284SOL    HW299831   0.314   3.208   1.812 -0.0359 -0.3407 -2.0707
29285SOL     OW99832   1.581   1.661   7.103 -0.1167  0.0357  0.0153
29285SOL    HW199833   1.505   1.716   7.085 -0.8683 -1.2105 -0.8320
29285SOL    HW299834   1.543   1.578   7.132  0.8788 -0.7658 -0.8877
29286SOL     OW99835   2.664   1.144   9.287  0.2418 -0.1299  0.1280
29286SOL    HW199836   2.749   1.181   9.310 -0.6993  0.7644  2.4809
29286SOL    HW299837   2.612   1.153   9.367 -2.0019 -0.8374 -1.1760
29287SOL     OW99838   3.867   8.189   9.882 -0.5627  0.2352  0.2196
29287SOL    HW199839   3.955   8.222   9.864  0.2475 -0.3809  2.6060
29287SOL    HW299840   3.812   8.226   9.813  1.2365  2.1734 -0.2668
29288SOL     OW99841   9.035  10.338   2.568  0.1113 -0.0667 -0.2183
29288SOL    HW199842   9.037  10.432   2.550  0.1835 -0.0254  0.0049
29288SOL    HW299843   9.023  10.332   2.663  1.1051 -0.2750 -0.0961
29289SOL     OW99844   7.404   4.541   9.022 -0.0359  0.3695  0.0335
29289SOL    HW199845   7.408   4.475   9.091  0.6861 -0.1127 -0.4544
29289SOL    HW299846   7.315   4.534   8.988  0.3251 -1.1177 -0.7162
29290SOL     OW99847   7.199   5.684   6.341 -0.2787  0.2407 -0.2494
29290SOL    HW199848   7.294   5.691   6.353 -0.0428 -1.5480 -0.8352
29290SOL    HW299849   7.182   5.590   6.338 -1.9112  0.5362 -1.4598
29291SOL     OW99850   6.899   1.263   4.550  0.8712  0.1208 -0.0295
29291SOL    HW199851   6.976   1.238   4.600  0.6862 -0.2017  0.1005
29291SOL    HW299852   6.928   1.337   4.496  1.2068  0.1455  0.1811
29292SOL     OW99853   9.481   1.865   4.752 -0.5287  0.2414  0.2700
29292SOL    HW199854   9.549   1.878   4.818  1.8147 -0.7658 -1.7914
29292SOL    HW299855   9.525   1.883   4.668 -2.2574 -2.2843 -1.3115
29293SOL     OW99856   9.701   0.475   1.488  0.1481 -0.0361  0.3259
29293SOL    HW199857   9.748   0.558   1.491 -0.8004  0.5229  0.2512
29293SOL    HW299858   9.630   0.490   1.426  1.5481 -1.7862 -1.8639
29294SOL     OW99859   0.410   5.404   8.343  0.1148 -0.6119 -0.0021
29294SOL    HW199860   0.414   5.309   8.343  0.4041 -0.6531  2.5526
29294SOL    HW299861   0.391   5.428   8.433  1.7552  1.7950 -0.1914
29295SOL     OW99862   2.298   0.234   8.745 -0.0263 -0.2225 -0.1005
29295SOL    HW199863   2.385   0.205   8.717  0.2253  1.7953 -1.6430
29295SOL    HW299864   2.245   0.232   8.666 -1.0093 -0.1229  0.5375
29296SOL     OW99865   4.340   1.718   6.560  0.1715  0.4621  0.4372
29296SOL    HW199866   4.421   1.668   6.548 -0.0614  0.2370 -0.2730
29296SOL    HW299867   4.364   1.788   6.620  0.8094  0.2018  0.4983
29297SOL     OW99868   3.145   1.652   0.081 -0.7684 -0.0252 -0.1441
29297SOL    HW199869   3.052   1.667   0.061 -0.4973  0.2572 -1.2336
29297SOL    HW299870   3.185   1.632  -0.003 -0.2713 -2.6076  0.6252
29298SOL     OW99871   7.167   4.638   8.447  0.2699  0.2816 -0.4492
29298SOL    HW199872   7.100   4.648   8.514 -0.0582  2.5765 -1.0302
29298SOL    HW299873   7.187   4.728   8.419  0.6791 -0.5484 -3.1392
29299SOL     OW99874   6.746   7.611   1.868  0.3311 -0.0454 -0.0714
29299SOL    HW199875   6.785   7.546   1.810  0.2072  0.9538 -1.3197
29299SOL    HW299876   6.664   7.571   1.899  1.3734 -1.3897  1.0582
29300SOL     OW99877   8.958   5.740   3.396  0.4040 -0.1498 -0.0763
29300SOL    HW199878   8.958   5.794   3.475 -0.1425  1.9521 -1.4155
29300SOL    HW299879   8.941   5.651   3.427 -1.4031  0.8307  2.0263
29301SOL     OW99880   4.732   8.755   3.099 -0.4192  0.8821  0.3832
29301SOL    HW199881   4.710   8.768   3.191 -2.7007 -0.5056  0.0972
29301SOL    HW299882   4.656   8.710   3.062  0.5346  1.1951 -2.1397
29302SOL     OW99883   8.485   6.135   9.087 -0.2516  0.2288  0.7370
29302SOL    HW199884   8.432   6.085   9.025  0.1874 -0.8396  1.2013
29302SOL    HW299885   8.515   6.070   9.151  1.8329  0.7330  0.3483
29303SOL     OW99886   3.523   7.359   8.339 -0.2857 -0.0595 -0.5554
29303SOL    HW199887   3.432   7.364   8.312 -0.9906 -0.2391  1.6168
29303SOL    HW299888   3.546   7.267   8.331 -1.2283 -0.5357  1.5353
29304SOL     OW99889   4.510   7.832   7.888 -0.2163 -0.3323 -0.0157
29304SOL    HW199890   4.495   7.922   7.860  0.4462 -0.4014 -0.6040
29304SOL    HW299891   4.566   7.794   7.820  3.4520  0.1601  2.4329
29305SOL     OW99892   6.069   5.584   0.800 -0.0809 -0.1435  0.0019
29305SOL    HW199893   6.047   5.677   0.804  1.3080  0.2310 -0.4447
29305SOL    HW299894   6.101   5.563   0.887 -0.3359 -0.1951  0.0846
29306SOL     OW99895   7.793   1.907   9.165  0.0907 -0.4319  0.0762
29306SOL    HW199896   7.811   1.953   9.084  1.4088 -1.1558 -0.0834
29306SOL    HW299897   7.799   1.974   9.233  0.4361 -0.0783 -0.2985
29307SOL     OW99898   2.548   4.929   2.585 -0.0846 -0.0088 -0.2738
29307SOL    HW199899   2.547   4.855   2.645  1.4573  0.0349 -0.1679
29307SOL    HW299900   2.485   4.905   2.516 -1.0471 -0.5335  0.7595
29308SOL     OW99901   8.525   8.182   0.453  0.3585  0.1603  0.2236
29308SOL    HW199902   8.586   8.108   0.448 -0.9006 -0.8583 -1.2400
29308SOL    HW299903   8.558   8.245   0.390  0.8350  0.3794  0.6842
29309SOL     OW99904   2.881   4.704   5.963 -0.2036 -0.1007 -0.2497
29309SOL    HW199905   2.813   4.715   6.029  0.3939  1.3200  0.1652
29309SOL    HW299906   2.949   4.767   5.988 -0.0463  0.6293 -2.3436
29310SOL     OW99907   0.312   8.446   7.751 -0.1551 -0.3889 -0.0977
29310SOL    HW199908   0.289   8.434   7.843  0.2301  0.6361  0.1454
29310SOL    HW299909   0.240   8.497   7.715 -0.0179 -0.2839 -0.2217
29311SOL     OW99910  10.207   9.005   6.532  0.0600  0.5538 -0.0516
29311SOL    HW199911  10.245   8.958   6.458 -0.3818 -0.5255  0.4019
29311SOL    HW299912  10.112   8.998   6.519 -0.0511 -0.6076  1.1883
29312SOL     OW99913   9.611   2.115   9.396 -0.3181 -0.6086  0.5056
29312SOL    HW199914   9.671   2.159   9.335 -1.0189  0.8844  0.8588
29312SOL    HW299915   9.660   2.038   9.425  1.6486  0.7922  1.1496
29313SOL     OW99916   8.439   1.861   2.610 -0.5055 -0.0286  0.0249
29313SOL    HW199917   8.518   1.867   2.663  0.2828  1.5448 -1.2429
29313SOL    HW299918   8.442   1.773   2.572 -0.4732 -0.7402  1.5998
29314SOL     OW99919   7.265   2.763   9.650  0.1879  0.2657 -0.6200
29314SOL    HW199920   7.173   2.737   9.637  0.2945  0.3465 -1.6246
29314SOL    HW299921   7.311   2.680   9.660 -0.2300  0.2534  1.8782
29315SOL     OW99922   9.636   8.059   1.497 -0.0325 -0.3590  0.3993
29315SOL    HW199923   9.653   8.102   1.581  3.6978  2.7096 -1.5871
29315SOL    HW299924   9.553   8.095   1.467  0.1065  0.9270  1.4781
29316SOL     OW99925   3.585   3.903   3.300 -0.5677 -0.1739  0.1220
29316SOL    HW199926   3.512   3.961   3.323 -0.7124 -0.3094  0.0087
29316SOL    HW299927   3.580   3.831   3.364  0.1389  0.3689  0.8193
29317SOL     OW99928   1.193   2.351   3.640  0.2970 -0.0461 -0.3974
29317SOL    HW199929   1.185   2.260   3.610 -0.1926  0.3383 -1.4962
29317SOL    HW299930   1.125   2.360   3.707 -0.0383 -0.3405 -0.6906
29318SOL     OW99931   7.283   1.231   4.408 -0.0722  0.1731  0.1742
29318SOL    HW199932   7.230   1.238   4.329 -0.8130 -2.2036  0.3824
29318SOL    HW299933   7.241   1.290   4.470 -1.1328  0.0284 -0.3822
29319SOL     OW99934   3.633   9.964   5.562 -0.0184 -0.0018  0.4912
29319SOL    HW199935   3.574   9.891   5.580 -0.9149 -0.2569 -2.8374
29319SOL    HW299936   3.580  10.042   5.575 -1.4168 -0.2403 -2.9314
29320SOL     OW99937   5.328   7.094  10.118 -0.3611  0.2141 -0.0497
29320SOL    HW199938   5.283   7.159  10.065 -0.3449  0.8176  0.6580
29320SOL    HW299939   5.395   7.144  10.165 -0.9116 -0.1616  1.1590
29321SOL     OW99940   4.672   7.706   7.695  0.7807  0.0801  0.2050
29321SOL    HW199941   4.685   7.758   7.616  0.2365 -0.2472 -0.1036
29321SOL    HW299942   4.618   7.632   7.667  1.6209 -0.7197  0.6112
29322SOL     OW99943  10.114   6.505   6.252  0.3774  0.6426  0.4256
29322SOL    HW199944  10.032   6.535   6.292 -0.2778  0.7912 -0.9778
29322SOL    HW299945  10.153   6.447   6.318 -2.2483 -1.7368  0.0677
29323SOL     OW99946   5.681   2.740   6.924 -0.8155 -1.2238  0.4361
29323SOL    HW199947   5.720   2.660   6.889 -2.0507 -2.2867  1.3567
29323SOL    HW299948   5.674   2.724   7.018  0.1638  0.5507  0.8516
29324SOL     OW99949   3.156   2.018   4.688  0.0271  0.2259  0.1927
29324SOL    HW199950   3.242   1.985   4.714 -0.0156  0.0233  0.0769
29324SOL    HW299951   3.094   1.965   4.737 -0.0840 -0.7014 -0.8918
29325SOL     OW99952   0.375   9.305   0.546 -0.1960  0.1943  0.0738
29325SOL    HW199953   0.410   9.265   0.626  0.6179 -1.0705 -0.8853
29325SOL    HW299954   0.314   9.240   0.512 -0.0657  0.4500 -0.6583
29326SOL     OW99955   1.793   3.916   6.174  0.0860 -0.3778  0.5476
29326SOL    HW199956   1.864   3.931   6.236  1.3813 -2.2592 -0.3749
29326SOL    HW299957   1.805   3.983   6.107 -0.1084  0.4131  1.2856
29327SOL     OW99958   5.024   0.597   9.658 -0.8730  0.1581 -0.1608
29327SOL    HW199959   5.083   0.614   9.732 -0.9553 -1.1910  0.2377
29327SOL    HW299960   4.991   0.683   9.634  1.2055  0.9597 -0.3654
29328SOL     OW99961   8.250   6.373   6.726 -0.2008  0.3658 -0.1100
29328SOL    HW199962   8.288   6.397   6.810 -2.2259 -0.7917  1.2373
29328SOL    HW299963   8.163   6.413   6.727 -0.5786 -0.3801 -1.2535
29329SOL     OW99964   3.937   8.987   8.991  0.1702 -0.1634  0.3896
29329SOL    HW199965   3.895   8.920   9.045  0.3923 -1.0368 -0.4826
29329SOL    HW299966   4.007   8.941   8.946  0.3582  0.6711 -0.1984
29330SOL     OW99967   5.690   2.471   1.468  0.3349 -0.2134 -0.0465
29330SOL    HW199968   5.612   2.422   1.446  0.1714  0.2687 -0.5810
29330SOL    HW299969   5.754   2.446   1.401  0.9308 -1.2567  0.8820
29331SOL     OW99970   0.917   2.820   7.339  0.6018  0.0724  0.5404
29331SOL    HW199971   0.981   2.875   7.293  0.1879 -0.7419 -1.0480
29331SOL    HW299972   0.832   2.854   7.312  0.3176 -1.8135 -1.1501
29332SOL     OW99973   9.271   7.384   1.273 -0.5871  0.5336 -0.2412
29332SOL    HW199974   9.276   7.416   1.363 -1.5513  0.2181 -0.0548
29332SOL    HW299975   9.239   7.459   1.223  1.5019  1.2038 -0.6320
29333SOL     OW99976   0.058   6.363   2.966  0.7448 -0.7435  0.0584
29333SOL    HW199977   0.101   6.448   2.975  0.8831 -0.7472 -0.5426
29333SOL    HW299978  -0.028   6.383   2.930  0.3683 -0.7704  0.9174
29334SOL     OW99979   9.542   9.147   5.528  0.2648 -0.4700 -0.4156
29334SOL    HW199980   9.580   9.234   5.533  0.7172 -0.7057  0.3987
29334SOL    HW299981   9.601   9.098   5.470 -0.9748  0.2385 -2.3744
29335SOL     OW99982   6.791   5.652   5.548 -0.1750  0.2158 -0.3240
29335SOL    HW199983   6.736   5.715   5.594 -0.8289  0.0475 -0.8461
29335SOL    HW299984   6.843   5.610   5.616 -0.3715  0.6939  0.1279
29336SOL     OW99985   7.422   7.091   9.178  0.1565 -0.5050 -0.5813
29336SOL    HW199986   7.499   7.147   9.168  2.2383 -2.9983  0.3415
29336SOL    HW299987   7.439   7.016   9.120 -1.9278 -0.8423 -0.8538
29337SOL     OW99988   4.063   7.645   4.359  0.0253 -0.4790 -0.5738
29337SOL    HW199989   4.126   7.697   4.310 -1.2796  0.9325 -0.8169
29337SOL    HW299990   4.013   7.598   4.292 -0.5306  0.0011 -0.4978
29338SOL     OW99991   5.586   6.151   3.397 -0.3005  0.1408  0.9986
29338SOL    HW199992   5.652   6.082   3.387  0.0864  0.3109  2.2225
29338SOL    HW299993   5.549   6.161   3.310  0.2192 -1.0347  0.6187
29339SOL     OW99994   3.561   0.648   3.042 -0.0596 -0.1425 -0.4946
29339SOL    HW199995   3.505   0.626   2.969  0.3612  1.1922 -1.2594
29339SOL    HW299996   3.551   0.576   3.104  0.8237 -2.1272 -2.5569
29340SOL     OW99997   1.883   8.238   1.418 -0.7089 -0.0589  0.3714
29340SOL    HW199998   1.843   8.274   1.497 -1.2895  0.0908  0.0150
29340SOL    HW299999   1.826   8.267   1.347 -0.1084 -0.0613 -0.1217
29341SOL     OW    0   7.203   7.135   3.891 -0.1087 -0.2363  0.3845
29341SOL    HW1    1   7.112   7.150   3.865 -1.1313 -1.8199  2.6904
29341SOL    HW2    2   7.216   7.191   3.967  0.0976 -1.5839  1.3822
29342SOL     OW    3  10.149   8.741   2.360 -0.6466 -0.3935  0.0009
29342SOL    HW1    4  10.120   8.811   2.418 -0.0968 -0.1891  0.0266
29342SOL    HW2    5  10.094   8.752   2.282  1.5382  2.0734 -1.3455
29343SOL     OW    6   6.126   5.676   3.334  1.0966 -0.1875 -0.3399
29343SOL    HW1    7   6.127   5.596   3.387 -1.9767  0.5863  1.1039
29343SOL    HW2    8   6.180   5.738   3.383 -1.5302  0.4541  1.9509
29344SOL     OW    9   9.260   3.014   7.445  0.4812 -0.0178  0.0581
29344SOL    HW1   10   9.340   2.977   7.482  0.7533 -1.2503 -1.6539
29344SOL    HW2   11   9.215   2.939   7.406 -2.1082  0.4261  1.9505
29345SOL     OW   12   9.761   4.302   5.068  0.8310  0.6629  0.4339
29345SOL    HW1   13   9.718   4.256   4.996  3.7617 -1.4732 -0.1316
29345SOL    HW2   14   9.742   4.395   5.052 -4.3274 -0.0121  0.9365
29346SOL     OW   15   8.939   4.923   7.335 -0.2833  0.0819 -0.5379
29346SOL    HW1   16   8.929   4.835   7.371  0.8771  0.2560  0.2907
29346SOL    HW2   17   8.931   4.912   7.241 -1.7022 -0.6659 -0.3535
29347SOL     OW   18   8.540   4.002   4.410  0.5319 -0.0430 -0.0416
29347SOL    HW1   19   8.596   4.069   4.370 -1.6046  2.6139  1.0441
29347SOL    HW2   20   8.573   3.994   4.499  0.1236  0.4556  0.1641
29348SOL     OW   21   8.697   5.628   3.871 -0.0214  0.4892  0.0036
29348SOL    HW1   22   8.789   5.601   3.869 -0.1346  0.1195 -0.4878
29348SOL    HW2   23   8.681   5.653   3.962  0.7580  1.2481 -0.0595
29349SOL     OW   24   7.391   7.781   7.592 -0.3979 -0.0619  0.3423
29349SOL    HW1   25   7.398   7.715   7.523 -0.8358  0.5942 -0.3396
29349SOL    HW2   26   7.300   7.778   7.619  0.1888 -1.8660  2.4923
29350SOL     OW   27   7.491   0.893   1.309  0.4616  0.4546 -0.5910
29350SOL    HW1   28   7.418   0.831   1.307 -0.2477  1.2671 -0.3791
29350SOL    HW2   29   7.556   0.852   1.367 -1.2429  1.2370  2.0122
29351SOL     OW   30   3.837   2.149   4.415  0.2670  0.1201 -0.0558
29351SOL    HW1   31   3.906   2.191   4.364  0.8074  0.1649  0.6882
29351SOL    HW2   32   3.844   2.056   4.393  0.7709  0.0819  0.2358
29352SOL     OW   33   8.739   0.382   6.053 -0.3181 -0.3107  0.5255
29352SOL    HW1   34   8.823   0.408   6.089 -1.4125  1.5785  1.8420
29352SOL    HW2   35   8.681   0.373   6.129 -1.8711  0.6154 -0.4958
29353SOL     OW   36  10.234   4.643   4.648  0.2818 -0.2514 -0.2231
29353SOL    HW1   37  10.169   4.631   4.578 -0.1209  0.3007  0.0413
29353SOL    HW2   38  10.215   4.730   4.682  3.4201  1.5013 -2.4714
29354SOL     OW   39   4.949   7.848   2.461 -0.0945 -0.2086 -0.7394
29354SOL    HW1   40   4.990   7.871   2.378  1.9695 -0.9575  0.0149
29354SOL    HW2   41   4.979   7.758   2.479 -0.6196 -0.1241  0.7282
29355SOL     OW   42   0.019   7.933   1.366 -0.1017 -0.5842  0.2416
29355SOL    HW1   43  -0.027   8.015   1.381  2.6872  0.6029  3.6311
29355SOL    HW2   44  -0.011   7.904   1.280 -1.8257  3.5237 -0.7746
29356SOL     OW   45   0.801   5.632   3.336 -0.0455 -0.7990  0.1925
29356SOL    HW1   46   0.877   5.585   3.371 -0.8739 -1.3450  1.3217
29356SOL    HW2   47   0.748   5.652   3.413  0.8662  3.2061  0.0099
29357SOL     OW   48   4.054   8.174   9.598  0.4952  0.1740 -0.4173
29357SOL    HW1   49   4.119   8.214   9.655 -0.7729  0.4357  0.9198
29357SOL    HW2   50   4.089   8.087   9.578 -0.5216 -1.4982  3.8212
29358SOL     OW   51   9.497   9.263   5.933 -0.1965 -0.1597  0.0012
29358SOL    HW1   52   9.482   9.173   5.959 -0.3912 -0.0992  0.1022
29358SOL    HW2   53   9.533   9.305   6.012  2.0372 -0.6772 -0.6780
29359SOL     OW   54   4.393   5.281   4.623  0.3300 -0.0130 -0.0530
29359SOL    HW1   55   4.325   5.342   4.597  0.3444 -0.2031 -0.5548
29359SOL    HW2   56   4.388   5.278   4.719  0.6753  1.1623  0.0158
29360SOL     OW   57   6.378   9.909   2.629  0.7854 -0.1057 -0.0174
29360SOL    HW1   58   6.355   9.853   2.555 -1.9680  1.0359 -0.1477
29360SOL    HW2   59   6.308   9.893   2.693  1.5676  1.0126  1.1475
29361SOL     OW   60   1.481   0.782   3.524  0.0529 -1.1012 -0.5993
29361SOL    HW1   61   1.490   0.809   3.433 -0.3085 -0.2103 -0.3824
29361SOL    HW2   62   1.455   0.862   3.570  1.5013 -1.2364  0.5100
29362SOL     OW   63   3.427   7.890   5.253 -0.1995 -0.2139  0.2202
29362SOL    HW1   64   3.425   7.837   5.174 -0.3560  0.2254 -0.0784
29362SOL    HW2   65   3.338   7.925   5.260  0.5768  2.2678 -1.1675
29363SOL     OW   66   4.720   0.902   5.670 -0.0062 -0.0524 -0.3538
29363SOL    HW1   67   4.664   0.826   5.659 -0.2835  0.1849 -0.6083
29363SOL    HW2   68   4.680   0.970   5.616  0.6852  0.0359 -0.7696
29364SOL     OW   69   7.608   8.880   1.923 -0.9030  0.2124  0.2333
29364SOL    HW1   70   7.557   8.956   1.953 -1.6764 -0.2108  0.0282
29364SOL    HW2   71   7.576   8.807   1.976 -2.7597 -0.6828 -1.9435
29365SOL     OW   72   4.570   6.686   6.660  0.1907 -0.8095  0.3900
29365SOL    HW1   73   4.562   6.716   6.569 -1.1099 -1.5005  0.2509
29365SOL    HW2   74   4.483   6.653   6.682  0.3951 -0.3732  2.0015
29366SOL     OW   75   9.969   4.274   4.658 -0.5024 -0.0915 -1.2256
29366SOL    HW1   76   9.915   4.213   4.607 -1.7013  1.8646 -2.4418
29366SOL    HW2   77  10.057   4.263   4.622 -0.8670 -0.4680 -2.0492
29367SOL     OW   78   1.088   1.905   1.487  0.2795 -0.5117 -0.4806
29367SOL    HW1   79   1.067   1.836   1.424 -0.2076 -0.3478 -0.4997
29367SOL    HW2   80   1.009   1.914   1.540 -0.7376  1.9585 -2.2338
29368SOL     OW   81   7.362   9.017   6.959 -0.2031 -0.5579  0.6234
29368SOL    HW1   82   7.296   9.070   6.916 -0.0934 -1.2012 -0.3641
29368SOL    HW2   83   7.380   9.063   7.042  0.0478  1.0517 -0.2802
29369SOL     OW   84   1.175   9.046   1.088 -0.3897 -0.1936 -0.3639
29369SOL    HW1   85   1.243   9.076   1.148  0.5946  1.2121 -2.0824
29369SOL    HW2   86   1.093   9.063   1.134  0.2220  2.8194 -0.1712
29370SOL     OW   87   5.267   2.390   5.191  0.4913  0.7373 -1.0488
29370SOL    HW1   88   5.267   2.294   5.199 -2.2425  0.6941 -0.8494
29370SOL    HW2   89   5.273   2.421   5.281 -1.4269  0.6725 -0.8686
29371SOL     OW   90  10.278   3.236   6.742 -0.4335  0.1235 -0.3679
29371SOL    HW1   91  10.362   3.251   6.697 -0.5439  0.1616 -0.5612
29371SOL    HW2   92  10.272   3.141   6.750 -0.3444  0.1226 -0.2984
29372SOL     OW   93  10.115   1.094   9.605  0.2109  0.5300 -0.1525
29372SOL    HW1   94  10.055   1.104   9.679  2.2126  0.2860  1.6152
29372SOL    HW2   95  10.066   1.126   9.529 -2.0900  0.3799  1.1878
29373SOL     OW   96   6.325   8.231   6.695 -0.2683 -0.0042 -0.1035
29373SOL    HW1   97   6.250   8.270   6.651  1.3484  2.4361 -0.8626
29373SOL    HW2   98   6.390   8.218   6.626  0.7336 -0.2169  0.8494
29374SOL     OW   99   6.039   9.942   2.929 -0.3507  0.1367 -0.0302
29374SOL    HW1  100   5.993   9.858   2.928 -1.5814  0.7954 -0.6377
29374SOL    HW2  101   6.010   9.985   3.009  0.0768  0.1003  0.1486
29375SOL     OW  102   8.979   3.893   8.398  0.2364  0.3028  0.1529
29375SOL    HW1  103   8.959   3.986   8.402  0.7052  0.3886  0.5475
29375SOL    HW2  104   8.926   3.860   8.325  0.0549  0.8722  0.0259
29376SOL     OW  105  10.184   9.676  10.023  0.7832  0.0048 -0.4431
29376SOL    HW1  106  10.138   9.759  10.019 -0.0484 -0.4258 -0.0211
29376SOL    HW2  107  10.139   9.626  10.091  1.9067 -0.4116  0.0324
29377SOL     OW  108   1.214   1.827   5.808 -0.3358 -0.3992  0.2390
29377SOL    HW1  109   1.304   1.832   5.838  0.0126  0.0179 -0.8366
29377SOL    HW2  110   1.217   1.771   5.730 -1.1782 -1.2655  0.8007
29378SOL     OW  111   1.591   6.634   0.313  0.1989  0.1565  0.8490
29378SOL    HW1  112   1.577   6.545   0.344 -2.9441  1.2230  3.0386
29378SOL    HW2  113   1.544   6.638   0.230 -0.6650  0.0151  1.3150
29379SOL     OW  114   2.108  10.121   9.034  0.4400  0.2569  0.0204
29379SOL    HW1  115   2.122  10.213   9.055  2.7803 -0.2745  1.0563
29379SOL    HW2  116   2.041  10.092   9.096 -0.1370  1.1893 -0.1582
29380SOL     OW  117   2.691   1.156   4.935  0.1414  0.0653 -0.1343
29380SOL    HW1  118   2.596   1.141   4.936  0.0413  0.6597  0.3699
29380SOL    HW2  119   2.707   1.212   5.012  0.9195 -0.1480 -0.1303
29381SOL     OW  120   5.910   8.689   0.887 -1.0947 -0.5650  0.1724
29381SOL    HW1  121   5.903   8.597   0.864  2.1438 -0.7991 -0.2765
29381SOL    HW2  122   5.989   8.695   0.941 -0.7104  2.0389 -0.5406
29382SOL     OW  123   8.981   8.786   4.500 -0.1130  0.1793  0.0474
29382SOL    HW1  124   9.056   8.814   4.447  0.8605  0.3905  1.4886
29382SOL    HW2  125   9.007   8.700   4.534 -0.1884  0.5902  1.1709
29383SOL     OW  126   7.561   2.118   3.358  0.0537  0.7493 -0.3674
29383SOL    HW1  127   7.563   2.049   3.292  1.8985 -0.0765  0.4678
29383SOL    HW2  128   7.558   2.071   3.442  1.9866  1.5944  0.2464
29384SOL     OW  129   4.852   7.600   8.238  0.5959 -0.5220 -0.3173
29384SOL    HW1  130   4.840   7.589   8.333  2.9620 -0.2888  0.0741
29384SOL    HW2  131   4.848   7.511   8.203 -4.5995 -0.4282 -0.7758
29385SOL     OW  132   9.606   9.777   3.003 -0.1354 -0.2478  0.3314
29385SOL    HW1  133   9.521   9.747   3.037 -1.1183  2.2601  0.2697
29385SOL    HW2  134   9.607   9.746   2.912 -0.7825 -0.6898  0.4635
29386SOL     OW  135   6.241   6.523   0.803 -0.0015 -0.0033  0.2450
29386SOL    HW1  136   6.175   6.514   0.871  0.6342  0.0078  0.8815
29386SOL    HW2  137   6.300   6.448   0.817  1.2661  1.0709  1.0133
29387SOL     OW  138   1.227  10.092   8.307  0.3608  0.0513 -0.0430
29387SOL    HW1  139   1.281  10.044   8.244 -0.6638 -1.9686  0.5227
29387SOL    HW2  140   1.268  10.178   8.313  1.3881 -0.1981 -2.2893
29388SOL     OW  141   6.060   8.135   5.541  0.0912  0.0205  0.5671
29388SOL    HW1  142   6.073   8.040   5.537 -1.7621 -0.2377 -0.2591
29388SOL    HW2  143   6.020   8.150   5.627  1.5232  0.2490  1.2264
29389SOL     OW  144   2.556   1.406   1.312  0.0310  0.3211  0.6465
29389SOL    HW1  145   2.479   1.463   1.318  0.1288  0.3736  1.5811
29389SOL    HW2  146   2.559   1.363   1.397 -1.3585 -2.7974 -0.7263
29390SOL     OW  147   8.600   4.847   3.999  0.0128 -0.8079  0.1857
29390SOL    HW1  148   8.663   4.780   4.023 -0.7710 -0.9723  1.9385
29390SOL    HW2  149   8.516   4.802   3.997 -0.3596 -0.1280  0.1697
29391SOL     OW  150   5.310   0.477   7.260  0.5875 -0.0605 -0.4907
29391SOL    HW1  151   5.398   0.505   7.284  1.0617 -0.9717 -1.1245
29391SOL    HW2  152   5.302   0.499   7.167 -0.7333  2.1681  0.0549
29392SOL     OW  153   3.358   5.296   5.291  0.5943  0.4307 -0.0370
29392SOL    HW1  154   3.306   5.216   5.277  1.0553  0.2761 -0.9105
29392SOL    HW2  155   3.351   5.344   5.208  2.5881 -0.0353 -0.5262
29393SOL     OW  156   5.495   4.695   1.096 -0.0581  0.0252 -0.6995
29393SOL    HW1  157   5.473   4.739   1.178  0.4315  0.5923 -0.8648
29393SOL    HW2  158   5.581   4.729   1.073  0.2249 -0.8360 -0.9671
29394SOL     OW  159   7.748   8.412   2.255 -0.0955 -0.7945  0.3626
29394SOL    HW1  160   7.796   8.344   2.302 -0.7092 -1.2616  0.3171
29394SOL    HW2  161   7.658   8.405   2.286 -0.4635 -0.9556 -0.7038
29395SOL     OW  162  10.220   8.289   4.377 -0.0977  0.3189  0.2661
29395SOL    HW1  163  10.204   8.213   4.433 -2.2478  1.0042  0.6812
29395SOL    HW2  164  10.303   8.271   4.335 -0.2697 -1.9911  0.7973
29396SOL     OW  165   1.472   4.500   3.986 -0.0149  0.0085 -0.2723
29396SOL    HW1  166   1.500   4.423   4.036  1.6987  0.4815 -0.4262
29396SOL    HW2  167   1.423   4.464   3.912  0.3059 -0.9048 -0.0612
29397SOL     OW  168   8.550   3.587   7.461 -0.8013  0.3192  0.2280
29397SOL    HW1  169   8.599   3.560   7.383 -0.1467 -0.9341  1.0448
29397SOL    HW2  170   8.612   3.640   7.511 -1.3638  1.5080 -0.2790
29398SOL     OW  171   0.177   6.964   8.803 -0.8973 -0.2441 -0.0840
29398SOL    HW1  172   0.131   7.045   8.780 -0.2863 -0.0045 -0.5006
29398SOL    HW2  173   0.232   6.988   8.877 -0.9856 -0.3729  0.0229
29399SOL     OW  174   0.049  10.192   8.134 -0.2061 -0.2473  0.1294
29399SOL    HW1  175   0.140  10.166   8.123  0.0392  0.3380  0.7142
29399SOL    HW2  176  -0.001  10.121   8.094  0.4820 -0.9774  0.5315
29400SOL     OW  177   5.061   0.390   1.025 -0.7928  0.4626  0.1853
29400SOL    HW1  178   5.102   0.404   1.110 -2.4712  2.8282  0.7081
29400SOL    HW2  179   5.128   0.415   0.961 -0.0335  0.1688  0.8471
29401SOL     OW  180   9.671   4.472   7.443 -0.7193  0.5818 -0.0228
29401SOL    HW1  181   9.659   4.513   7.357  0.0435 -0.0276 -0.4340
29401SOL    HW2  182   9.748   4.514   7.480 -1.6603  1.5939  0.8411
29402SOL     OW  183   4.191   5.254   5.094 -0.2705 -0.0255 -0.1289
29402SOL    HW1  184   4.151   5.341   5.089 -1.9663 -0.8213 -1.5378
29402SOL    HW2  185   4.154   5.216   5.173  0.6511  0.5860  0.6175
29403SOL     OW  186   7.633   0.952   0.875 -0.0173 -0.3546  0.0052
29403SOL    HW1  187   7.651   0.912   0.960  1.6342 -1.6869 -0.9155
29403SOL    HW2  188   7.701   0.917   0.817 -1.9905 -0.7021 -2.2489
29404SOL     OW  189   8.568   8.199   6.411  0.1481  0.1842 -0.6099
29404SOL    HW1  190   8.659   8.218   6.387  0.4139 -0.1012  0.1416
29404SOL    HW2  191   8.571   8.179   6.504 -0.7157  0.3198 -0.5424
29405SOL     OW  192   2.017   5.925   1.251  0.1327 -0.0097  0.2639
29405SOL    HW1  193   2.006   6.019   1.259  3.4491  0.3597  2.1487
29405SOL    HW2  194   2.001   5.891   1.339 -1.0807 -1.2995 -0.3915
29406SOL     OW  195   6.549   6.897   7.775 -0.2276 -0.0742 -0.4012
29406SOL    HW1  196   6.513   6.811   7.755  0.4684 -0.9996  2.0342
29406SOL    HW2  197   6.498   6.957   7.720 -2.3145 -1.7813 -0.4699
29407SOL     OW  198   9.850   6.531   8.387  0.4300 -0.7823  0.0839
29407SOL    HW1  199   9.814   6.495   8.468  1.2681 -1.5763  0.1212
29407SOL    HW2  200   9.943   6.544   8.406  0.4912 -0.2997 -0.5228
29408SOL     OW  201   9.555   4.358   7.697  0.2221 -0.8651  0.4757
29408SOL    HW1  202   9.555   4.393   7.787  1.1285  0.1700  0.0891
29408SOL    HW2  203   9.483   4.404   7.654  1.4572  0.6424 -0.0523
29409SOL     OW  204   1.190   7.296   0.141 -0.3746  0.2458  0.1085
29409SOL    HW1  205   1.105   7.330   0.168 -0.9541 -1.2941  0.3537
29409SOL    HW2  206   1.241   7.373   0.118 -1.1811  1.3598  1.8431
29410SOL     OW  207   4.870   0.167   3.179  0.4473 -0.5246  0.9534
29410SOL    HW1  208   4.938   0.212   3.229  0.5978 -1.5800  1.7280
29410SOL    HW2  209   4.903   0.165   3.089  0.2032  1.3366  0.7902
29411SOL     OW  210   9.574   5.230   1.900 -0.1237 -0.1716 -0.9398
29411SOL    HW1  211   9.554   5.317   1.866 -0.4452  0.0314 -0.2656
29411SOL    HW2  212   9.631   5.190   1.835  0.8207  0.9095 -0.7910
29412SOL     OW  213   1.083  10.155   1.067 -0.1846  0.1197 -0.2255
29412SOL    HW1  214   1.023  10.218   1.030  0.2066  1.2389  0.9618
29412SOL    HW2  215   1.157  10.153   1.007 -0.4490  0.3540 -0.5607
29413SOL     OW  216   0.060   3.419   6.119  0.2255 -0.2082 -0.0279
29413SOL    HW1  217   0.002   3.492   6.098 -0.4663 -0.8709 -0.4811
29413SOL    HW2  218   0.001   3.349   6.146  0.9442 -0.2466  1.5319
29414SOL     OW  219   6.461   7.128   7.583  0.9619 -0.4982 -0.2959
29414SOL    HW1  220   6.554   7.147   7.591  0.8738 -0.2592  0.1871
29414SOL    HW2  221   6.454   7.072   7.505  1.6592 -1.5686  0.3938
29415SOL     OW  222   1.899   0.632   9.779  0.7925 -0.0516 -0.6256
29415SOL    HW1  223   1.860   0.600   9.860  2.0345 -1.4468 -0.5436
29415SOL    HW2  224   1.842   0.599   9.709  0.1963  0.4484 -0.3908
29416SOL     OW  225  10.086   2.210   1.986  0.1104  0.1166 -0.5323
29416SOL    HW1  226  10.159   2.259   2.025 -0.7026  1.0865 -0.1797
29416SOL    HW2  227  10.116   2.120   1.984  0.6355  0.2234  1.2704
29417SOL     OW  228   5.778   5.239   9.827  0.2332 -0.3688  0.0112
29417SOL    HW1  229   5.843   5.220   9.895 -0.1198  1.6293  0.9909
29417SOL    HW2  230   5.694   5.222   9.869  0.0492 -0.2360 -0.2994
29418SOL     OW  231   0.431   9.535   2.160 -0.4986 -0.3409  0.2470
29418SOL    HW1  232   0.478   9.544   2.077  0.9795 -1.4388  0.9169
29418SOL    HW2  233   0.450   9.445   2.189 -0.8053  0.0796  1.8666
29419SOL     OW  234   9.137   0.007   5.052  0.2610 -0.0114  0.4802
29419SOL    HW1  235   9.160   0.079   4.992  0.8636 -0.0944  0.6105
29419SOL    HW2  236   9.122  -0.068   4.994 -2.2275  0.6366  0.1641
29420SOL     OW  237   2.439   5.282   6.084  0.4238  0.2946 -0.4513
29420SOL    HW1  238   2.405   5.213   6.028 -0.2511  1.3363 -1.3579
29420SOL    HW2  239   2.526   5.300   6.049  0.9725 -0.6748  0.3424
29421SOL     OW  240   1.400   3.675   6.303  0.3103 -0.2712 -0.5234
29421SOL    HW1  241   1.450   3.596   6.283 -1.2788 -1.6114  0.5393
29421SOL    HW2  242   1.373   3.664   6.394  0.7110  1.8982 -0.0861
29422SOL     OW  243   2.065   7.784   7.359 -0.0780  0.4883  0.0939
29422SOL    HW1  244   2.102   7.701   7.390 -0.8412  0.7835  1.8832
29422SOL    HW2  245   2.124   7.851   7.395  0.3261  0.7765 -1.0433
29423SOL     OW  246   0.378   7.350   1.623  0.0793 -0.5857 -0.2070
29423SOL    HW1  247   0.427   7.276   1.589  1.1920 -0.1650  0.4208
29423SOL    HW2  248   0.436   7.390   1.688 -1.3277 -0.4132  1.0140
29424SOL     OW  249   8.587   1.043   8.876 -0.1287  0.1790 -0.4342
29424SOL    HW1  250   8.561   1.088   8.956 -0.5285 -0.1491 -0.3820
29424SOL    HW2  251   8.518   1.062   8.813  0.1510  0.3817 -0.6886
29425SOL     OW  252   6.144   5.260   8.832 -0.1733 -0.0033 -0.5543
29425SOL    HW1  253   6.108   5.172   8.818 -0.7034  0.2237 -0.6526
29425SOL    HW2  254   6.204   5.250   8.906  1.4357 -0.8921 -1.9351
29426SOL     OW  255   7.219   3.333   6.817  0.1955 -0.1020  0.1214
29426SOL    HW1  256   7.303   3.361   6.781  0.4165 -1.0441 -0.1282
29426SOL    HW2  257   7.155   3.396   6.782  0.6951  0.2097 -0.2404
29427SOL     OW  258   3.709   8.899   4.607  0.3012  0.0076 -0.3757
29427SOL    HW1  259   3.772   8.871   4.674 -0.1914 -1.4592 -0.4885
29427SOL    HW2  260   3.756   8.889   4.524  1.3309  2.9643 -0.2696
29428SOL     OW  261   9.162   2.300   2.245 -0.2418 -0.2363  0.2357
29428SOL    HW1  262   9.204   2.357   2.309 -1.0730 -0.2676  0.8175
29428SOL    HW2  263   9.234   2.249   2.207  0.4081  0.6624  0.2447
29429SOL     OW  264   2.684   2.246   5.803 -0.3299 -0.3579  0.0689
29429SOL    HW1  265   2.616   2.194   5.846  0.6039 -0.4699  1.4866
29429SOL    HW2  266   2.713   2.308   5.871  0.0185  0.6241 -0.9427
29430SOL     OW  267   8.787   6.562   3.973 -0.3327 -0.6781 -0.2197
29430SOL    HW1  268   8.827   6.639   4.013 -1.3044  0.3803 -1.2014
29430SOL    HW2  269   8.706   6.595   3.933 -1.2103 -2.3715  0.0584
29431SOL     OW  270   9.010   4.331   6.113  0.1551 -0.2916 -0.3045
29431SOL    HW1  271   8.955   4.370   6.045 -0.0980 -0.8633 -0.4347
29431SOL    HW2  272   8.960   4.254   6.143  0.9001 -0.8465 -0.4560
29432SOL     OW  273   8.983   0.488   6.191  0.1159 -0.2205 -0.2853
29432SOL    HW1  274   9.000   0.513   6.282 -0.3643  0.1645 -0.2987
29432SOL    HW2  275   8.931   0.560   6.156  0.2896 -0.3740 -0.8650
29433SOL     OW  276   4.488  10.329   6.797  0.2342 -0.0344  0.1683
29433SOL    HW1  277   4.412  10.328   6.740 -0.3608  0.2177  0.9363
29433SOL    HW2  278   4.563  10.334   6.738 -0.3871  0.8237 -0.5661
29434SOL     OW  279   1.352   1.094   9.011 -0.3921  0.3680  0.1747
29434SOL    HW1  280   1.281   1.055   8.960  0.8477 -0.2457 -1.1348
29434SOL    HW2  281   1.322   1.087   9.102 -1.8539 -0.1692 -0.3111
29435SOL     OW  282   3.840   1.007   8.182 -0.3199 -0.2967  0.5656
29435SOL    HW1  283   3.808   0.921   8.157  2.2355 -1.8855  2.3136
29435SOL    HW2  284   3.792   1.028   8.262 -0.2484 -0.5120  0.6635
29436SOL     OW  285   2.032   1.808   4.918 -0.3057  0.1244  0.9956
29436SOL    HW1  286   1.980   1.883   4.888 -1.7097  0.0411  3.0396
29436SOL    HW2  287   2.116   1.846   4.942  0.6512  0.3039 -2.1180
29437SOL     OW  288   5.948   4.000   7.029  0.3708  0.3239  0.4684
29437SOL    HW1  289   6.029   3.952   7.046  0.6997  1.2790  1.8079
29437SOL    HW2  290   5.880   3.934   7.032  1.0854 -0.5067 -0.7272
29438SOL     OW  291   4.617   5.814   0.566  0.4455 -0.1475 -0.6512
29438SOL    HW1  292   4.558   5.805   0.492  0.3476 -0.5989 -0.5214
29438SOL    HW2  293   4.685   5.875   0.536 -0.1938  0.5359 -0.7276
29439SOL     OW  294   7.902   6.250   1.452  0.2258  0.1198 -0.6027
29439SOL    HW1  295   7.886   6.156   1.443  0.9466 -0.1007  0.3168
29439SOL    HW2  296   7.969   6.269   1.387  0.3194 -0.0630 -0.5587
29440SOL     OW  297   3.372   7.824   3.995 -0.1898 -0.1854  0.0364
29440SOL    HW1  298   3.333   7.838   3.909 -0.2743  1.6838  0.3255
29440SOL    HW2  299   3.297   7.815   4.054 -0.1357 -1.0651 -0.0244
29441SOL     OW  300   4.540   6.326   7.413  0.3463  0.2282  0.3183
29441SOL    HW1  301   4.570   6.239   7.389 -0.0023  0.1247  0.2438
29441SOL    HW2  302   4.447   6.314   7.434  0.1797  0.6610 -0.1507
29442SOL     OW  303   7.362   2.533   9.917 -0.0056  0.4933 -0.6253
29442SOL    HW1  304   7.421   2.503   9.848 -0.2486  0.3483 -0.7666
29442SOL    HW2  305   7.301   2.461   9.930  1.2033 -0.2978  1.0851
29443SOL     OW  306   3.915   2.007   3.299  0.0780 -0.2336 -0.7424
29443SOL    HW1  307   3.967   2.050   3.231  0.3794 -0.4618 -0.6578
29443SOL    HW2  308   3.886   1.925   3.259  1.1625 -0.8789 -0.2335
29444SOL     OW  309   7.062   8.715   5.519 -0.5691 -0.7658  0.1388
29444SOL    HW1  310   7.047   8.623   5.544 -0.1058 -0.6494  0.8888
29444SOL    HW2  311   6.984   8.761   5.551 -0.2487 -0.7127  0.8543
29445SOL     OW  312   3.597   0.668   7.058  0.3229 -0.0111  0.2935
29445SOL    HW1  313   3.531   0.727   7.095 -0.3884  0.4833 -1.6331
29445SOL    HW2  314   3.644   0.722   6.994  1.2033 -0.9346  0.1279
29446SOL     OW  315   9.151   2.555   1.184  0.1054  0.0791  0.5807
29446SOL    HW1  316   9.161   2.460   1.188  0.0484  0.1040  1.5028
29446SOL    HW2  317   9.077   2.574   1.242 -0.2894  0.6336 -0.0901
29447SOL     OW  318   0.769   4.586   5.011 -0.3356  0.1549 -0.2588
29447SOL    HW1  319   0.830   4.520   4.978 -0.8727  0.7553 -2.6986
29447SOL    HW2  320   0.685   4.539   5.017 -0.5465  0.3806 -1.2277
29448SOL     OW  321   9.666   9.218   8.891 -0.3768  0.5895  0.6491
29448SOL    HW1  322   9.603   9.248   8.957 -0.4100 -1.7274  1.7811
29448SOL    HW2  323   9.653   9.123   8.888  0.5560  0.4753 -1.7830
29449SOL     OW  324   8.146   1.561   4.572 -0.7060  0.4017  0.0863
29449SOL    HW1  325   8.202   1.539   4.646 -1.4751  1.8076  1.1408
29449SOL    HW2  326   8.163   1.654   4.556 -2.9044  0.9682  0.6557
29450SOL     OW  327   1.755   3.127   2.028  0.4105  0.4695  0.0727
29450SOL    HW1  328   1.823   3.152   2.089 -2.0443  1.3176  2.6978
29450SOL    HW2  329   1.787   3.047   1.987  1.9287 -0.5976  3.0826
29451SOL     OW  330   4.254   1.105   5.845 -0.0875  0.4555  0.1381
29451SOL    HW1  331   4.251   1.118   5.750  0.4373  0.4339  0.1161
29451SOL    HW2  332   4.198   1.174   5.880  2.4917  2.7851  0.0164
29452SOL     OW  333   9.007   0.254   9.340 -0.1855 -0.1629  0.1349
29452SOL    HW1  334   9.002   0.343   9.306 -1.5777  1.0790  3.2375
29452SOL    HW2  335   8.940   0.206   9.290 -2.7552  1.7911  1.4589
29453SOL     OW  336   2.399   6.816   6.113  0.2700 -0.2122 -0.1208
29453SOL    HW1  337   2.449   6.749   6.160  0.9052  1.0396  1.0457
29453SOL    HW2  338   2.466   6.865   6.064 -0.1668 -0.3097 -0.8240
29454SOL     OW  339   2.088   3.060   4.347  0.5531 -0.0642 -0.0775
29454SOL    HW1  340   2.179   3.055   4.319  0.3307 -1.9624 -0.6304
29454SOL    HW2  341   2.060   3.148   4.323  2.3198  0.6786  0.4377
29455SOL     OW  342   4.299   0.812   4.024 -0.2408 -0.4393 -0.2005
29455SOL    HW1  343   4.229   0.767   3.978  1.2150 -2.0497 -0.9817
29455SOL    HW2  344   4.287   0.789   4.116 -0.7031 -0.7385 -0.3374
29456SOL     OW  345   7.429   9.866   2.939 -0.9557  0.1519 -0.4204
29456SOL    HW1  346   7.340   9.832   2.931 -1.2860  1.1023 -1.0851
29456SOL    HW2  347   7.429   9.944   2.883 -0.2640  1.2645  1.0694
29457SOL     OW  348   3.360   4.597   1.693  0.5035 -0.3677  0.9603
29457SOL    HW1  349   3.371   4.513   1.647  0.8628  0.5225 -0.6388
29457SOL    HW2  350   3.399   4.582   1.780  1.1812 -1.6494  0.4594
29458SOL     OW  351   1.040   8.835   5.033  0.4735  0.4159  0.5949
29458SOL    HW1  352   1.095   8.795   4.967 -1.3863 -0.5661 -0.4590
29458SOL    HW2  353   1.099   8.856   5.105  2.0606 -1.2708 -0.1431
29459SOL     OW  354   0.542   6.249   4.305 -0.2556 -0.0978  0.1778
29459SOL    HW1  355   0.558   6.166   4.260  3.0471 -1.0028  2.6556
29459SOL    HW2  356   0.461   6.282   4.266 -2.3114 -4.8974 -0.2677
29460SOL     OW  357   2.223   1.050   8.096  0.0817  0.1899 -0.1552
29460SOL    HW1  358   2.282   0.975   8.088 -1.2570 -0.9904  0.6073
29460SOL    HW2  359   2.139   1.018   8.065 -0.5980  1.2745  0.5028
29461SOL     OW  360   2.975   9.658   3.025 -0.1621  0.3631 -0.1161
29461SOL    HW1  361   3.026   9.715   3.082 -0.0189  1.7897 -1.5978
29461SOL    HW2  362   2.902   9.628   3.080  0.1862  1.3545  0.9275
29462SOL     OW  363   0.265   2.948   4.155  0.2327  0.1469 -0.3929
29462SOL    HW1  364   0.300   2.880   4.213 -0.2173  1.2585  1.2694
29462SOL    HW2  365   0.215   2.899   4.089  1.6199 -1.2242 -0.4956
29463SOL     OW  366   9.825   6.026   2.319  0.2536  0.3338  0.0773
29463SOL    HW1  367   9.912   6.035   2.358  0.2478  1.1290 -0.0848
29463SOL    HW2  368   9.764   6.045   2.390  0.2470  3.9290 -0.7413
29464SOL     OW  369   9.630   7.050   4.081 -0.1492  0.1577 -0.2085
29464SOL    HW1  370   9.615   7.144   4.091 -0.3736  0.2015 -0.8846
29464SOL    HW2  371   9.543   7.014   4.063  0.0467 -0.0595 -0.7570
29465SOL     OW  372   2.213   7.930   5.559  0.3350  0.0468  0.3143
29465SOL    HW1  373   2.269   7.962   5.630  0.7782 -1.0595  0.4751
29465SOL    HW2  374   2.124   7.948   5.588  0.5494  3.0103 -0.4895
29466SOL     OW  375   1.311   4.987   3.446 -0.3323 -0.1269  0.4954
29466SOL    HW1  376   1.375   5.054   3.468  1.0385 -0.8611 -1.0847
29466SOL    HW2  377   1.326   4.917   3.510 -1.5566  0.8679  1.9498
29467SOL     OW  378   1.828   8.140   5.039  0.1879  0.0064  0.3397
29467SOL    HW1  379   1.820   8.108   4.949  1.9325 -0.6303  0.3807
29467SOL    HW2  380   1.818   8.062   5.094  1.5953 -0.0453  0.5633
29468SOL     OW  381   5.963   7.829   8.303  0.1711  0.0271  0.0309
29468SOL    HW1  382   6.006   7.856   8.221 -0.0662 -3.0826 -1.2594
29468SOL    HW2  383   5.889   7.775   8.274 -1.1409  0.5038  2.3173
29469SOL     OW  384   3.473   9.650   4.264 -0.2268 -0.1046 -0.5115
29469SOL    HW1  385   3.440   9.730   4.223  2.3130  1.7030  0.6882
29469SOL    HW2  386   3.463   9.666   4.358  0.5310 -1.1121 -0.2425
29470SOL     OW  387   0.057   6.803   7.899 -0.6154 -0.0910  1.0952
29470SOL    HW1  388   0.043   6.886   7.853  0.6592  1.2086  2.8974
29470SOL    HW2  389   0.117   6.754   7.842  1.0136  1.5086  1.3200
29471SOL     OW  390   4.736   7.121   6.498 -0.0663  0.3117  0.6400
29471SOL    HW1  391   4.705   7.086   6.582 -2.0821  1.0139  0.2398
29471SOL    HW2  392   4.688   7.071   6.433 -1.3849  2.2715  0.0141
29472SOL     OW  393   3.750   1.014   4.570 -0.6459 -0.3362  0.4069
29472SOL    HW1  394   3.717   1.047   4.654 -3.4939 -1.2665 -0.2248
29472SOL    HW2  395   3.732   0.920   4.574  0.1544 -0.5520 -0.8363
29473SOL     OW  396   4.941   7.811   6.391 -0.1020  0.7885  0.6259
29473SOL    HW1  397   4.992   7.730   6.379 -3.4866 -1.7140  1.5357
29473SOL    HW2  398   4.978   7.852   6.468 -1.0186 -2.4349  2.9958
29474SOL     OW  399   5.662   0.780   5.091  0.1636 -0.5577 -0.1589
29474SOL    HW1  400   5.633   0.721   5.021 -1.1922 -0.3168  0.1676
29474SOL    HW2  401   5.598   0.766   5.162  0.6650  0.2589  0.4690
29475SOL     OW  402   2.612   1.147   7.523 -0.2076  0.2709 -0.0843
29475SOL    HW1  403   2.638   1.238   7.508 -0.0807  0.0272 -1.4792
29475SOL    HW2  404   2.629   1.103   7.440  2.1577 -1.6263  1.2531
29476SOL     OW  405   4.653   2.177   7.520 -0.1055  0.1249  0.4202
29476SOL    HW1  406   4.733   2.207   7.562  1.6457 -0.4426 -2.2779
29476SOL    HW2  407   4.643   2.233   7.444 -2.5972  0.4916  0.9391
29477SOL     OW  408   9.582   5.534   8.187 -0.1910  0.0178  0.4854
29477SOL    HW1  409   9.539   5.570   8.110 -0.8102 -2.3984 -0.4063
29477SOL    HW2  410   9.671   5.513   8.159 -0.2134 -0.2614  0.6148
29478SOL     OW  411   6.646   6.943   0.599 -0.6660  0.3627  0.3741
29478SOL    HW1  412   6.660   6.892   0.678 -1.0947 -0.2504  0.0652
29478SOL    HW2  413   6.728   6.992   0.587 -0.9257  1.1417  1.6703
29479SOL     OW  414   2.727   4.215   7.240 -0.4802 -0.1953 -1.1360
29479SOL    HW1  415   2.716   4.299   7.194 -1.2921  0.1773 -0.2853
29479SOL    HW2  416   2.819   4.193   7.227  0.1797  1.6439 -0.0070
29480SOL     OW  417   8.833   1.959   0.160 -0.1445 -0.5447 -0.2029
29480SOL    HW1  418   8.882   2.011   0.096 -2.4767  1.0013 -0.8946
29480SOL    HW2  419   8.834   2.013   0.239  0.6530 -1.2971  0.3108
29481SOL     OW  420   4.392   2.018   9.188 -0.0194  0.4043  0.3391
29481SOL    HW1  421   4.460   2.080   9.216  0.0774  0.0812  0.8372
29481SOL    HW2  422   4.378   1.962   9.265 -1.4542  0.9955  0.5521
29482SOL     OW  423   6.986   3.968   6.856 -0.1614  0.4510 -0.8592
29482SOL    HW1  424   7.056   3.956   6.793  1.0393 -0.0469  0.5189
29482SOL    HW2  425   7.018   4.034   6.916 -1.1819  0.7394 -0.6020
29483SOL     OW  426  10.160   8.782   5.040  0.3888 -0.2853 -0.5896
29483SOL    HW1  427  10.228   8.833   4.997  1.1982 -0.0462  0.8858
29483SOL    HW2  428  10.154   8.820   5.128 -2.2395  0.2306 -0.8940
29484SOL     OW  429   2.021   2.862   7.373 -0.4358  0.2609 -0.0022
29484SOL    HW1  430   1.927   2.870   7.359 -0.4180  1.7161  0.5707
29484SOL    HW2  431   2.049   2.950   7.399  1.0757 -0.1613 -0.1286
29485SOL     OW  432   2.163   1.772   5.579 -0.7462 -0.0778 -0.0463
29485SOL    HW1  433   2.182   1.747   5.489  0.9574 -0.4640  0.3918
29485SOL    HW2  434   2.222   1.718   5.632 -1.0577  0.8146  1.2498
29486SOL     OW  435  10.121   9.076   1.901  0.1602  0.4094  0.0947
29486SOL    HW1  436  10.200   9.113   1.862  0.0626  0.1704 -0.3437
29486SOL    HW2  437  10.122   9.106   1.991  0.9796  0.0585  0.2142
29487SOL     OW  438   6.381   5.805   5.912 -0.2466 -0.3907  0.4184
29487SOL    HW1  439   6.354   5.823   5.822  1.4106  0.4673  0.0655
29487SOL    HW2  440   6.299   5.803   5.962 -1.0109  1.9598 -0.6295
29488SOL     OW  441   4.791   2.942   3.195 -0.7425  0.2235  0.0784
29488SOL    HW1  442   4.821   2.854   3.171  0.9309  0.8752 -0.3154
29488SOL    HW2  443   4.727   2.965   3.128 -1.6800 -0.9370  0.5511
29489SOL     OW  444   3.556   4.233   1.899 -0.2570  0.2464 -0.4233
29489SOL    HW1  445   3.558   4.188   1.814  0.7923  0.6911 -0.6601
29489SOL    HW2  446   3.571   4.325   1.877 -0.8092  0.4878  0.1842
29490SOL     OW  447   0.494   0.895   9.432  0.3792  0.2728 -0.3626
29490SOL    HW1  448   0.477   0.833   9.361 -0.0779  0.4519 -0.4171
29490SOL    HW2  449   0.457   0.853   9.510  0.2189  0.3993 -0.3688
29491SOL     OW  450   4.469   7.398   7.112 -0.5093 -0.8708 -0.0028
29491SOL    HW1  451   4.378   7.427   7.104 -0.0447  0.9329  0.7187
29491SOL    HW2  452   4.499   7.389   7.021 -0.6995  0.9851 -0.2875
29492SOL     OW  453   8.669   9.137   0.602  0.2472 -0.3554 -0.3662
29492SOL    HW1  454   8.588   9.176   0.637 -0.6748 -1.6693 -0.9434
29492SOL    HW2  455   8.735   9.205   0.614 -1.7867  2.5709 -3.8141
29493SOL     OW  456   7.020  10.121   2.535 -0.5100  0.3092  0.4895
29493SOL    HW1  457   7.018  10.213   2.510 -0.8724  0.9434  2.6658
29493SOL    HW2  458   7.079  10.080   2.472 -1.3396  1.7525 -1.3157
29494SOL     OW  459   9.887   7.516   2.225  0.6883 -0.1946 -0.2617
29494SOL    HW1  460   9.920   7.579   2.160  1.4341  1.8336  1.9398
29494SOL    HW2  461   9.960   7.502   2.285 -1.4590  2.5629  3.3895
29495SOL     OW  462   2.770   7.255   7.165  0.0587  0.0552  0.2391
29495SOL    HW1  463   2.801   7.206   7.088 -0.3211 -0.0003  0.1204
29495SOL    HW2  464   2.792   7.200   7.239 -0.2718 -0.2447  0.1129
29496SOL     OW  465   5.716   1.303   7.504  0.1759  0.6171 -0.5735
29496SOL    HW1  466   5.684   1.349   7.426 -0.2833 -0.5489 -1.0916
29496SOL    HW2  467   5.708   1.210   7.483 -0.0318  0.2714  0.8906
29497SOL     OW  468   2.272   0.254   8.170 -0.1516 -0.2709 -0.2153
29497SOL    HW1  469   2.290   0.273   8.262 -1.8283  1.2066 -0.1524
29497SOL    HW2  470   2.209   0.320   8.143 -0.5192 -1.3306 -2.1443
29498SOL     OW  471   8.909   5.937   1.096 -0.5381 -0.0123  0.2427
29498SOL    HW1  472   8.834   5.975   1.141 -0.2281  0.6188  0.2397
29498SOL    HW2  473   8.985   5.978   1.137 -0.2554  0.9456 -1.1649
29499SOL     OW  474   0.142   4.512   8.857  0.1927 -0.2182  0.0894
29499SOL    HW1  475   0.195   4.465   8.792 -0.6838  0.0632 -0.8534
29499SOL    HW2  476   0.054   4.510   8.821 -0.1793  0.5809  0.9348
29500SOL     OW  477   9.645   7.990   6.137 -0.6946 -0.2813 -0.2172
29500SOL    HW1  478   9.712   7.926   6.163 -1.6940 -1.6817 -0.9253
29500SOL    HW2  479   9.568   7.937   6.117 -1.2334  1.0430 -1.9392
29501SOL     OW  480   3.236   3.485   7.174 -0.1569 -0.9961  0.2314
29501SOL    HW1  481   3.208   3.393   7.177 -0.2840 -0.9865 -0.3710
29501SOL    HW2  482   3.292   3.490   7.096  0.0077 -0.6026  0.3714
29502SOL     OW  483   4.618   9.673   0.934  0.3826  0.4297  0.3082
29502SOL    HW1  484   4.628   9.722   0.852 -0.8243  0.3995  0.1250
29502SOL    HW2  485   4.608   9.582   0.907  3.5600 -0.1641  0.6888
29503SOL     OW  486   9.992   4.662   7.175 -0.3885 -0.2298  0.0717
29503SOL    HW1  487  10.063   4.713   7.136  0.4382 -0.2439  1.4971
29503SOL    HW2  488  10.006   4.670   7.270  0.4839 -4.0378  0.4181
29504SOL     OW  489   6.662   0.325   6.796  0.0280 -0.1003 -0.5580
29504SOL    HW1  490   6.636   0.367   6.878  0.0912 -0.9541 -0.0895
29504SOL    HW2  491   6.602   0.362   6.730 -0.4683  0.0893 -0.0104
29505SOL     OW  492   1.044   2.986   2.390  0.1977 -0.1348 -0.1830
29505SOL    HW1  493   1.097   2.970   2.312  0.0007  2.1983 -0.8895
29505SOL    HW2  494   1.071   3.073   2.420 -1.7578  0.2542  0.6401
29506SOL     OW  495   0.672   1.506   0.602 -0.1751 -0.3749 -0.5388
29506SOL    HW1  496   0.681   1.432   0.543  2.0381  0.5328 -1.4396
29506SOL    HW2  497   0.757   1.550   0.599 -1.6528  2.7377 -0.8110
29507SOL     OW  498   5.022   7.392   5.898  0.1925  0.1582  1.0780
29507SOL    HW1  499   5.065   7.350   5.823 -1.7551  1.7318 -1.0483
29507SOL    HW2  500   5.016   7.484   5.874 -0.8602  0.6656  3.0348
29508SOL     OW  501   6.729   0.028   0.970 -0.0834  0.5067 -0.6179
29508SOL    HW1  502   6.761  -0.047   1.019 -0.9995 -0.6237 -1.6810
29508SOL    HW2  503   6.787   0.033   0.894  0.6557  1.5832 -0.0143
29509SOL     OW  504   4.316   4.358   7.911 -0.0123 -0.2834  0.3767
29509SOL    HW1  505   4.345   4.267   7.898  0.5713 -0.3421  1.9319
29509SOL    HW2  506   4.394   4.410   7.895 -0.2567 -0.0725 -0.1482
29510SOL     OW  507   4.667   6.840   4.838 -0.4893  0.2446  0.0706
29510SOL    HW1  508   4.602   6.907   4.820  1.6263  1.8276 -2.4568
29510SOL    HW2  509   4.751   6.886   4.835  0.9057 -1.9434  1.6692
29511SOL     OW  510   4.968   2.138   4.213 -0.3559  0.0607 -0.0688
29511SOL    HW1  511   4.943   2.218   4.260  1.1085  0.0290  0.8107
29511SOL    HW2  512   4.954   2.068   4.276 -0.6093 -0.2637 -0.4804
29512SOL     OW  513   9.243   8.542   1.489  0.0720 -0.5054  0.0721
29512SOL    HW1  514   9.194   8.612   1.532 -0.8486 -1.3954  0.5211
29512SOL    HW2  515   9.276   8.489   1.561  1.6574  0.0141 -0.2269
29513SOL     OW  516   2.357   7.167   6.665 -0.1004  0.4241 -0.2679
29513SOL    HW1  517   2.315   7.083   6.687  0.3657  0.2611  0.0284
29513SOL    HW2  518   2.289   7.217   6.621 -0.5844  0.1342  0.1359
29514SOL     OW  519   5.234   6.418   2.251 -0.5262  0.1445 -0.3412
29514SOL    HW1  520   5.287   6.339   2.240 -2.4400 -1.1837 -0.6714
29514SOL    HW2  521   5.237   6.436   2.345 -0.1472 -0.4134 -0.2419
29515SOL     OW  522   2.226   8.640   7.675  0.3309 -0.3743 -0.1660
29515SOL    HW1  523   2.240   8.683   7.590  1.1661  0.4137  0.3422
29515SOL    HW2  524   2.133   8.652   7.693 -0.0419 -1.3178 -1.3593
29516SOL     OW  525   9.328   8.075   2.189  0.3198  0.6025 -0.1264
29516SOL    HW1  526   9.311   8.026   2.109 -0.1883 -0.1457  0.4246
29516SOL    HW2  527   9.418   8.107   2.179  0.3248  0.3602 -0.9105
29517SOL     OW  528  10.151   7.461   0.170  0.5152 -0.5358  0.0081
29517SOL    HW1  529  10.230   7.406   0.175 -0.3046 -1.7061  0.7520
29517SOL    HW2  530  10.172   7.538   0.223  1.2001 -0.7880  0.1177
29518SOL     OW  531   9.153   3.752   3.101  0.3774 -0.3369 -0.0520
29518SOL    HW1  532   9.141   3.832   3.050 -2.3764 -0.1920  0.6353
29518SOL    HW2  533   9.092   3.689   3.062  0.9282 -1.4125  0.7543
29519SOL     OW  534   1.943   2.196   2.492 -0.1360  0.3599 -0.6454
29519SOL    HW1  535   2.019   2.146   2.519 -0.4390  0.0862 -0.2837
29519SOL    HW2  536   1.959   2.217   2.400 -0.3110 -0.9895 -0.9972
29520SOL     OW  537   5.039   4.948   3.980 -0.3145 -0.3208 -0.6573
29520SOL    HW1  538   5.089   5.010   4.034 -0.7742 -0.2910 -0.2509
29520SOL    HW2  539   5.011   5.000   3.904  0.2053 -0.3199 -0.8512
29521SOL     OW  540   7.452   6.747   3.989 -0.2920  0.1759 -0.4236
29521SOL    HW1  541   7.398   6.752   4.068 -1.8429 -1.9681 -1.2502
29521SOL    HW2  542   7.541   6.767   4.019 -0.9813  0.3039  1.6655
29522SOL     OW  543   8.542   9.254   4.310  0.3851  0.1596  0.1769
29522SOL    HW1  544   8.593   9.313   4.365  0.5226 -1.0360  1.3746
29522SOL    HW2  545   8.516   9.308   4.235  3.6001  0.7984 -0.6357
29523SOL     OW  546   6.555   9.416   3.007 -0.4593 -0.3106  0.2311
29523SOL    HW1  547   6.617   9.403   3.079 -1.3831 -1.7344  0.7953
29523SOL    HW2  548   6.469   9.400   3.046 -1.1176  0.5747 -0.8000
29524SOL     OW  549   8.391   9.477   2.230  0.4486  0.2076 -0.0519
29524SOL    HW1  550   8.370   9.544   2.295  0.1757  0.0853 -0.0110
29524SOL    HW2  551   8.349   9.398   2.264  0.3574  0.1293 -0.3479
29525SOL     OW  552   2.033   2.261   5.337  0.0955  0.0650  0.1937
29525SOL    HW1  553   1.974   2.330   5.367 -0.8328 -1.3572  1.8467
29525SOL    HW2  554   2.007   2.184   5.387  2.5053 -0.9705 -0.0181
29526SOL     OW  555   5.626   0.419   5.303 -0.3164  0.3009  0.2466
29526SOL    HW1  556   5.685   0.434   5.230 -0.4334 -0.7506 -0.0891
29526SOL    HW2  557   5.660   0.339   5.345 -1.5888 -0.4328 -0.0666
29527SOL     OW  558   6.744   7.551   8.461  0.2203 -0.0630  0.1353
29527SOL    HW1  559   6.787   7.615   8.404  0.9256 -0.9489 -0.3530
29527SOL    HW2  560   6.684   7.504   8.403  0.1504 -0.2560  0.3641
29528SOL     OW  561   9.073   6.105   7.260 -0.0219 -0.0456  0.1409
29528SOL    HW1  562   9.112   6.175   7.208 -0.0485  0.4632  0.7937
29528SOL    HW2  563   9.147   6.050   7.286 -0.0051 -0.2776 -0.3966
29529SOL     OW  564   3.018   4.798   8.392  0.0311  0.6505 -0.1524
29529SOL    HW1  565   2.975   4.832   8.470  2.0198 -0.0180  1.3101
29529SOL    HW2  566   3.057   4.875   8.351 -0.8330  0.9726 -0.3985
29530SOL     OW  567   5.424   0.044  10.189  0.3932  0.5955 -0.0165
29530SOL    HW1  568   5.459  -0.043  10.170 -0.0373  0.3950  0.0955
29530SOL    HW2  569   5.450   0.097  10.114 -0.4260  0.0549 -0.7104
29531SOL     OW  570   5.856   8.707   4.736  0.0051  0.1340 -0.0772
29531SOL    HW1  571   5.906   8.672   4.663  1.8285  2.5700 -0.1211
29531SOL    HW2  572   5.766   8.714   4.703  0.4421 -0.4408 -1.4525
29532SOL     OW  573   6.797   1.972   1.195  0.0732  0.2788 -0.1403
29532SOL    HW1  574   6.787   1.885   1.157 -0.6205  0.5854 -0.6767
29532SOL    HW2  575   6.890   1.977   1.220 -0.6134 -2.0998  3.6146
29533SOL     OW  576   7.411   7.727   3.555  0.3680  0.5670 -0.4079
29533SOL    HW1  577   7.490   7.745   3.606  1.8771  0.1774 -2.4689
29533SOL    HW2  578   7.340   7.729   3.619  1.9749  1.3964  1.4497
29534SOL     OW  579   8.832   0.926   5.882 -0.0557  0.1759 -0.3597
29534SOL    HW1  580   8.870   0.993   5.940  2.3935 -0.6265 -0.8853
29534SOL    HW2  581   8.791   0.975   5.811  0.3668  1.1305  0.0378
29535SOL     OW  582   9.900   4.318   3.156 -0.4661  0.2747  0.4711
29535SOL    HW1  583   9.972   4.330   3.093  1.5141  0.6340  2.6272
29535SOL    HW2  584   9.867   4.230   3.139 -0.1099  0.4193 -1.1461
29536SOL     OW  585   5.564   2.812   7.972  0.0502  0.0739 -0.1485
29536SOL    HW1  586   5.560   2.717   7.957 -0.2186  0.1004 -0.2497
29536SOL    HW2  587   5.610   2.821   8.056  0.0079 -0.1510 -0.1002
29537SOL     OW  588   9.587   9.439   3.304 -0.6215  0.3423  0.1142
29537SOL    HW1  589   9.630   9.519   3.273  1.9424 -0.5865  0.9759
29537SOL    HW2  590   9.565   9.390   3.225  1.0194  0.3497 -0.3713
29538SOL     OW  591   2.553   1.815   6.628  0.2057  0.7201 -0.2229
29538SOL    HW1  592   2.586   1.880   6.691  0.5402 -0.1551  0.5225
29538SOL    HW2  593   2.469   1.852   6.599 -0.5778  0.5897  1.6899
29539SOL     OW  594   9.248   9.492   4.106  0.0929 -0.0641  0.1480
29539SOL    HW1  595   9.253   9.398   4.125 -1.2266 -0.2991 -0.5223
29539SOL    HW2  596   9.275   9.498   4.014 -0.0311  0.1831  0.1286
29540SOL     OW  597   9.506   0.212   5.809 -0.2816  0.1429  0.5946
29540SOL    HW1  598   9.535   0.147   5.874  1.1756  1.6606  1.5585
29540SOL    HW2  599   9.411   0.208   5.812 -0.2309 -1.1675  1.4488
29541SOL     OW  600   9.617  10.034   8.350 -0.3121 -0.0114 -0.2574
29541SOL    HW1  601   9.551  10.099   8.326  0.4037  0.7519 -0.2015
29541SOL    HW2  602   9.624   9.977   8.273 -0.2953  0.5241 -0.6584
29542SOL     OW  603   0.457   3.911   7.635 -0.5202  0.1882 -0.4150
29542SOL    HW1  604   0.370   3.876   7.622 -0.8683  0.6524  0.5556
29542SOL    HW2  605   0.501   3.900   7.550 -1.3550 -0.4746 -0.7696
29543SOL     OW  606   9.219   7.008   6.875 -0.1957 -0.1378  0.1108
29543SOL    HW1  607   9.130   7.014   6.840  0.2813  1.3164 -0.9225
29543SOL    HW2  608   9.206   6.985   6.968 -1.5566 -1.5330 -0.3736
29544SOL     OW  609   2.315   7.392   9.364 -0.3931  0.1424 -0.2300
29544SOL    HW1  610   2.263   7.327   9.411 -1.5984  1.0934 -0.1944
29544SOL    HW2  611   2.403   7.355   9.360 -0.5907 -0.5925  1.5363
29545SOL     OW  612   7.727   4.932   8.449  0.2909  0.6410 -0.2163
29545SOL    HW1  613   7.745   5.018   8.485  0.1155  0.1923  0.9965
29545SOL    HW2  614   7.633   4.920   8.461  0.5885 -0.4583  1.4270
29546SOL     OW  615   5.501   9.450   9.957  0.1832  0.1766  1.0098
29546SOL    HW1  616   5.427   9.511   9.956  0.0166 -0.0303  0.4894
29546SOL    HW2  617   5.521   9.435   9.865  1.8025  1.3335  1.1268
29547SOL     OW  618   7.234   4.206   2.628  0.6709 -0.2373 -0.2285
29547SOL    HW1  619   7.293   4.239   2.559 -0.6166  0.8229 -0.8598
29547SOL    HW2  620   7.222   4.281   2.687 -1.0248 -0.0140 -0.8083
29548SOL     OW  621   2.878   9.484   1.599 -0.2120  0.0951 -0.1046
29548SOL    HW1  622   2.840   9.546   1.661  0.1751 -0.3612  0.6018
29548SOL    HW2  623   2.817   9.410   1.598  1.2188 -1.2223  2.0185
29549SOL     OW  624   3.407   0.363   9.380  0.3613 -0.1009 -0.5808
29549SOL    HW1  625   3.313   0.371   9.369 -0.0846 -1.7887  1.4910
29549SOL    HW2  626   3.441   0.364   9.290 -1.5602  0.7809 -1.3626
29550SOL     OW  627   9.797   4.044   3.761 -0.1396 -0.0154 -0.0278
29550SOL    HW1  628   9.825   4.099   3.834 -1.5516  0.2425  0.3583
29550SOL    HW2  629   9.800   3.955   3.796  2.2637 -0.2639 -0.6910
29551SOL     OW  630   8.301  10.110   7.944 -0.3292 -0.1691  0.5662
29551SOL    HW1  631   8.212  10.110   7.908 -0.5120 -0.2922  1.0136
29551SOL    HW2  632   8.289  10.128   8.037  0.1408  0.1302  0.5693
29552SOL     OW  633   6.176   9.923   0.010  0.4201  0.3344 -0.5072
29552SOL    HW1  634   6.196   9.899   0.100  0.1758  1.0767 -0.2423
29552SOL    HW2  635   6.205   9.848  -0.043  0.2207 -0.2625  0.2183
29553SOL     OW  636   4.593   2.158   9.786  0.4849 -0.5312  0.1392
29553SOL    HW1  637   4.613   2.160   9.692 -0.1078 -0.9277 -0.0032
29553SOL    HW2  638   4.643   2.085   9.820 -0.3620 -1.2525 -0.1334
29554SOL     OW  639   2.518   3.682   1.330 -0.5931  0.1632 -0.0298
29554SOL    HW1  640   2.591   3.625   1.305 -0.6566  0.6308 -1.3112
29554SOL    HW2  641   2.531   3.762   1.279 -0.8212  1.1057  1.3292
29555SOL     OW  642   5.597   7.564   1.325  0.1485 -0.1598  0.4530
29555SOL    HW1  643   5.562   7.574   1.236  0.5055  0.3268  0.3621
29555SOL    HW2  644   5.546   7.492   1.363 -0.2666 -0.1180 -0.0139
29556SOL     OW  645  10.127   8.887   6.841 -0.1668  0.0589  0.1002
29556SOL    HW1  646  10.135   8.919   6.931 -1.8240 -2.2381  1.1605
29556SOL    HW2  647  10.198   8.929   6.794  0.5281  1.6204  2.3996
29557SOL     OW  648  10.040  10.076   9.927  0.3768 -0.3160  0.3722
29557SOL    HW1  649   9.969  10.020   9.895  1.6840 -1.0274 -1.4877
29557SOL    HW2  650  10.034  10.156   9.873  0.6649 -0.1706  0.5497
29558SOL     OW  651   3.499   3.708   9.601 -0.5135 -0.2319 -0.1715
29558SOL    HW1  652   3.535   3.752   9.678 -1.0356 -0.8295  0.4309
29558SOL    HW2  653   3.555   3.631   9.589  1.0046  1.0438 -1.8103
29559SOL     OW  654   3.933   8.194   6.665 -0.0259  0.2238  0.1592
29559SOL    HW1  655   4.019   8.189   6.706  0.8213  0.0749 -1.5274
29559SOL    HW2  656   3.876   8.144   6.723  0.8984  0.7469  1.5692
29560SOL     OW  657   8.076   6.772   0.294 -0.0130 -0.1902 -0.0585
29560SOL    HW1  658   8.066   6.814   0.209  2.1662  0.2088 -0.1826
29560SOL    HW2  659   7.993   6.787   0.339 -0.3393  1.6680 -1.2099
29561SOL     OW  660   2.107   3.762   5.939 -0.3051 -0.7134  0.4725
29561SOL    HW1  661   2.143   3.802   6.018  1.7085 -0.1697 -0.6221
29561SOL    HW2  662   2.156   3.680   5.929 -1.6228 -1.5462  0.5798
29562SOL     OW  663   8.984   5.668   9.623 -0.0109  0.0599 -0.2618
29562SOL    HW1  664   9.027   5.598   9.672 -0.9980 -0.3768  0.0114
29562SOL    HW2  665   9.052   5.734   9.610  0.3127  0.1299  1.5638
29563SOL     OW  666   9.705   7.670   6.499  0.1103 -0.3201 -0.1203
29563SOL    HW1  667   9.641   7.722   6.547  0.3433  1.1075 -1.2623
29563SOL    HW2  668   9.717   7.591   6.551 -1.4981  0.0323  0.8448
29564SOL     OW  669   7.844   6.352   4.488  0.3341 -0.3288  0.3944
29564SOL    HW1  670   7.909   6.422   4.480  0.4728 -0.6186 -1.4350
29564SOL    HW2  671   7.760   6.396   4.469  0.2099 -0.3251  0.9393
29565SOL     OW  672   0.167   0.047  10.182  0.0667  0.0801 -0.0687
29565SOL    HW1  673   0.178   0.124  10.238  0.5860  0.1283 -0.2287
29565SOL    HW2  674   0.251   0.001  10.188 -0.0276 -0.1444 -0.4596
29566SOL     OW  675   4.285   6.064   8.831 -0.5475 -0.0683  0.5321
29566SOL    HW1  676   4.210   6.004   8.836 -0.3596 -0.4574 -0.8494
29566SOL    HW2  677   4.325   6.045   8.746  0.8369  0.4812  1.0380
29567SOL     OW  678   6.050   9.249   0.834 -0.3216  0.0939  0.0567
29567SOL    HW1  679   6.082   9.334   0.863 -0.6508  0.3457 -0.3120
29567SOL    HW2  680   6.060   9.251   0.739 -1.9423  0.3821 -0.1273
29568SOL     OW  681   1.207   3.875   7.652  0.0786 -0.4806 -0.0555
29568SOL    HW1  682   1.193   3.924   7.733 -1.1246 -1.5990  0.4494
29568SOL    HW2  683   1.135   3.812   7.650  0.2723 -0.6750 -1.8494
29569SOL     OW  684   5.818   0.660   1.162 -0.0184  0.4837 -0.0956
29569SOL    HW1  685   5.840   0.590   1.223 -0.7643  1.2675  1.1195
29569SOL    HW2  686   5.898   0.676   1.113  0.7720  0.2176  1.0854
29570SOL     OW  687   7.647   4.286   6.125  0.1453 -0.0817 -0.5385
29570SOL    HW1  688   7.575   4.341   6.095 -0.0261 -0.3243 -0.5722
29570SOL    HW2  689   7.672   4.235   6.048  0.2461 -0.1140 -0.4843
29571SOL     OW  690   5.947   6.946   5.056 -0.7507  0.0133  0.4747
29571SOL    HW1  691   5.983   6.888   5.124  1.0167 -0.4636 -0.7886
29571SOL    HW2  692   5.906   7.017   5.104  2.5179  0.9767  2.1320
29572SOL     OW  693   4.996   6.337   9.181  0.3268 -0.3343 -0.1845
29572SOL    HW1  694   4.999   6.429   9.206  1.5856 -0.3907 -0.0660
29572SOL    HW2  695   4.974   6.338   9.088 -1.8963 -0.0295  0.2915
29573SOL     OW  696   9.527   0.729   2.351 -0.2048  0.2100  0.1639
29573SOL    HW1  697   9.537   0.778   2.269 -0.5071  0.0103  0.0055
29573SOL    HW2  698   9.511   0.639   2.323 -0.5182  0.1803  0.4376
29574SOL     OW  699   0.195   7.449   1.777  0.1223 -0.3043 -0.7224
29574SOL    HW1  700   0.258   7.407   1.719  0.7650  0.5302 -0.6533
29574SOL    HW2  701   0.247   7.478   1.852 -0.3788  0.1944 -0.5589
29575SOL     OW  702   1.446   9.380   3.243 -0.3766 -0.6929  0.0665
29575SOL    HW1  703   1.508   9.441   3.281  0.4247 -2.6207  2.0664
29575SOL    HW2  704   1.386   9.435   3.192  2.0016  1.3852 -0.6677
29576SOL     OW  705   9.873   4.068   4.523  0.1070  0.1651  0.6068
29576SOL    HW1  706   9.922   4.094   4.445  0.0752  0.3668  0.6512
29576SOL    HW2  707   9.829   3.987   4.499 -0.8205  0.8125  0.0296
29577SOL     OW  708   8.955   8.900   2.719 -0.0620  0.3905 -0.0803
29577SOL    HW1  709   9.029   8.841   2.704  0.6016  1.7046 -2.4787
29577SOL    HW2  710   8.994   8.980   2.754 -0.5337  0.6217 -0.0722
29578SOL     OW  711   1.260   2.592   3.897  0.3078  0.1883  0.0016
29578SOL    HW1  712   1.288   2.682   3.914  1.4415  0.2493 -1.8963
29578SOL    HW2  713   1.222   2.596   3.809 -1.9847 -0.7245  0.8837
29579SOL     OW  714   4.900   2.352   7.563 -0.2227 -0.3823  0.7327
29579SOL    HW1  715   4.995   2.362   7.570 -0.1166  0.1468 -0.9928
29579SOL    HW2  716   4.870   2.438   7.533 -1.0028 -1.1404 -0.7103
29580SOL     OW  717   2.593   0.436   6.199  0.1623 -0.3044 -0.0833
29580SOL    HW1  718   2.499   0.423   6.212 -0.0327 -0.2676 -1.2987
29580SOL    HW2  719   2.605   0.431   6.104  1.4852 -0.9109  0.0881
29581SOL     OW  720   5.147   3.709   1.122 -0.0530  0.1487  0.5126
29581SOL    HW1  721   5.222   3.768   1.113 -0.3009  0.4061  0.0764
29581SOL    HW2  722   5.090   3.753   1.186  1.0221 -0.9634  2.3454
29582SOL     OW  723   2.131   4.090   9.148  0.7277 -0.3322 -0.2589
29582SOL    HW1  724   2.057   4.069   9.205  1.0538  1.4777  0.9188
29582SOL    HW2  725   2.177   4.007   9.136 -0.7612 -1.2337  0.0210
29583SOL     OW  726  10.264   2.268   9.161 -0.3410  0.0348  0.4250
29583SOL    HW1  727  10.344   2.266   9.109  1.4064 -1.0538  2.9590
29583SOL    HW2  728  10.214   2.192   9.131  1.3413 -1.4905  1.2585
29584SOL     OW  729   4.141   6.656   9.884  0.4131  0.7760  0.6419
29584SOL    HW1  730   4.177   6.628   9.968  0.6410 -2.1990 -0.3286
29584SOL    HW2  731   4.217   6.690   9.836  0.7633  0.1401  0.7413
29585SOL     OW  732   4.767   5.478   0.937 -0.0492 -0.2198  0.7866
29585SOL    HW1  733   4.733   5.389   0.952 -0.0453 -0.3376  0.0989
29585SOL    HW2  734   4.727   5.506   0.855 -1.3481  1.0664  1.7955
29586SOL     OW  735   5.313   1.155   9.183  0.0621 -0.9890 -0.4035
29586SOL    HW1  736   5.286   1.111   9.263  1.3993  2.9978  2.6201
29586SOL    HW2  737   5.238   1.209   9.158  0.2176 -0.9622 -0.8292
29587SOL     OW  738   9.170   1.042   4.852  0.6393  0.8135  0.0941
29587SOL    HW1  739   9.258   1.006   4.846  0.4337  0.1654  0.8835
29587SOL    HW2  740   9.175   1.111   4.918  1.0489  2.3655 -1.4603
29588SOL     OW  741   0.815   8.829   4.728  0.6099 -0.7011  0.1333
29588SOL    HW1  742   0.787   8.826   4.819 -1.0818  1.1977 -0.2383
29588SOL    HW2  743   0.909   8.847   4.732  0.2526  1.1172  1.5267
29589SOL     OW  744   1.903   8.471   2.732 -0.2551  0.3864  0.2924
29589SOL    HW1  745   1.860   8.450   2.815 -1.6818  0.8767 -0.2730
29589SOL    HW2  746   1.980   8.415   2.729  0.0147  0.6198  2.1028
29590SOL     OW  747   2.795   3.478   8.430  0.2005 -0.0356  0.2074
29590SOL    HW1  748   2.807   3.529   8.510  0.7327 -0.4998  0.4291
29590SOL    HW2  749   2.711   3.434   8.441 -0.2652  0.7840  0.0156
29591SOL     OW  750   9.913   8.325   7.051  0.0084 -0.0418  0.0453
29591SOL    HW1  751   9.842   8.287   6.998  1.2720 -1.8626 -0.4377
29591SOL    HW2  752   9.990   8.272   7.030  1.0410  0.5085  2.1532
29592SOL     OW  753   1.925   9.070   6.072  0.5696  0.5572  0.1431
29592SOL    HW1  754   1.956   9.089   6.161  1.1399 -0.9093  0.2746
29592SOL    HW2  755   1.857   9.004   6.083  0.5122  0.4970 -0.5001
29593SOL     OW  756   5.847   7.005   8.540  0.4190 -0.0138  0.2712
29593SOL    HW1  757   5.809   6.925   8.504 -2.1111  0.9026  0.6738
29593SOL    HW2  758   5.794   7.076   8.503  2.0705  1.4455  0.5391
29594SOL     OW  759  10.214   2.883   1.247  0.3838  0.2337 -0.4368
29594SOL    HW1  760  10.153   2.859   1.177  0.0244  0.7563 -0.3103
29594SOL    HW2  761  10.292   2.830   1.230  0.5949  0.9084 -1.6806
29595SOL     OW  762   0.826   6.045   8.670 -0.1472 -0.4430 -0.3999
29595SOL    HW1  763   0.859   6.033   8.759  0.9973  1.2137 -0.5489
29595SOL    HW2  764   0.825   6.140   8.658 -1.8542 -0.5707 -1.6097
29596SOL     OW  765  10.186   3.938   6.689 -0.4940 -0.4961  0.8245
29596SOL    HW1  766  10.201   3.973   6.601  0.3640  3.2467  2.2239
29596SOL    HW2  767  10.109   3.883   6.681  0.5854 -1.7691 -2.5372
29597SOL     OW  768  10.373  10.132   5.092  0.2329 -0.5552  0.2419
29597SOL    HW1  769  10.301  10.120   5.154  1.2500 -2.1796  1.2146
29597SOL    HW2  770  10.394  10.043   5.064  1.9281 -0.1353  0.0866
29598SOL     OW  771   9.322   2.874   6.777  0.4739  0.2717  0.3136
29598SOL    HW1  772   9.272   2.929   6.716 -1.7048 -2.8870 -1.0320
29598SOL    HW2  773   9.412   2.877   6.744 -0.2358  0.4431 -1.7528
29599SOL     OW  774   1.141   1.767   9.998  0.2061  0.9280 -0.5717
29599SOL    HW1  775   1.052   1.802  10.001 -0.4001 -0.2791 -2.3353
29599SOL    HW2  776   1.190   1.829   9.944  0.1148  0.9818 -0.5922
29600SOL     OW  777   7.512  10.163   7.364  0.4694  0.0366 -0.1270
29600SOL    HW1  778   7.536  10.106   7.291 -0.6229 -2.1864  1.1584
29600SOL    HW2  779   7.422  10.190   7.345  0.8547  1.0712 -0.5437
29601SOL     OW  780   4.912   1.561   5.063 -0.0699  0.3220  0.0230
29601SOL    HW1  781   4.954   1.538   5.146 -1.6803 -4.8578 -0.2450
29601SOL    HW2  782   4.821   1.580   5.087  0.1753  2.2215 -0.3506
29602SOL     OW  783   4.953   6.317   8.112 -0.6344 -0.2012  0.2774
29602SOL    HW1  784   4.905   6.379   8.166 -2.1509 -1.5699  0.5862
29602SOL    HW2  785   4.898   6.303   8.035  1.2885  1.3803 -1.5047
29603SOL     OW  786   7.263   7.744   5.842 -0.3424  0.0754 -0.0731
29603SOL    HW1  787   7.351   7.739   5.878 -0.7451  0.9298  1.1027
29603SOL    HW2  788   7.276   7.766   5.749  0.6841 -0.6101 -0.1106
29604SOL     OW  789   4.542   5.871   2.480  0.1509 -0.6099 -0.0532
29604SOL    HW1  790   4.469   5.866   2.417  0.3530  0.9316 -0.4488
29604SOL    HW2  791   4.615   5.827   2.435  0.1112 -0.0908 -0.6431
29605SOL     OW  792   9.859   7.771   5.675  0.1596 -0.5418  0.3418
29605SOL    HW1  793   9.930   7.711   5.697  0.7627 -0.2481 -0.7453
29605SOL    HW2  794   9.814   7.728   5.602  1.1876  0.7558 -1.0929
29606SOL     OW  795   2.760   2.868   6.642 -0.2937  0.5074 -0.2193
29606SOL    HW1  796   2.678   2.844   6.597  0.2432 -0.9200 -0.4830
29606SOL    HW2  797   2.810   2.916   6.576 -0.7910  1.1204 -0.1550
29607SOL     OW  798   0.072   2.735   8.861  0.4881  0.7148 -0.5305
29607SOL    HW1  799   0.027   2.723   8.945  0.9329  1.2315 -0.2038
29607SOL    HW2  800   0.135   2.806   8.878  0.2589  1.1482 -1.4313
29608SOL     OW  801   8.170   7.049   9.001  0.1112  0.3526  0.4469
29608SOL    HW1  802   8.129   7.130   9.032  0.5433  1.1475 -0.9571
29608SOL    HW2  803   8.178   7.061   8.906  0.9978 -0.9693  0.3273
29609SOL     OW  804   4.902   7.110   2.228  0.7117  0.6562 -0.0007
29609SOL    HW1  805   4.869   7.180   2.285 -2.1578 -1.0619  0.6779
29609SOL    HW2  806   4.835   7.102   2.160  0.7023 -1.7029  0.2257
29610SOL     OW  807   3.906   4.523   8.434 -0.3513 -0.2195 -0.0143
29610SOL    HW1  808   3.933   4.436   8.462 -0.5314  0.5003  2.7103
29610SOL    HW2  809   3.946   4.534   8.348  2.5869 -1.6797  1.0310
29611SOL     OW  810   4.006   0.950   5.668 -0.3305  0.1721 -0.4318
29611SOL    HW1  811   4.070   0.983   5.605 -0.7883  0.8436 -0.5468
29611SOL    HW2  812   3.993   0.859   5.643  1.9167 -0.5375  0.6683
29612SOL     OW  813   0.961  10.294   8.538  0.0176 -0.2235  0.0889
29612SOL    HW1  814   1.053  10.267   8.529 -0.3014 -1.2720 -0.1106
29612SOL    HW2  815   0.942  10.337   8.454  0.2905 -0.1131  0.0804
29613SOL     OW  816   9.580   0.945   2.914 -0.4087  0.1985 -0.3098
29613SOL    HW1  817   9.667   0.967   2.947 -0.5046  0.1645 -0.0300
29613SOL    HW2  818   9.583   0.851   2.896 -0.6609  0.0138  0.5628
29614SOL     OW  819   0.072   7.306   8.397  0.4166 -0.4284 -0.0714
29614SOL    HW1  820   0.144   7.295   8.335 -0.7894 -0.8053 -1.4756
29614SOL    HW2  821   0.081   7.396   8.428  1.6481 -0.5661 -0.0087
29615SOL     OW  822   0.818   5.985   6.406  0.1855  0.2639 -0.3160
29615SOL    HW1  823   0.758   6.059   6.410 -0.9488 -0.5416 -1.4773
29615SOL    HW2  824   0.769   5.917   6.360  0.3555 -1.9776  2.5204
29616SOL     OW  825   4.293   2.457   4.807  0.3200 -0.8299  0.6108
29616SOL    HW1  826   4.379   2.415   4.799 -0.1773 -1.7414 -0.3755
29616SOL    HW2  827   4.234   2.398   4.760 -0.7970 -0.0666  1.0101
29617SOL     OW  828   0.287   7.404   6.397 -0.5842  0.3944 -0.1510
29617SOL    HW1  829   0.247   7.483   6.432  0.4297  0.8490  0.0163
29617SOL    HW2  830   0.379   7.410   6.422 -0.4166 -0.6633 -0.4495
29618SOL     OW  831   1.639   3.023   9.422 -0.3244  0.1547 -0.2611
29618SOL    HW1  832   1.586   3.101   9.438  0.4706  0.7020 -0.2503
29618SOL    HW2  833   1.600   2.983   9.345 -0.7592  0.5471 -0.2501
29619SOL     OW  834   1.992   3.729  10.312  0.0999  0.4067 -0.1778
29619SOL    HW1  835   2.024   3.665  10.248 -0.6890 -2.1555  1.8339
29619SOL    HW2  836   1.897   3.730  10.299 -0.0776 -0.2066  0.9889
29620SOL     OW  837   5.459   0.506   6.801  0.1795  0.1290 -0.0551
29620SOL    HW1  838   5.529   0.442   6.793 -0.8526 -1.1806  1.0192
29620SOL    HW2  839   5.445   0.537   6.712  0.7524 -1.0786 -0.5844
29621SOL     OW  840   1.350   1.185   1.278 -0.5825  0.0371  0.1435
29621SOL    HW1  841   1.257   1.171   1.260 -0.8666  2.5868 -0.7368
29621SOL    HW2  842   1.352   1.252   1.346  0.6259 -0.0407  0.2045
29622SOL     OW  843   6.061   2.979   4.780  0.2359 -0.1631  0.2212
29622SOL    HW1  844   6.007   3.021   4.847 -0.1502 -1.4025  0.7343
29622SOL    HW2  845   6.081   2.893   4.817  1.5859 -0.1744 -0.4781
29623SOL     OW  846   1.383   2.901   0.223  0.4110  0.3273  0.0338
29623SOL    HW1  847   1.417   2.990   0.218 -0.2330  0.5711 -0.1312
29623SOL    HW2  848   1.402   2.863   0.137 -0.2773  0.6706 -0.2793
29624SOL     OW  849   5.264   5.481   9.858 -0.0632  0.1788  0.0972
29624SOL    HW1  850   5.293   5.450   9.772  0.7537  2.6643 -0.6262
29624SOL    HW2  851   5.187   5.427   9.878  0.3868 -1.2197 -1.6703
29625SOL     OW  852   2.867   8.069   8.133 -0.1621  0.0714 -0.6123
29625SOL    HW1  853   2.927   8.019   8.189  1.2547  1.7682 -0.5064
29625SOL    HW2  854   2.802   8.103   8.194  0.4103  0.5236 -0.2313
29626SOL     OW  855   0.894   9.344   1.368 -0.1066 -0.4401  0.5676
29626SOL    HW1  856   0.901   9.251   1.391 -0.2429 -0.6354 -0.1425
29626SOL    HW2  857   0.884   9.344   1.273 -0.9888  0.2525  0.6470
29627SOL     OW  858   4.093   3.438   1.889 -0.5841  0.4927 -0.1458
29627SOL    HW1  859   4.000   3.448   1.869 -0.3981 -1.9685 -2.9765
29627SOL    HW2  860   4.098   3.359   1.942 -0.0643  0.0941 -0.7790
29628SOL     OW  861   5.376   4.939   2.578 -0.1733  0.9573 -0.5522
29628SOL    HW1  862   5.291   4.980   2.562  0.5981  2.3129 -1.3650
29628SOL    HW2  863   5.435   4.981   2.515  1.8337  2.5010  2.1310
29629SOL     OW  864  10.391   4.750   2.721 -0.1045 -0.2645  0.0912
29629SOL    HW1  865  10.348   4.836   2.717  0.2993 -0.0920 -2.0702
29629SOL    HW2  866  10.478   4.765   2.684 -0.4649 -1.7976 -1.5545
29630SOL     OW  867   4.237   7.911   3.933  0.2287 -0.0028  0.3765
29630SOL    HW1  868   4.222   7.881   4.023 -2.1103  0.7896  0.3226
29630SOL    HW2  869   4.220   7.833   3.879 -0.6483  0.0849  0.5140
29631SOL     OW  870   9.791   1.610   0.736 -0.3370  0.2885  0.4148
29631SOL    HW1  871   9.707   1.583   0.698 -0.5530 -1.0933  1.7662
29631SOL    HW2  872   9.770   1.632   0.826  0.5886  0.9709  0.4747
29632SOL     OW  873   8.175   7.240   9.719 -0.0583 -0.0463 -0.1153
29632SOL    HW1  874   8.121   7.300   9.771 -0.4101  0.2174 -0.7681
29632SOL    HW2  875   8.154   7.153   9.754 -1.0139  0.0414 -0.4361
29633SOL     OW  876   0.929   7.457   9.076  0.8434  0.4294  0.1504
29633SOL    HW1  877   0.938   7.536   9.128 -1.2999  0.8837 -0.0617
29633SOL    HW2  878   0.841   7.425   9.095 -0.2854  0.8746 -3.4551
29634SOL     OW  879   4.066   8.660  10.085  0.3336  0.5791 -0.3387
29634SOL    HW1  880   3.997   8.595  10.074 -0.0679  1.1007 -0.9504
29634SOL    HW2  881   4.136   8.630  10.027 -0.0223  0.9193 -0.9518
29635SOL     OW  882  10.150   3.725   5.722 -0.0469  0.3653  0.1438
29635SOL    HW1  883  10.230   3.765   5.757 -0.6051  2.6745 -1.0630
29635SOL    HW2  884  10.177   3.686   5.639  0.1302 -0.4024  0.5389
29636SOL     OW  885   8.555   4.953   9.343  0.0746  0.0870  0.1322
29636SOL    HW1  886   8.646   4.971   9.365  0.0564 -1.3784  1.6344
29636SOL    HW2  887   8.520   4.909   9.420 -1.3976 -1.0139 -1.0857
29637SOL     OW  888   4.506   6.195   6.873  0.4758  0.2395  0.2297
29637SOL    HW1  889   4.422   6.232   6.849  0.2056 -0.1811  0.5166
29637SOL    HW2  890   4.527   6.233   6.958  0.5991  0.3758  0.1396
29638SOL     OW  891   4.165   2.125   2.390  0.0401  0.4211 -0.4937
29638SOL    HW1  892   4.220   2.053   2.420 -0.9883 -2.1635 -4.0627
29638SOL    HW2  893   4.079   2.108   2.428  0.2121  0.8767  0.1190
29639SOL     OW  894   0.285   0.370   3.069 -0.4854 -0.1826  0.0638
29639SOL    HW1  895   0.213   0.425   3.038  0.3922  0.1617 -1.4984
29639SOL    HW2  896   0.278   0.290   3.017  0.2907 -0.1049 -0.1807
29640SOL     OW  897   2.475   7.088   1.040  0.1286  0.1017 -0.0250
29640SOL    HW1  898   2.501   7.011   0.989 -0.1681  0.2645 -0.4219
29640SOL    HW2  899   2.556   7.116   1.084  0.1219 -0.7632  0.5610
29641SOL     OW  900   3.010   0.992   7.785 -0.5383 -0.2296  0.2173
29641SOL    HW1  901   2.963   0.930   7.730 -0.0642  1.0513 -1.7266
29641SOL    HW2  902   3.096   0.953   7.798 -0.7517 -0.6722  0.2990
29642SOL     OW  903   5.326   8.857   6.949 -0.1960 -0.1500 -0.3643
29642SOL    HW1  904   5.406   8.857   6.896 -0.8155 -2.9762 -1.4781
29642SOL    HW2  905   5.255   8.871   6.886 -0.8671 -2.5530 -0.2415
29643SOL     OW  906   7.936   3.435   9.145  0.2761  0.3968  0.4745
29643SOL    HW1  907   7.859   3.433   9.089  0.7363  0.1296 -0.1588
29643SOL    HW2  908   7.967   3.525   9.141 -1.2312  1.0579  2.4535
29644SOL     OW  909   3.788   4.192   8.745  0.7106 -0.3366  0.2275
29644SOL    HW1  910   3.745   4.130   8.804  1.0977 -0.4126  0.4282
29644SOL    HW2  911   3.744   4.179   8.661 -0.7146  0.6515  0.7789
29645SOL     OW  912   4.608  10.093   6.417 -0.0326  0.5670  0.2760
29645SOL    HW1  913   4.694  10.135   6.425 -0.0390  0.2471  2.9873
29645SOL    HW2  914   4.567  10.137   6.343  1.4371  2.6681  0.6117
29646SOL     OW  915  10.214   1.449   0.904  0.8361  0.1664  0.1913
29646SOL    HW1  916  10.276   1.447   0.977  0.2108  0.2432  0.7238
29646SOL    HW2  917  10.248   1.517   0.846  2.2041 -0.9230 -0.3714
29647SOL     OW  918   5.097   9.903  10.345 -0.0008  0.0981  0.5746
29647SOL    HW1  919   5.088   9.891  10.440  0.2343 -2.4845  0.3645
29647SOL    HW2  920   5.187   9.933  10.333  0.4841 -1.0205  1.1413
29648SOL     OW  921   9.398   3.466   9.709 -0.0092  0.4722 -0.7756
29648SOL    HW1  922   9.336   3.461   9.782  0.8501  1.1775  0.0246
29648SOL    HW2  923   9.483   3.444   9.748  0.1025 -1.7784 -2.1057
29649SOL     OW  924   1.862   4.902   7.904 -0.2867  0.4323 -0.5820
29649SOL    HW1  925   1.956   4.889   7.886 -0.0271  2.3554 -0.8050
29649SOL    HW2  926   1.851   4.874   7.995  0.3832 -0.3224 -0.7214
29650SOL     OW  927   6.330   7.001   8.737 -0.3263 -0.4776 -0.0489
29650SOL    HW1  928   6.353   7.062   8.667 -0.4274 -1.4385 -0.9393
29650SOL    HW2  929   6.299   6.923   8.692  1.0251 -1.6941  1.0305
29651SOL     OW  930   6.544   8.142   0.661  0.5351 -0.0134  0.6623
29651SOL    HW1  931   6.534   8.049   0.681  1.6664 -0.5997 -1.2515
29651SOL    HW2  932   6.639   8.156   0.657  0.3881  0.7278 -1.0692
29652SOL     OW  933   4.150   0.158   0.081 -0.5159  0.1594 -0.0485
29652SOL    HW1  934   4.091   0.101   0.130  0.4620 -1.0259 -0.1984
29652SOL    HW2  935   4.118   0.154  -0.009 -0.3151 -0.3418 -0.0986
29653SOL     OW  936   6.669   4.683   0.220 -0.0330 -0.2379 -0.1411
29653SOL    HW1  937   6.752   4.636   0.235 -0.5282 -1.3506 -0.7617
29653SOL    HW2  938   6.630   4.691   0.307 -0.6349 -2.3623 -0.1587
29654SOL     OW  939   9.034   7.454   0.755 -0.0492  0.3426 -0.3180
29654SOL    HW1  940   9.097   7.383   0.751  0.1777  0.3202  2.1652
29654SOL    HW2  941   9.084   7.532   0.732  0.4234  0.0646 -0.2512
29655SOL     OW  942   4.066   3.753   5.400 -0.6186 -0.3351  0.2485
29655SOL    HW1  943   4.041   3.827   5.456 -0.0352  0.6968 -0.8314
29655SOL    HW2  944   4.088   3.683   5.462 -1.9534  0.1011  1.2824
29656SOL     OW  945   1.056   6.715   0.717  0.4456  0.0186 -0.1453
29656SOL    HW1  946   1.091   6.652   0.779 -1.0075  1.3248  2.1409
29656SOL    HW2  947   0.968   6.683   0.696  0.5198  0.1519 -0.6825
29657SOL     OW  948   0.441   4.457   6.416 -0.8435 -0.6300 -0.0221
29657SOL    HW1  949   0.451   4.363   6.430 -0.4639 -0.2488  2.7270
29657SOL    HW2  950   0.454   4.496   6.502  1.4153  2.1693 -1.4661
29658SOL     OW  951   4.773  10.337   2.636  0.0275  0.2720  0.0571
29658SOL    HW1  952   4.790  10.431   2.628 -0.9996  0.2902 -2.9831
29658SOL    HW2  953   4.820  10.297   2.563 -0.0505 -1.5270  0.9375
29659SOL     OW  954   3.280   1.936   4.278  0.0453  0.1420  0.2572
29659SOL    HW1  955   3.251   1.897   4.360 -1.7516 -1.0311 -0.8754
29659SOL    HW2  956   3.224   2.013   4.266  0.3451  0.3474  0.1600
29660SOL     OW  957   2.660  10.145   2.213  0.1722 -0.3998  0.2964
29660SOL    HW1  958   2.740  10.170   2.259  0.9916  1.2637 -1.8552
29660SOL    HW2  959   2.689  10.083   2.146 -0.6194 -1.0448  0.5347
29661SOL     OW  960   6.213   6.264   4.687  0.1797 -0.0471 -0.2415
29661SOL    HW1  961   6.185   6.190   4.634 -0.3761 -1.6885  2.1918
29661SOL    HW2  962   6.285   6.230   4.739  0.2796  1.3019  0.5464
29662SOL     OW  963   6.728   4.754   7.677 -0.2633  0.4309  0.0767
29662SOL    HW1  964   6.690   4.666   7.674  1.8471 -0.5254 -2.2061
29662SOL    HW2  965   6.772   4.758   7.762 -0.0275 -0.8961  0.0384
29663SOL     OW  966   4.081   5.675   7.524  0.0018 -0.0420  0.1123
29663SOL    HW1  967   4.082   5.738   7.595  0.6431  0.7958 -0.6099
29663SOL    HW2  968   4.173   5.663   7.500 -0.1062 -1.2244  0.1936
29664SOL     OW  969   1.960   2.675   4.018 -0.3874  0.0401  0.3506
29664SOL    HW1  970   1.886   2.615   4.011 -0.0456 -0.3224 -0.2346
29664SOL    HW2  971   1.926   2.748   4.069 -1.6909  0.7048 -1.3518
29665SOL     OW  972   4.571   8.614   6.546 -0.0225 -0.3773  0.2629
29665SOL    HW1  973   4.530   8.581   6.466 -3.0356  0.0207  1.4935
29665SOL    HW2  974   4.523   8.695   6.565  2.9490  1.4207  0.6774
29666SOL     OW  975   8.361   3.450   4.946  0.6340 -0.0562 -0.9939
29666SOL    HW1  976   8.396   3.536   4.970  0.3883  0.2105 -1.5495
29666SOL    HW2  977   8.387   3.392   5.017  1.1484  0.3954 -0.8043
29667SOL     OW  978   4.766   1.302   2.519 -0.3941  0.1217  0.1236
29667SOL    HW1  979   4.821   1.377   2.540 -0.9544  0.6831 -0.3760
29667SOL    HW2  980   4.702   1.336   2.457 -0.9166 -0.6700  0.2151
29668SOL     OW  981   0.229   3.622   2.048 -0.1071  0.2517  0.1709
29668SOL    HW1  982   0.278   3.662   1.977 -1.3349  0.5214 -0.5490
29668SOL    HW2  983   0.143   3.663   2.045 -0.3003  0.0205  1.6009
29669SOL     OW  984   3.317   4.030   7.954 -0.0233  0.1684  0.4889
29669SOL    HW1  985   3.368   4.048   8.033 -0.2669  0.9582  0.4729
29669SOL    HW2  986   3.354   3.948   7.920  2.2509  1.4364 -0.3319
29670SOL     OW  987   9.524   7.006   4.399 -0.0934 -0.1480  0.0275
29670SOL    HW1  988   9.544   6.916   4.424 -0.2678 -0.5042 -1.0778
29670SOL    HW2  989   9.609   7.050   4.397 -0.0253 -0.2321  0.7339
29671SOL     OW  990   7.063   3.568   5.274  0.3769  0.9844  0.2820
29671SOL    HW1  991   7.011   3.560   5.354 -1.7473  1.0225 -1.0159
29671SOL    HW2  992   7.069   3.662   5.258 -2.1151  0.9621 -1.3041
29672SOL     OW  993   6.990   8.238   8.989 -0.3660  0.2883 -0.7147
29672SOL    HW1  994   6.943   8.321   8.977 -1.1829  0.1788  1.2608
29672SOL    HW2  995   7.000   8.230   9.084  0.0319 -1.6986 -0.8795
29673SOL     OW  996   7.642   9.115   1.518  1.3949 -0.0199  0.0063
29673SOL    HW1  997   7.567   9.174   1.517  0.4521 -1.1294  1.3745
29673SOL    HW2  998   7.608   9.032   1.483  2.4047 -0.1141 -0.8167
29674SOL     OW  999   1.508   4.261   5.026 -0.3106 -0.0826 -0.8216
29674SOL    HW1 1000   1.474   4.346   5.052 -0.0598  0.3095 -1.7269
29674SOL    HW2 1001   1.474   4.200   5.091 -0.0211  0.7907  0.1780
29675SOL     OW 1002   3.675   9.575   3.388 -0.4612 -0.0718  0.0966
29675SOL    HW1 1003   3.604   9.511   3.389 -2.2676  1.6381 -3.0023
29675SOL    HW2 1004   3.674   9.613   3.476 -1.2328 -2.2315  1.0949
29676SOL     OW 1005   2.040   3.636   6.733 -0.0703 -0.4496  1.0356
29676SOL    HW1 1006   2.026   3.634   6.828 -1.3754  0.0140  0.8723
29676SOL    HW2 1007   1.961   3.676   6.698  0.9902  0.6842 -0.1530
29677SOL     OW 1008   6.621   7.985   7.308  0.0539 -0.3090  0.0820
29677SOL    HW1 1009   6.583   8.046   7.244 -0.4115 -0.1102  0.5458
29677SOL    HW2 1010   6.715   8.003   7.305 -0.1561  0.9983  0.7912
29678SOL     OW 1011   9.155   8.234   9.889  0.1680  0.4738 -0.3171
29678SOL    HW1 1012   9.088   8.249   9.822 -0.5423  2.0717  0.7008
29678SOL    HW2 1013   9.190   8.148   9.868 -2.0565 -0.3417 -1.0185
29679SOL     OW 1014   9.548   8.267   0.905  0.3652  0.1952  0.4666
29679SOL    HW1 1015   9.496   8.285   0.826 -0.6781 -0.5674  0.9709
29679SOL    HW2 1016   9.533   8.343   0.961 -1.1329 -0.5226  1.0788
29680SOL     OW 1017   6.257   0.202   7.452  0.2140 -0.1440  0.2637
29680SOL    HW1 1018   6.162   0.195   7.468 -0.0801  1.0708 -0.7517
29680SOL    HW2 1019   6.291   0.116   7.473 -1.2523 -0.8648 -0.1230
29681SOL     OW 1020   3.189   9.235   1.432 -0.0568 -0.0391 -0.0809
29681SOL    HW1 1021   3.203   9.193   1.347  0.2615 -0.3464  0.1177
29681SOL    HW2 1022   3.104   9.203   1.461 -2.6286  3.7856 -2.4428
29682SOL     OW 1023   6.205   7.554   1.729  0.4593  0.0340 -0.0397
29682SOL    HW1 1024   6.251   7.544   1.812  0.5185 -0.5937 -0.1474
29682SOL    HW2 1025   6.246   7.491   1.671  1.1959  1.2586 -0.8945
29683SOL     OW 1026   0.959   5.707   9.667 -0.6554 -0.0798 -0.0627
29683SOL    HW1 1027   0.943   5.760   9.589  0.8777  0.7040  0.1244
29683SOL    HW2 1028   1.011   5.762   9.724 -2.0380 -0.5254  1.7052
29684SOL     OW 1029  10.183   2.351   8.592  0.1977  0.3699 -0.6544
29684SOL    HW1 1030  10.212   2.424   8.539  2.5538  0.0184  0.0352
29684SOL    HW2 1031  10.194   2.274   8.537  2.7305 -0.0063  0.2334
29685SOL     OW 1032   4.580   1.327   9.654 -0.7212  0.0511 -0.0130
29685SOL    HW1 1033   4.490   1.357   9.639 -1.1891 -0.6405  1.2625
29685SOL    HW2 1034   4.613   1.385   9.724 -0.5119 -0.3282  0.2038
29686SOL     OW 1035   9.712   5.711   5.392 -0.1825 -0.2743 -0.3740
29686SOL    HW1 1036   9.732   5.804   5.400 -0.2601 -0.3994  1.9898
29686SOL    HW2 1037   9.798   5.668   5.385 -0.1500 -0.0581 -1.5309
29687SOL     OW 1038   9.486   9.321  10.200  0.1179  0.2711  0.5653
29687SOL    HW1 1039   9.444   9.358  10.122 -1.0008  3.0610  2.3579
29687SOL    HW2 1040   9.577   9.352  10.193  0.3104 -0.4132 -0.1405
29688SOL     OW 1041   8.619   9.946   0.074 -0.5830 -0.1286 -0.1840
29688SOL    HW1 1042   8.670   9.935  -0.006 -0.3284  1.4565 -0.2690
29688SOL    HW2 1043   8.684   9.945   0.144 -0.6070  0.2120 -0.1531
29689SOL     OW 1044   2.693   7.946   2.185 -0.3967 -0.3056  0.1925
29689SOL    HW1 1045   2.632   7.989   2.244 -2.1082 -1.4391 -0.6631
29689SOL    HW2 1046   2.779   7.957   2.226 -0.7991  3.1631  0.3943
29690SOL     OW 1047   8.342   4.398   8.693 -0.0045 -0.0883  0.3404
29690SOL    HW1 1048   8.370   4.328   8.634  0.6753 -0.0344  0.5944
29690SOL    HW2 1049   8.266   4.437   8.649  1.5693  1.1548 -1.4285
29691SOL     OW 1050   3.710   0.449   4.584 -0.2122 -0.0247  0.9574
29691SOL    HW1 1051   3.762   0.449   4.504 -0.9694  0.5200  0.4490
29691SOL    HW2 1052   3.773   0.465   4.654  0.7182 -2.0354  0.6735
29692SOL     OW 1053   4.060   2.034   3.023 -0.3606 -0.3296 -0.3254
29692SOL    HW1 1054   4.124   1.979   2.978 -0.7954 -1.2209  0.1123
29692SOL    HW2 1055   3.975   2.003   2.991 -0.6294 -0.2833  0.3196
29693SOL     OW 1056  10.146   2.250   7.742 -0.2880 -0.0217  0.5721
29693SOL    HW1 1057  10.131   2.182   7.808 -0.3994 -0.6799 -0.1207
29693SOL    HW2 1058  10.066   2.251   7.690  0.2660 -0.3551 -0.3038
29694SOL     OW 1059   5.763   3.564   1.147 -0.1046  0.4397  0.1863
29694SOL    HW1 1060   5.818   3.558   1.069 -2.4393 -1.0246 -1.4768
29694SOL    HW2 1061   5.762   3.475   1.183 -1.8876  0.2375 -0.2572
29695SOL     OW 1062   0.494   5.226   6.708 -0.0770  0.2907 -0.2504
29695SOL    HW1 1063   0.487   5.154   6.646  0.9462 -1.0127  1.0565
29695SOL    HW2 1064   0.429   5.206   6.776 -0.1108  0.8491 -0.1160
29696SOL     OW 1065   8.263   0.765   9.993  0.1884 -0.5499  0.4022
29696SOL    HW1 1066   8.189   0.723   9.949  0.3411 -0.4861  0.0814
29696SOL    HW2 1067   8.231   0.784  10.081 -0.6638  0.7621 -0.1667
29697SOL     OW 1068   2.713   5.732   7.851  0.1031 -0.2257 -0.3915
29697SOL    HW1 1069   2.751   5.782   7.779  0.3548  0.0410 -0.0793
29697SOL    HW2 1070   2.789   5.693   7.895 -0.0507 -5.8669 -3.9945
29698SOL     OW 1071   2.539   2.147   4.059  0.4441 -0.2980 -0.2472
29698SOL    HW1 1072   2.587   2.200   4.122 -0.8191  0.9150 -0.2688
29698SOL    HW2 1073   2.480   2.094   4.111 -0.1767  0.2746 -0.3454
29699SOL     OW 1074  10.256   0.427   9.734 -0.2763  0.5844  0.3433
29699SOL    HW1 1075  10.258   0.518   9.705  0.1941  0.7689  0.9367
29699SOL    HW2 1076  10.277   0.377   9.656  0.9311  1.0685  0.3297
29700SOL     OW 1077  10.141   7.862   9.960  0.1036 -0.5166 -0.4784
29700SOL    HW1 1078  10.061   7.845  10.009  0.6031  4.2844  2.7505
29700SOL    HW2 1079  10.211   7.826  10.015  0.4522  1.8773  0.7801
29701SOL     OW 1080   0.408   2.020   7.477  0.2767 -0.2549  0.2255
29701SOL    HW1 1081   0.480   2.081   7.494 -0.8691  1.0398  0.5554
29701SOL    HW2 1082   0.373   2.000   7.564 -1.6902  1.5516 -0.0740
29702SOL     OW 1083   6.914   2.603   5.376  0.6268  0.3573 -0.2680
29702SOL    HW1 1084   6.848   2.536   5.363  1.5935 -0.3799 -1.5751
29702SOL    HW2 1085   6.880   2.680   5.331  0.7104 -0.0561 -1.0446
29703SOL     OW 1086   8.451   0.656   8.015 -0.3077 -0.1997 -0.0399
29703SOL    HW1 1087   8.524   0.638   8.074 -0.5549 -0.3425  0.2234
29703SOL    HW2 1088   8.485   0.633   7.928  0.4922  1.2452 -0.1384
29704SOL     OW 1089   5.763   5.337   2.182  0.6205  0.2425  0.2183
29704SOL    HW1 1090   5.720   5.258   2.213  0.0049  0.6273  0.3597
29704SOL    HW2 1091   5.830   5.306   2.120  0.8035 -0.4215  0.7404
29705SOL     OW 1092   0.817   3.075   5.732  0.1981 -0.0238 -0.0285
29705SOL    HW1 1093   0.907   3.088   5.700 -0.4128  0.7338 -1.5194
29705SOL    HW2 1094   0.774   3.026   5.662 -0.3143 -1.2335  1.0970
29706SOL     OW 1095   1.934   3.973   7.249 -0.1726 -0.6333 -0.5003
29706SOL    HW1 1096   2.025   3.948   7.235 -0.0317 -0.5866  0.2728
29706SOL    HW2 1097   1.928   3.990   7.343 -0.9434 -0.4917 -0.5665
29707SOL     OW 1098   9.533   7.830   6.644 -0.0141  0.3662 -0.0363
29707SOL    HW1 1099   9.554   7.911   6.691  0.3032 -0.1208  0.6775
29707SOL    HW2 1100   9.450   7.848   6.600 -0.4088  0.7684  0.8664
29708SOL     OW 1101   2.705   7.291   0.094 -0.7541 -0.5007  0.6804
29708SOL    HW1 1102   2.707   7.284   0.189 -0.5735 -0.1656  0.7058
29708SOL    HW2 1103   2.782   7.345   0.072 -2.3454  1.8752  0.5836
29709SOL     OW 1104   7.596   9.947   2.264  0.0745  0.4492 -0.9557
29709SOL    HW1 1105   7.666  10.010   2.248  1.0865 -0.4818 -0.3887
29709SOL    HW2 1106   7.576   9.956   2.358  0.3327 -0.1570 -0.8347
29710SOL     OW 1107   3.518   4.019   1.214  0.3404  0.7796  0.0971
29710SOL    HW1 1108   3.527   3.978   1.128  0.9281 -2.6107  1.6040
29710SOL    HW2 1109   3.426   4.045   1.220 -0.2261 -0.9313 -0.7590
29711SOL     OW 1110   7.222   8.882   3.321 -0.2776 -0.4466 -0.0521
29711SOL    HW1 1111   7.294   8.892   3.383  0.0836 -0.7070 -0.4183
29711SOL    HW2 1112   7.170   8.810   3.355  0.3001 -1.0461 -0.3952
29712SOL     OW 1113   6.763   8.662   5.914 -0.0794  0.1984 -0.0173
29712SOL    HW1 1114   6.705   8.641   5.841  0.0106  1.6553 -0.5340
29712SOL    HW2 1115   6.832   8.595   5.910 -0.8393 -0.5847 -0.3659
29713SOL     OW 1116   4.491   0.151   2.401  0.2827  0.1241 -0.0553
29713SOL    HW1 1117   4.452   0.238   2.410 -0.0344  0.0208 -0.4066
29713SOL    HW2 1118   4.419   0.090   2.415  0.2525 -0.0649 -0.9643
29714SOL     OW 1119   0.298   4.801   1.235  0.1714  0.1149 -0.3924
29714SOL    HW1 1120   0.266   4.887   1.210  0.5653 -0.0483 -1.4916
29714SOL    HW2 1121   0.235   4.770   1.301  0.4279  1.5223  0.5622
29715SOL     OW 1122   8.992   3.671   5.912 -0.1123 -0.5139 -0.0288
29715SOL    HW1 1123   9.077   3.709   5.933 -0.8625  0.4079  1.4874
29715SOL    HW2 1124   8.933   3.746   5.905 -1.5511 -1.2644  2.6323
29716SOL     OW 1125  10.078   8.525   0.612  0.2498  0.0552 -0.3553
29716SOL    HW1 1126  10.168   8.555   0.608  0.1940  0.1718 -0.7986
29716SOL    HW2 1127  10.027   8.599   0.577  0.0134 -0.1261 -0.3952
29717SOL     OW 1128   6.199   8.245   0.877  0.0189 -0.0127  0.8427
29717SOL    HW1 1129   6.145   8.322   0.861 -0.9285 -0.5627  1.2982
29717SOL    HW2 1130   6.163   8.207   0.958  0.8884 -0.5686  0.9857
29718SOL     OW 1131   9.292   1.175   5.067 -0.1349  0.0570 -0.0356
29718SOL    HW1 1132   9.364   1.114   5.056 -0.0696  0.2144 -0.5401
29718SOL    HW2 1133   9.310   1.220   5.149  1.6152  1.7397 -1.2420
29719SOL     OW 1134   9.337   8.557   3.345  0.5264 -0.0068 -0.5228
29719SOL    HW1 1135   9.324   8.508   3.426  0.2365 -0.8501 -1.0694
29719SOL    HW2 1136   9.337   8.649   3.372 -1.1001 -0.2015  0.2343
29720SOL     OW 1137   8.583   6.933   8.147  0.2205 -0.1203  0.2724
29720SOL    HW1 1138   8.665   6.971   8.178 -1.6288  3.7669  1.0165
29720SOL    HW2 1139   8.536   6.907   8.226 -1.3622  2.7783  0.4407
29721SOL     OW 1140   5.491   0.922   3.872 -0.3248  0.1408  0.2721
29721SOL    HW1 1141   5.493   0.836   3.830 -0.2978  0.5725 -0.6617
29721SOL    HW2 1142   5.412   0.921   3.926 -1.4567  0.2066 -1.2942
29722SOL     OW 1143  10.077   5.341   0.127 -0.4545  0.1726  0.6949
29722SOL    HW1 1144  10.093   5.435   0.133 -0.9701  0.4081 -1.0451
29722SOL    HW2 1145   9.981   5.333   0.131 -0.7548  0.1686 -3.0850
29723SOL     OW 1146   2.431   3.054  10.306  0.0485 -0.6124  0.0645
29723SOL    HW1 1147   2.353   2.999  10.312 -0.1050 -0.4491 -0.4687
29723SOL    HW2 1148   2.459   3.048  10.215 -0.8723  1.4188 -0.4195
29724SOL     OW 1149   8.343   8.791   6.392 -0.2350  0.4265 -0.1274
29724SOL    HW1 1150   8.438   8.781   6.391  0.0726  2.4851 -2.8123
29724SOL    HW2 1151   8.327   8.869   6.444 -0.4240  0.3147 -0.0149
29725SOL     OW 1152   7.249   9.482   6.803 -0.3146  0.0030 -0.4524
29725SOL    HW1 1153   7.248   9.491   6.708  0.0626  0.7791 -0.3919
29725SOL    HW2 1154   7.336   9.447   6.822  0.0822  1.0291 -0.3094
29726SOL     OW 1155   5.545   2.585   7.106  0.3292  0.1576  0.0890
29726SOL    HW1 1156   5.508   2.568   7.019  2.3094 -1.1380 -0.5688
29726SOL    HW2 1157   5.540   2.500   7.151 -0.5783  0.7938  1.2244
29727SOL     OW 1158   2.024   2.234   3.810  0.1969  0.7775  0.5121
29727SOL    HW1 1159   2.039   2.328   3.799  1.0185  0.4611 -1.4667
29727SOL    HW2 1160   2.059   2.214   3.896  1.1641  2.0713  0.4390
29728SOL     OW 1161   4.605   0.525   0.848 -0.9122 -0.1239 -0.0293
29728SOL    HW1 1162   4.557   0.493   0.924  0.2356 -2.2902 -0.1345
29728SOL    HW2 1163   4.697   0.510   0.870 -0.3613  1.8956 -0.7209
29729SOL     OW 1164   5.953   5.619   0.339 -0.5405  0.1429 -0.5440
29729SOL    HW1 1165   5.955   5.714   0.325 -0.2426 -0.0021 -1.5914
29729SOL    HW2 1166   5.996   5.606   0.423 -1.1730  0.9808 -0.0690
29730SOL     OW 1167   3.248   1.442   2.671 -0.0152 -0.5671  0.9256
29730SOL    HW1 1168   3.229   1.534   2.654 -0.6275 -0.7731  0.4182
29730SOL    HW2 1169   3.316   1.443   2.738  0.0427  0.2526  0.8658
29731SOL     OW 1170   9.351   2.689   5.438  0.1045 -0.5926  0.3044
29731SOL    HW1 1171   9.319   2.640   5.362  2.4850  0.3566 -1.4432
29731SOL    HW2 1172   9.414   2.631   5.480  2.1392  0.4296 -1.1556
29732SOL     OW 1173   8.164   2.122   0.396  0.9768 -0.0832  0.1672
29732SOL    HW1 1174   8.186   2.031   0.418  2.0786  0.2037  0.3140
29732SOL    HW2 1175   8.103   2.149   0.465  0.6152 -0.7229  0.0990
29733SOL     OW 1176   5.137   8.275   5.381 -0.7559  0.3941  0.3264
29733SOL    HW1 1177   5.123   8.352   5.438 -0.2857  1.3587 -0.8244
29733SOL    HW2 1178   5.052   8.230   5.381 -1.9282  2.4241 -1.1310
29734SOL     OW 1179   9.620   5.859   2.284 -0.0438 -0.4116 -0.1132
29734SOL    HW1 1180   9.694   5.921   2.288  0.8373 -1.3718 -0.8308
29734SOL    HW2 1181   9.641   5.793   2.351 -1.0231  0.1007  0.7118
29735SOL     OW 1182   0.046   5.620   5.633 -0.3974  0.1898  0.3748
29735SOL    HW1 1183   0.113   5.660   5.688 -0.2369 -0.3782  0.5959
29735SOL    HW2 1184   0.030   5.534   5.672  0.6672 -0.7701 -1.2176
29736SOL     OW 1185   0.025   5.142   9.211 -0.5134  0.0112  0.2677
29736SOL    HW1 1186  -0.028   5.105   9.281  0.4884  0.7219  1.4437
29736SOL    HW2 1187  -0.038   5.191   9.157 -0.9002  2.2878  2.5977
29737SOL     OW 1188   1.437   0.884   1.398  0.3739  0.0531  0.5669
29737SOL    HW1 1189   1.480   0.949   1.453 -1.4278  1.5845  0.2559
29737SOL    HW2 1190   1.448   0.916   1.309 -1.0061  0.2831  0.4489
29738SOL     OW 1191   7.269  10.049   8.916  0.4074  0.0502 -0.0281
29738SOL    HW1 1192   7.215  10.026   8.991  0.7715 -1.9406 -0.3180
29738SOL    HW2 1193   7.296   9.965   8.879  1.0268  0.9745 -1.8208
29739SOL     OW 1194   1.036   3.303   5.961 -0.1583 -0.1487 -0.1894
29739SOL    HW1 1195   1.031   3.253   5.879  0.6662 -0.4856 -0.0383
29739SOL    HW2 1196   1.004   3.242   6.028 -1.6677  0.4107 -0.3624
29740SOL     OW 1197   5.804   0.442   3.742 -0.2578  0.2738 -0.1110
29740SOL    HW1 1198   5.883   0.426   3.690 -0.1772 -0.9933  0.3647
29740SOL    HW2 1199   5.733   0.406   3.689 -0.3371  0.1435  0.0834
29741SOL     OW 1200   9.172   0.034   2.823 -0.1040 -0.0912  0.3340
29741SOL    HW1 1201   9.077   0.048   2.817 -0.0834  0.8812  1.7676
29741SOL    HW2 1202   9.187   0.010   2.914  1.2706  1.9763  0.7101
29742SOL     OW 1203   8.851   1.318   2.915  0.1253 -0.0392  0.6256
29742SOL    HW1 1204   8.918   1.279   2.859 -0.1320  0.1676  0.1651
29742SOL    HW2 1205   8.814   1.389   2.862 -1.2987 -0.9046  0.4012
29743SOL     OW 1206   7.508   7.775   1.948  0.1139 -0.2601 -0.5849
29743SOL    HW1 1207   7.430   7.829   1.933 -0.4852 -0.5906  1.0830
29743SOL    HW2 1208   7.477   7.685   1.933  0.0146 -0.4303  0.5308
29744SOL     OW 1209  10.323   9.718   6.739 -0.0100  0.5141 -0.2422
29744SOL    HW1 1210  10.398   9.727   6.797  0.1180 -0.3058 -0.2809
29744SOL    HW2 1211  10.269   9.650   6.779 -0.6093  0.9122 -0.3524
29745SOL     OW 1212   9.408   6.538   2.914  0.2377  0.1377  0.2764
29745SOL    HW1 1213   9.373   6.453   2.941 -1.1174 -0.5950 -3.1826
29745SOL    HW2 1214   9.343   6.601   2.945 -0.1249 -0.3842  0.5987
29746SOL     OW 1215   9.756   8.068   6.411  0.5461  0.5120 -0.1855
29746SOL    HW1 1216   9.826   8.132   6.419  0.9037  0.3175 -1.6127
29746SOL    HW2 1217   9.740   8.060   6.317 -0.8371 -0.0486  0.0665
29747SOL     OW 1218   6.307   9.734   5.598 -0.5403  0.3643 -0.2678
29747SOL    HW1 1219   6.362   9.762   5.526  1.2822 -1.7545  0.2106
29747SOL    HW2 1220   6.232   9.691   5.556 -0.8159  1.3956 -0.8785
29748SOL     OW 1221   7.254   9.237   8.514 -0.0885  0.1246 -0.2586
29748SOL    HW1 1222   7.329   9.250   8.573 -0.4526 -2.1231  0.8090
29748SOL    HW2 1223   7.293   9.223   8.428  0.6903 -0.1383  0.1227
29749SOL     OW 1224   2.193   3.569   6.253  0.8745  0.1000 -0.1306
29749SOL    HW1 1225   2.136   3.535   6.321  1.1086  0.4758  0.2578
29749SOL    HW2 1226   2.222   3.654   6.286  0.0002  0.8739 -1.2309
29750SOL     OW 1227   9.779   3.016   5.773  0.4504  0.0734  0.0107
29750SOL    HW1 1228   9.821   3.047   5.854 -1.1449  0.0307  0.8957
29750SOL    HW2 1229   9.687   3.003   5.798 -0.3542  1.2340 -2.1104
29751SOL     OW 1230   8.444   5.445   0.869 -0.6544 -0.1858 -0.5296
29751SOL    HW1 1231   8.379   5.502   0.826  0.0395 -0.3542 -1.8804
29751SOL    HW2 1232   8.523   5.499   0.873 -1.3168  0.7740  2.9818
29752SOL     OW 1233   1.850   6.252   6.710 -0.5338 -0.9350  0.5561
29752SOL    HW1 1234   1.772   6.209   6.675 -0.2482 -1.4887  0.5707
29752SOL    HW2 1235   1.817   6.329   6.756 -1.1222 -1.4313  0.9951
29753SOL     OW 1236   7.996   5.826   8.800  0.2087 -0.2861 -0.1094
29753SOL    HW1 1237   7.991   5.851   8.893 -0.0358  0.4932 -0.3266
29753SOL    HW2 1238   8.030   5.737   8.802  0.6329 -0.1249  0.7169
29754SOL     OW 1239   0.415   4.916   1.593 -0.5877  0.0820  0.2495
29754SOL    HW1 1240   0.411   4.938   1.685 -0.8443 -1.9711  0.7786
29754SOL    HW2 1241   0.328   4.882   1.572 -0.4543  0.2776 -0.6928
29755SOL     OW 1242   6.074   8.318   7.713 -0.9919  0.6232 -0.0641
29755SOL    HW1 1243   6.069   8.343   7.621 -0.6491  2.6399  0.4254
29755SOL    HW2 1244   6.167   8.314   7.732 -1.0041  3.3074  0.9189
29756SOL     OW 1245   3.163   0.314   8.453  0.2765 -0.6041  0.2747
29756SOL    HW1 1246   3.170   0.241   8.392 -2.0703 -0.8351  0.1820
29756SOL    HW2 1247   3.172   0.273   8.539  0.6314 -0.7398  0.1741
29757SOL     OW 1248  10.110   3.434   5.331 -0.2851 -0.0196  0.1832
29757SOL    HW1 1249  10.187   3.402   5.284 -1.2425 -1.8392 -0.2485
29757SOL    HW2 1250  10.039   3.376   5.302 -1.6118  1.0011  1.2862
29758SOL     OW 1251  10.059   0.311   5.787 -0.2975 -0.4196  0.1958
29758SOL    HW1 1252  10.102   0.367   5.722  1.3999 -2.1275 -0.2558
29758SOL    HW2 1253  10.129   0.287   5.847 -0.8913 -2.2354  0.2077
29759SOL     OW 1254   5.729   7.738   4.462 -0.0936  0.3953  0.3515
29759SOL    HW1 1255   5.711   7.793   4.385  0.8928 -0.4123 -0.4863
29759SOL    HW2 1256   5.701   7.791   4.536 -1.8473  0.8736 -0.5992
29760SOL     OW 1257   7.344   3.711   5.481  0.0508 -0.4010  0.5806
29760SOL    HW1 1258   7.383   3.747   5.402 -0.6445 -1.0544 -0.0720
29760SOL    HW2 1259   7.379   3.765   5.552 -1.1137  1.7027 -0.3618
29761SOL     OW 1260   9.951   7.313   6.568  0.1570  0.4293  0.2491
29761SOL    HW1 1261   9.929   7.220   6.571  1.2594  0.1722  2.4893
29761SOL    HW2 1262   9.999   7.324   6.485 -1.1147 -0.6712 -0.6808
29762SOL     OW 1263   8.615   7.019   5.026  0.0323  0.1463 -1.1883
29762SOL    HW1 1264   8.537   7.029   5.080 -0.7687  0.2495 -2.3413
29762SOL    HW2 1265   8.635   7.108   4.996  1.7817  0.4611  0.6597
29763SOL     OW 1266   1.767   5.296   5.437 -0.4148 -0.5917  0.4659
29763SOL    HW1 1267   1.837   5.248   5.481 -0.7695 -0.2053  1.4877
29763SOL    HW2 1268   1.808   5.378   5.409 -0.0414 -1.0829 -0.4598
29764SOL     OW 1269   5.169   3.544   6.717 -0.1903 -0.0015  0.0828
29764SOL    HW1 1270   5.195   3.565   6.806  0.7470 -0.1568 -0.1368
29764SOL    HW2 1271   5.192   3.622   6.666 -0.0386 -0.1878 -0.1382
29765SOL     OW 1272  10.281   2.625  10.267  0.0919  0.5135  0.0546
29765SOL    HW1 1273  10.222   2.648  10.339 -0.8686  2.0780 -1.1738
29765SOL    HW2 1274  10.263   2.533  10.249 -2.2685  1.0188 -0.4900
29766SOL     OW 1275   7.885   4.198   0.268  0.3544 -0.4108  0.4620
29766SOL    HW1 1276   7.898   4.246   0.350  0.5847 -1.4975  1.0951
29766SOL    HW2 1277   7.815   4.244   0.223  1.3302  1.1913  0.4867
29767SOL     OW 1278   0.902   3.757   5.747  1.0585  0.2150  0.1482
29767SOL    HW1 1279   0.882   3.847   5.773 -0.3121  0.5615 -1.8102
29767SOL    HW2 1280   0.956   3.767   5.668  2.0215 -0.6986  0.6838
29768SOL     OW 1281   1.289  10.122   9.852 -0.0509 -0.7417  0.3681
29768SOL    HW1 1282   1.374  10.095   9.816  0.7811  1.6180  0.3397
29768SOL    HW2 1283   1.300  10.216   9.867 -2.5875 -0.4444  0.6356
29769SOL     OW 1284   0.665   2.198   3.968  0.0831 -0.4895  0.0981
29769SOL    HW1 1285   0.574   2.220   3.949  0.1884 -1.0093 -1.0611
29769SOL    HW2 1286   0.677   2.224   4.060 -0.6979  1.2639 -0.2507
29770SOL     OW 1287   6.301   8.079   0.163 -0.5882 -0.2176 -0.6721
29770SOL    HW1 1288   6.238   8.009   0.145 -0.8635 -0.2882  0.5131
29770SOL    HW2 1289   6.306   8.128   0.081 -1.4916 -0.7614 -1.0665
29771SOL     OW 1290   3.179  10.305   4.707 -0.0499 -0.0340  0.6432
29771SOL    HW1 1291   3.167  10.323   4.800 -0.7083 -1.6810  0.9095
29771SOL    HW2 1292   3.241  10.233   4.704  1.2203  1.0526 -0.2975
29772SOL     OW 1293   2.820   9.019   3.078 -0.4693  0.0218  0.1553
29772SOL    HW1 1294   2.739   9.026   3.028 -0.1763 -0.3528 -0.3861
29772SOL    HW2 1295   2.792   8.990   3.165 -0.8603 -0.8123 -0.2352
29773SOL     OW 1296   1.596   2.855   4.145  0.0713 -0.2577  0.0851
29773SOL    HW1 1297   1.613   2.947   4.167 -0.4264 -0.0170 -0.5192
29773SOL    HW2 1298   1.632   2.806   4.219  2.1656  0.3008 -0.4965
29774SOL     OW 1299  10.242   2.516   5.080 -0.6407 -0.0683 -0.0852
29774SOL    HW1 1300  10.229   2.545   4.989 -2.0437 -0.7106 -0.1074
29774SOL    HW2 1301  10.333   2.484   5.081 -0.4687  0.3170 -1.1563
29775SOL     OW 1302   6.878   9.583   8.561 -0.5652 -0.1995  0.0643
29775SOL    HW1 1303   6.947   9.528   8.599  1.2678  0.8729 -1.5526
29775SOL    HW2 1304   6.876   9.660   8.618 -0.2671 -0.1287 -0.0194
29776SOL     OW 1305   7.294   2.912   6.224  0.5018  0.0098 -0.0515
29776SOL    HW1 1306   7.265   2.824   6.250 -1.7333  1.0705  1.2840
29776SOL    HW2 1307   7.237   2.935   6.151  0.0005  0.9572  0.6237
29777SOL     OW 1308   1.163   3.245   3.968 -0.7090  0.0957 -0.0041
29777SOL    HW1 1309   1.220   3.232   4.044 -0.7228  0.1652  0.0183
29777SOL    HW2 1310   1.176   3.167   3.914 -0.0544  0.4289 -0.3441
29778SOL     OW 1311   5.875   1.910   5.100 -0.0445 -0.4391 -0.0094
29778SOL    HW1 1312   5.780   1.910   5.108 -0.2221  0.5180 -1.6616
29778SOL    HW2 1313   5.907   1.882   5.186 -1.7643  1.1921  1.2233
29779SOL     OW 1314   6.530  10.114   6.446 -0.0361  0.6234  0.3411
29779SOL    HW1 1315   6.449  10.092   6.493  0.4636  1.2990  1.5686
29779SOL    HW2 1316   6.590  10.142   6.515  1.6787 -1.0595 -0.3749
29780SOL     OW 1317   2.887   0.841   7.584 -0.0078 -0.2110  0.1621
29780SOL    HW1 1318   2.862   0.768   7.641  1.9882  0.5945  2.1951
29780SOL    HW2 1319   2.819   0.843   7.517 -0.4602 -3.5448  0.3657
29781SOL     OW 1320   2.845   9.276   0.557  0.1829 -0.0710  0.5599
29781SOL    HW1 1321   2.925   9.310   0.596 -0.6418  2.8769 -0.0255
29781SOL    HW2 1322   2.819   9.343   0.494 -1.7477 -1.8303 -0.6508
29782SOL     OW 1323   5.959   6.248   0.778 -0.6243 -0.0368 -0.1220
29782SOL    HW1 1324   6.017   6.287   0.843 -1.8272 -1.2923  1.8277
29782SOL    HW2 1325   6.006   6.170   0.748 -1.0306 -0.7387  1.0233
29783SOL     OW 1326   2.244   3.328   2.942  0.3491  0.3691 -0.1026
29783SOL    HW1 1327   2.167   3.297   2.893  0.5034  0.1920 -0.2323
29783SOL    HW2 1328   2.207   3.367   3.021  0.0564  1.2717 -0.6760
29784SOL     OW 1329   9.232   2.635   6.868  0.0373 -0.5438 -0.8654
29784SOL    HW1 1330   9.278   2.711   6.830  0.8065 -0.9592 -0.7780
29784SOL    HW2 1331   9.148   2.634   6.822 -2.4152  3.5499  2.7437
29785SOL     OW 1332   4.344   6.521   6.725 -0.5223  0.4620 -0.4981
29785SOL    HW1 1333   4.269   6.557   6.678 -0.9448 -1.8036 -1.7330
29785SOL    HW2 1334   4.313   6.437   6.759  1.1183  0.0076 -0.0174
29786SOL     OW 1335   1.627   8.133   9.836 -0.5557  0.4207 -0.0941
29786SOL    HW1 1336   1.647   8.210   9.890  0.2703 -0.0168  0.2430
29786SOL    HW2 1337   1.641   8.163   9.746  0.3697  0.5112  0.0652
29787SOL     OW 1338   2.094   6.180   6.573 -0.3821 -0.0179  0.1028
29787SOL    HW1 1339   2.016   6.220   6.613  1.4001  2.0807  1.7343
29787SOL    HW2 1340   2.059   6.108   6.521 -3.3456  0.3315  1.3609
29788SOL     OW 1341   4.989   6.300   4.822 -0.3967 -0.3517  0.2263
29788SOL    HW1 1342   5.000   6.228   4.760 -2.7695 -1.1847  0.6942
29788SOL    HW2 1343   4.955   6.259   4.901  0.7243  0.9619  1.4457
29789SOL     OW 1344   8.430   6.348   7.751  0.2558 -0.2793  0.2314
29789SOL    HW1 1345   8.461   6.269   7.708  0.3600  0.1440 -0.4816
29789SOL    HW2 1346   8.427   6.414   7.682  0.3027  0.3776  0.8379
29790SOL     OW 1347   2.466   6.396   3.969  0.1618  0.0099  0.6035
29790SOL    HW1 1348   2.524   6.472   3.960  0.2219 -0.2450 -1.9507
29790SOL    HW2 1349   2.485   6.361   4.056  1.3039  1.9631  1.1901
29791SOL     OW 1350   9.819   3.832   9.962 -0.3511  0.3985  0.4397
29791SOL    HW1 1351   9.771   3.851   9.881  0.3297  1.6166  0.3104
29791SOL    HW2 1352   9.833   3.917  10.002  0.8030 -0.0459  1.0054
29792SOL     OW 1353   5.253   0.132   8.454  0.2967  0.0078 -0.1101
29792SOL    HW1 1354   5.290   0.048   8.483  0.0388 -0.2722 -0.5617
29792SOL    HW2 1355   5.328   0.186   8.432  0.5611  0.6611  2.1658
29793SOL     OW 1356   7.015   8.444   8.425 -0.1838 -0.2104 -0.0355
29793SOL    HW1 1357   7.091   8.395   8.454  1.1313  1.9387  0.3688
29793SOL    HW2 1358   6.997   8.506   8.495 -0.4088  1.3450 -1.4035
29794SOL     OW 1359   7.259   4.551   3.780  0.0240  0.2941  0.2351
29794SOL    HW1 1360   7.341   4.504   3.798 -0.5932 -0.8284  0.2558
29794SOL    HW2 1361   7.256   4.621   3.845  0.4816 -0.2993  0.9166
29795SOL     OW 1362   5.552   8.561   4.835  0.2543  0.0044  0.0752
29795SOL    HW1 1363   5.502   8.564   4.917  2.2966 -1.1033  1.4540
29795SOL    HW2 1364   5.605   8.482   4.843  1.6809  0.7369 -1.6280
29796SOL     OW 1365   8.881   5.673   9.344 -0.2546  0.1801  0.5948
29796SOL    HW1 1366   8.888   5.682   9.439 -0.8173  0.0269  0.6594
29796SOL    HW2 1367   8.941   5.738   9.309  1.1824 -0.8679  1.0437
29797SOL     OW 1368   1.265   9.386   6.803 -0.1389 -0.1582 -0.1946
29797SOL    HW1 1369   1.323   9.316   6.831 -0.3243 -1.1185 -2.0626
29797SOL    HW2 1370   1.316   9.436   6.740 -0.8323 -0.1595 -0.7787
29798SOL     OW 1371   0.059   6.265   6.476  0.1115 -0.0144 -0.3632
29798SOL    HW1 1372   0.112   6.218   6.540 -1.6666 -0.3563  0.9190
29798SOL    HW2 1373   0.081   6.224   6.392 -0.8755 -2.7529  0.6213
29799SOL     OW 1374   7.426   1.143   1.264  0.4632 -0.0093 -0.3372
29799SOL    HW1 1375   7.344   1.139   1.215  1.2243 -0.5656 -1.6205
29799SOL    HW2 1376   7.449   1.051   1.278  1.3974  0.1277 -0.9237
29800SOL     OW 1377   4.747  10.152   6.703 -0.3982  0.4354  0.2989
29800SOL    HW1 1378   4.713  10.182   6.618  1.0210  0.7816 -0.1653
29800SOL    HW2 1379   4.718  10.060   6.709 -2.2314  0.9693  0.3884
29801SOL     OW 1380   5.295   3.474   0.988 -0.3960  0.2016 -0.0868
29801SOL    HW1 1381   5.218   3.528   1.007  1.1284  2.0181  1.3576
29801SOL    HW2 1382   5.360   3.536   0.954  0.6196 -1.1998 -0.8242
29802SOL     OW 1383   7.006   2.340   8.704 -0.3569 -0.2288  0.1053
29802SOL    HW1 1384   7.049   2.381   8.629 -2.3736 -1.2172 -1.7231
29802SOL    HW2 1385   6.925   2.304   8.668 -2.5749  1.2169  3.2339
29803SOL     OW 1386   0.205   8.785   5.822 -0.0064  0.0075  0.4290
29803SOL    HW1 1387   0.163   8.858   5.868  0.9145  0.2221  0.9439
29803SOL    HW2 1388   0.297   8.791   5.846  0.4555 -0.0671 -1.2189
29804SOL     OW 1389   5.663   0.226   7.751 -0.5862  0.1691  0.2821
29804SOL    HW1 1390   5.604   0.207   7.678  2.6639 -2.3167 -2.0026
29804SOL    HW2 1391   5.637   0.165   7.820 -0.3808 -1.2603 -0.8795
29805SOL     OW 1392   9.705   0.253   4.632  0.1816  0.2040  0.2449
29805SOL    HW1 1393   9.677   0.167   4.664 -0.5659  0.2325 -0.3149
29805SOL    HW2 1394   9.739   0.237   4.544 -0.1096  0.5046  0.0762
29806SOL     OW 1395   6.072   8.904   4.602  0.2316  0.2226  0.0560
29806SOL    HW1 1396   6.126   8.876   4.676  0.4196 -0.0210 -0.1663
29806SOL    HW2 1397   6.027   8.824   4.574  0.6778  0.1620 -0.5094
29807SOL     OW 1398   9.633   8.034   7.764  0.5196  0.3878  1.1879
29807SOL    HW1 1399   9.653   7.941   7.771 -1.1838 -0.0445  0.8808
29807SOL    HW2 1400   9.636   8.052   7.670 -0.7714  0.2127  1.0909
29808SOL     OW 1401   0.481   6.313   4.958  0.4119 -0.7547  0.8806
29808SOL    HW1 1402   0.451   6.292   4.870 -0.1491  0.9945  0.6165
29808SOL    HW2 1403   0.482   6.229   5.004  1.5055 -1.8536 -0.9969
29809SOL     OW 1404   4.625   8.426   6.734 -0.0095  0.4379  0.2489
29809SOL    HW1 1405   4.564   8.417   6.808 -1.1751 -0.4148 -0.7590
29809SOL    HW2 1406   4.588   8.497   6.681  0.0134  0.1057 -0.2235
29810SOL     OW 1407   3.672   3.539   7.760  0.0932  0.0287  0.4279
29810SOL    HW1 1408   3.629   3.522   7.676 -1.1923  0.8849  0.8706
29810SOL    HW2 1409   3.663   3.634   7.772 -2.2812 -0.3859  2.7949
29811SOL     OW 1410   1.584   5.234   5.933 -0.4301 -0.7788  0.3793
29811SOL    HW1 1411   1.595   5.318   5.979 -1.2236 -0.9908  0.9602
29811SOL    HW2 1412   1.674   5.201   5.924  0.0565  0.7693 -1.1027
29812SOL     OW 1413   6.078  10.067   4.213 -0.1805  0.3040  0.1864
29812SOL    HW1 1414   5.986  10.044   4.202  0.0103 -0.3408 -0.1332
29812SOL    HW2 1415   6.104  10.022   4.293 -0.1180  0.3957  0.2175
29813SOL     OW 1416   3.519   9.804   2.706  0.0332  0.5321  0.2445
29813SOL    HW1 1417   3.459   9.747   2.658 -0.1822  1.5705 -0.7772
29813SOL    HW2 1418   3.606   9.778   2.677 -0.1016  1.2916 -0.9273
29814SOL     OW 1419   3.392   6.532   9.635 -0.0410  0.0600  0.3539
29814SOL    HW1 1420   3.352   6.522   9.721  1.5615  1.4420  1.2982
29814SOL    HW2 1421   3.413   6.625   9.628  2.3624 -0.4613 -0.3376
29815SOL     OW 1422   6.624   5.424   0.082  0.2986  0.2385 -0.2266
29815SOL    HW1 1423   6.615   5.519   0.082 -1.3106  0.1120 -0.4086
29815SOL    HW2 1424   6.672   5.404   0.162  0.4459  1.1823 -0.0695
29816SOL     OW 1425   0.129   1.386   0.806  0.3449 -0.0461  0.1722
29816SOL    HW1 1426   0.132   1.300   0.764 -2.2267  0.2104 -0.7016
29816SOL    HW2 1427   0.108   1.367   0.898 -0.1091 -0.3468  0.0068
29817SOL     OW 1428   2.341   4.587   8.919  0.1375  0.3406  0.4884
29817SOL    HW1 1429   2.419   4.588   8.863  1.8117  2.4710  2.6549
29817SOL    HW2 1430   2.359   4.519   8.984  0.7825  1.5886  1.6630
29818SOL     OW 1431   9.630   6.827   1.919  0.0129  0.1948 -0.0916
29818SOL    HW1 1432   9.593   6.739   1.907  1.5484 -0.3776 -0.9035
29818SOL    HW2 1433   9.621   6.843   2.013 -1.2953 -0.3383 -0.0913
29819SOL     OW 1434   3.566   9.978   4.358 -0.0722 -0.0104  0.4324
29819SOL    HW1 1435   3.642   9.993   4.415  0.8983 -0.3368 -0.7286
29819SOL    HW2 1436   3.522  10.063   4.354  1.0928  0.6032 -0.0430
29820SOL     OW 1437   6.708   3.819   2.725  0.4143  0.2760  0.3759
29820SOL    HW1 1438   6.750   3.855   2.646  0.1133 -0.0320  0.0728
29820SOL    HW2 1439   6.620   3.856   2.724 -0.1025 -0.9208 -0.2634
29821SOL     OW 1440   0.818   8.417   6.929  0.4885 -0.4270 -0.1795
29821SOL    HW1 1441   0.829   8.355   6.857 -0.3380  0.2174 -0.8717
29821SOL    HW2 1442   0.740   8.387   6.975  1.4269 -1.2765  0.9270
29822SOL     OW 1443   8.371   5.132   0.064 -0.2169 -0.4216  0.2849
29822SOL    HW1 1444   8.297   5.152   0.007 -0.5298 -1.8331  0.1609
29822SOL    HW2 1445   8.431   5.206   0.052 -1.7899  0.9951  0.7616
29823SOL     OW 1446   6.192   9.461   3.648  0.3565  0.2105  0.0274
29823SOL    HW1 1447   6.123   9.528   3.650  1.4868  1.4613 -0.7111
29823SOL    HW2 1448   6.273   9.509   3.669  1.5528 -0.3947 -2.7345
29824SOL     OW 1449   0.327   2.299   0.858 -0.3516 -0.3126 -0.2497
29824SOL    HW1 1450   0.349   2.389   0.835  2.2095 -1.1163 -1.2549
29824SOL    HW2 1451   0.324   2.298   0.954  2.6370  0.2873 -0.0674
29825SOL     OW 1452   2.174   3.947   6.891 -0.1828 -0.9056 -0.3938
29825SOL    HW1 1453   2.128   3.995   6.960 -0.7072 -0.3025 -1.1418
29825SOL    HW2 1454   2.179   3.857   6.923 -0.8280 -0.7289  0.2285
29826SOL     OW 1455   0.954   1.489   4.421 -0.1254  0.1523 -0.3071
29826SOL    HW1 1456   0.865   1.457   4.434 -0.5464  2.0346  2.2517
29826SOL    HW2 1457   0.948   1.543   4.342 -1.0987 -0.1783 -0.4817
29827SOL     OW 1458   5.377   7.689   6.571  0.5773  0.3285 -0.3224
29827SOL    HW1 1459   5.442   7.630   6.532 -0.8121  0.2767 -2.7603
29827SOL    HW2 1460   5.294   7.660   6.534 -0.7865  0.9569  2.0128
29828SOL     OW 1461   5.129   6.534   1.489 -0.5659  0.0019 -0.3550
29828SOL    HW1 1462   5.174   6.450   1.485 -1.9361 -0.7255 -1.1366
29828SOL    HW2 1463   5.051   6.517   1.542 -0.6034  0.9187 -0.0897
29829SOL     OW 1464   1.437   6.407   5.678  0.0336  0.5791 -0.0355
29829SOL    HW1 1465   1.374   6.337   5.691  2.4092 -1.7952 -0.3481
29829SOL    HW2 1466   1.521   6.368   5.701  1.5712  3.1652 -0.8395
29830SOL     OW 1467   4.986   6.767   6.412  0.2513 -0.1284 -0.4902
29830SOL    HW1 1468   4.892   6.766   6.395 -0.0755 -3.4932  0.8055
29830SOL    HW2 1469   4.998   6.839   6.474 -1.1543  1.3287 -1.8063
29831SOL     OW 1470   2.835   8.767   5.285 -0.0474  0.3390  0.4567
29831SOL    HW1 1471   2.847   8.734   5.196  0.8205  0.8447  0.3729
29831SOL    HW2 1472   2.815   8.689   5.337  0.8179 -0.1633  0.0617
29832SOL     OW 1473   6.889   1.651   9.756  0.0743 -0.5310  0.0992
29832SOL    HW1 1474   6.879   1.625   9.665  1.0836 -0.4167 -0.0480
29832SOL    HW2 1475   6.983   1.645   9.773 -0.0039  0.3049  0.8764
29833SOL     OW 1476   9.591   7.392   0.047  0.7348 -0.2201  0.5349
29833SOL    HW1 1477   9.514   7.347   0.082  1.1671 -0.7377  0.8335
29833SOL    HW2 1478   9.626   7.440   0.122  0.7518 -0.0449  0.4159
29834SOL     OW 1479   7.472   7.013   2.837 -0.4804 -0.6131 -0.2384
29834SOL    HW1 1480   7.525   7.025   2.916 -0.7177 -1.0875  0.0017
29834SOL    HW2 1481   7.382   7.028   2.866 -0.5183 -0.2334 -0.5471
29835SOL     OW 1482   8.585   0.441   1.837 -0.5788  0.4741 -0.1787
29835SOL    HW1 1483   8.576   0.497   1.759  0.9597  2.6594  1.1215
29835SOL    HW2 1484   8.498   0.444   1.878 -1.4469 -0.8091 -1.8063
29836SOL     OW 1485   4.614   9.968   9.083 -0.4500  0.4632  0.0903
29836SOL    HW1 1486   4.628   9.908   9.157 -1.7109 -1.4505 -1.1416
29836SOL    HW2 1487   4.676   9.938   9.016 -1.7603 -0.1424 -0.8909
29837SOL     OW 1488   0.400   6.263   2.108  0.3838 -0.0684  0.0796
29837SOL    HW1 1489   0.317   6.286   2.065  0.8255 -0.6968 -1.1593
29837SOL    HW2 1490   0.375   6.245   2.199 -0.9969 -1.1255 -0.4732
29838SOL     OW 1491   1.351   6.387   7.104 -0.3885  0.2994  0.3596
29838SOL    HW1 1492   1.409   6.312   7.088  0.4792  1.0950 -0.3018
29838SOL    HW2 1493   1.358   6.403   7.199 -0.7488 -0.5709  0.5461
29839SOL     OW 1494   9.078   1.698   0.038 -0.5614  0.1054 -0.3287
29839SOL    HW1 1495   9.054   1.698  -0.055  0.5141 -0.5706 -0.6293
29839SOL    HW2 1496   9.009   1.647   0.081 -1.2513  0.7099 -0.6883
29840SOL     OW 1497   0.539   4.252   8.005 -0.2212  0.0308 -0.0522
29840SOL    HW1 1498   0.495   4.221   7.925 -1.7572  0.9225  0.3989
29840SOL    HW2 1499   0.574   4.337   7.982  2.4658 -1.1731 -0.7707
29841SOL     OW 1500   8.143   9.251   0.614  0.3306 -0.2385  0.2107
29841SOL    HW1 1501   8.167   9.336   0.577  0.7068  0.6299  2.3023
29841SOL    HW2 1502   8.065   9.269   0.667 -0.0137 -1.3672  0.1202
29842SOL     OW 1503  10.056   1.609   8.020  0.1283 -0.0052 -0.5393
29842SOL    HW1 1504  10.083   1.596   7.930  0.5396  0.9523 -0.5687
29842SOL    HW2 1505  10.137   1.628   8.067 -0.1116 -0.2587 -0.0191
29843SOL     OW 1506   0.765   5.872   7.502  0.1367  0.2341 -0.4546
29843SOL    HW1 1507   0.795   5.938   7.565  0.4524  0.4738 -0.8533
29843SOL    HW2 1508   0.737   5.922   7.426 -0.0266 -0.0713 -0.5978
29844SOL     OW 1509   0.181   9.563   7.737  0.3061 -0.5134 -0.4497
29844SOL    HW1 1510   0.137   9.522   7.662 -0.7722  0.1061 -0.1807
29844SOL    HW2 1511   0.150   9.513   7.813 -0.0788  0.0317 -0.2412
29845SOL     OW 1512   7.068   8.967   4.902  0.5137 -0.1267 -0.0016
29845SOL    HW1 1513   7.054   8.932   4.814 -3.6301 -1.3841  0.9490
29845SOL    HW2 1514   7.123   9.045   4.889  0.4339 -0.5309 -3.5887
29846SOL     OW 1515   4.000   8.371   6.067 -0.3330  0.0149 -0.1628
29846SOL    HW1 1516   3.923   8.327   6.101  0.5514 -1.1817  0.3695
29846SOL    HW2 1517   3.980   8.387   5.975 -1.1766 -0.3702 -0.0504
29847SOL     OW 1518   9.383   6.467   5.832 -0.8690 -0.8206 -0.1604
29847SOL    HW1 1519   9.317   6.533   5.854  0.6951  0.3194  1.4426
29847SOL    HW2 1520   9.357   6.389   5.881 -1.9853 -0.9975 -0.9897
29848SOL     OW 1521  10.251   3.287   1.923 -0.2489  0.6928  0.9216
29848SOL    HW1 1522  10.307   3.226   1.972 -1.3225 -0.2099  1.0517
29848SOL    HW2 1523  10.210   3.233   1.856 -0.8893  1.3677  0.7629
29849SOL     OW 1524   9.403   9.668  10.315  0.4283  0.5300  0.1709
29849SOL    HW1 1525   9.407   9.654  10.410 -2.3504 -0.4845  0.2398
29849SOL    HW2 1526   9.366   9.587  10.281 -1.2163  1.8695 -1.4186
29850SOL     OW 1527   4.907   1.106   3.137  0.9273  0.3625  0.0859
29850SOL    HW1 1528   4.857   1.074   3.062  1.6905  0.2141 -0.3639
29850SOL    HW2 1529   4.843   1.110   3.208 -0.2474  2.1913 -0.9886
29851SOL     OW 1530   2.549   6.576   5.288 -0.4749 -1.0386  0.3370
29851SOL    HW1 1531   2.513   6.515   5.223  0.4284 -1.8059  0.5318
29851SOL    HW2 1532   2.602   6.520   5.346 -0.2503 -0.1729  0.9835
29852SOL     OW 1533  10.371   4.464   8.560 -0.0512 -0.1258  0.4058
29852SOL    HW1 1534  10.384   4.372   8.537  0.6161 -0.5013  2.1400
29852SOL    HW2 1535  10.283   4.468   8.597 -0.3465  0.0843 -0.2989
29853SOL     OW 1536  10.149   3.366   2.170  0.1067  0.0497  0.3668
29853SOL    HW1 1537  10.201   3.312   2.231  0.9755  1.0382  0.5259
29853SOL    HW2 1538  10.181   3.340   2.084 -0.0548 -0.2615  0.3966
29854SOL     OW 1539   2.769   7.082   5.152 -0.3020 -0.0085  0.1763
29854SOL    HW1 1540   2.823   7.053   5.226 -0.0585 -1.0275 -0.3743
29854SOL    HW2 1541   2.709   7.146   5.190 -1.1726 -1.5687  1.5961
29855SOL     OW 1542   0.345   4.526   4.035  0.5239 -0.6426 -0.2456
29855SOL    HW1 1543   0.430   4.557   4.065  0.3419  0.1184 -0.4881
29855SOL    HW2 1544   0.281   4.577   4.085  0.2174  0.5878 -1.7771
29856SOL     OW 1545   1.756   9.358  10.159  0.2228  0.1731 -0.3608
29856SOL    HW1 1546   1.687   9.302  10.196  1.5340 -1.0453  0.3542
29856SOL    HW2 1547   1.836   9.306  10.169  1.6408  2.4338  0.9115
29857SOL     OW 1548   1.810   5.072   3.483 -0.2877  0.3469  0.1096
29857SOL    HW1 1549   1.867   5.149   3.474 -0.0073  0.3305  1.5687
29857SOL    HW2 1550   1.777   5.077   3.572  1.0032 -2.0893  0.8085
29858SOL     OW 1551   0.292   6.441   3.459  0.2551 -0.4274 -0.6189
29858SOL    HW1 1552   0.384   6.449   3.484 -0.0465  0.5252  0.2453
29858SOL    HW2 1553   0.261   6.531   3.453 -0.7741 -0.7510 -0.2965
29859SOL     OW 1554   2.777   1.241   5.695  0.1131 -0.0005 -0.3082
29859SOL    HW1 1555   2.694   1.282   5.720 -0.0902 -0.5049 -0.1470
29859SOL    HW2 1556   2.842   1.309   5.711 -0.0269 -0.2382  1.4860
29860SOL     OW 1557   9.751   3.275  10.033 -0.4838  0.1982 -0.4232
29860SOL    HW1 1558   9.828   3.270  10.089  0.1930  1.9344 -1.1008
29860SOL    HW2 1559   9.737   3.186  10.003 -1.0810 -0.8699  2.6779
29861SOL     OW 1560  10.012   5.966   9.275  0.3545 -0.1517 -0.2981
29861SOL    HW1 1561   9.955   5.903   9.231 -0.4791  0.4799 -0.1233
29861SOL    HW2 1562  10.087   5.913   9.304 -0.2230 -1.0175 -0.3524
29862SOL     OW 1563   2.858   1.270   1.911 -0.0775 -0.6988  0.0377
29862SOL    HW1 1564   2.835   1.350   1.864 -1.4836  0.0421  1.8308
29862SOL    HW2 1565   2.947   1.250   1.884 -0.6678 -0.1255 -2.5774
29863SOL     OW 1566   5.161   4.345   6.767  0.2828 -0.2982  0.2534
29863SOL    HW1 1567   5.178   4.341   6.673  2.1127  0.8067  0.4930
29863SOL    HW2 1568   5.183   4.257   6.799 -0.8128 -0.8246 -0.3922
29864SOL     OW 1569   5.410   4.407   4.341  0.2628 -0.0422  0.1438
29864SOL    HW1 1570   5.325   4.448   4.348 -0.0247 -0.8660  1.9199
29864SOL    HW2 1571   5.394   4.326   4.292  0.8467  1.8104 -3.4455
29865SOL     OW 1572   4.796   1.280   0.168  0.4093 -0.0783 -0.1199
29865SOL    HW1 1573   4.765   1.201   0.124  0.3914 -0.5461  0.7011
29865SOL    HW2 1574   4.740   1.288   0.245  1.1762  0.0609  0.4409
29866SOL     OW 1575   4.049   9.449   2.806 -0.2536  0.2333 -0.7149
29866SOL    HW1 1576   4.044   9.383   2.875  0.4153  0.0204 -0.8582
29866SOL    HW2 1577   3.961   9.486   2.801 -0.6578 -0.7063 -0.6856
29867SOL     OW 1578   1.853   1.384   1.441 -0.2852  0.2944  0.4629
29867SOL    HW1 1579   1.772   1.389   1.492 -0.3091  0.0518  0.4504
29867SOL    HW2 1580   1.906   1.319   1.488 -1.2822 -1.8122 -1.1759
29868SOL     OW 1581   8.072   0.987   8.249  0.1229  0.3046 -0.7135
29868SOL    HW1 1582   8.025   1.010   8.169 -1.4370 -1.0139 -0.2182
29868SOL    HW2 1583   8.034   0.904   8.276  0.6990  0.6662  1.3515
29869SOL     OW 1584   4.308   4.828   1.284  0.0299 -0.8609 -0.2138
29869SOL    HW1 1585   4.343   4.758   1.340  0.0190  0.8816  2.1579
29869SOL    HW2 1586   4.218   4.802   1.268 -0.2272 -1.0354  1.3293
29870SOL     OW 1587   5.467   1.627   1.008 -0.1049 -0.1306 -0.0857
29870SOL    HW1 1588   5.520   1.661   1.080  0.3179  0.8295 -0.8260
29870SOL    HW2 1589   5.383   1.671   1.017 -0.3704 -0.7126  0.3544
29871SOL     OW 1590   1.554   1.482   3.712 -0.5309 -0.0149  0.6206
29871SOL    HW1 1591   1.527   1.570   3.740 -0.7776  1.0045 -2.4202
29871SOL    HW2 1592   1.517   1.423   3.778 -1.9911  2.0187  1.7242
29872SOL     OW 1593   0.089   9.730   1.291 -0.3403 -0.2077  0.3161
29872SOL    HW1 1594   0.098   9.772   1.205 -0.0434 -0.3409  0.2806
29872SOL    HW2 1595   0.179   9.711   1.318 -0.5005 -1.6377 -0.0752
29873SOL     OW 1596   1.666   9.122   9.064  0.4438 -0.1559 -0.0417
29873SOL    HW1 1597   1.666   9.218   9.063  0.1580 -0.1520 -0.7610
29873SOL    HW2 1598   1.727   9.098   8.994  1.2063 -0.5140  0.7232
29874SOL     OW 1599   7.850  10.110   9.197  0.0475  0.0678  0.2382
29874SOL    HW1 1600   7.827  10.202   9.215  0.9059 -0.0954  2.4316
29874SOL    HW2 1601   7.798  10.088   9.120 -1.2510  1.9781  0.4822
29875SOL     OW 1602   2.674   5.683   8.450  0.6006  0.6787 -0.1597
29875SOL    HW1 1603   2.598   5.727   8.412  1.1263  2.1261  0.3882
29875SOL    HW2 1604   2.665   5.697   8.545  2.0371  1.7621 -0.1384
29876SOL     OW 1605   2.256   5.048   6.040 -0.2961  0.3072  0.1637
29876SOL    HW1 1606   2.215   4.964   6.022 -0.9360  0.7804 -0.6430
29876SOL    HW2 1607   2.282   5.043   6.132 -1.1971 -0.3961  0.3887
29877SOL     OW 1608   7.309   0.033   5.829 -0.1210  0.3764 -0.0882
29877SOL    HW1 1609   7.263   0.077   5.901  0.0328 -1.8692  1.4796
29877SOL    HW2 1610   7.374  -0.022   5.872  1.6320  0.7638 -2.1127
29878SOL     OW 1611   5.023   9.314   0.228  0.3837 -0.2502 -0.8626
29878SOL    HW1 1612   4.962   9.242   0.242 -0.3318  0.0773 -2.1797
29878SOL    HW2 1613   5.045   9.344   0.316 -2.9019  0.9337 -0.3118
29879SOL     OW 1614   8.777   6.860   6.026  0.2041  0.6350  0.0507
29879SOL    HW1 1615   8.700   6.917   6.021 -0.4903 -0.3774 -1.3139
29879SOL    HW2 1616   8.821   6.871   5.942  0.3922 -0.3847  0.0071
29880SOL     OW 1617   7.411   2.214   9.068 -0.0582  0.1723 -0.1001
29880SOL    HW1 1618   7.460   2.235   8.989 -1.2564 -1.4705 -1.3520
29880SOL    HW2 1619   7.414   2.119   9.074 -0.8127  0.2032  1.2907
29881SOL     OW 1620   6.072   0.620   1.043 -0.1244  0.5202 -0.4113
29881SOL    HW1 1621   6.123   0.575   1.111 -1.2517  0.5326  0.4944
29881SOL    HW2 1622   6.057   0.553   0.976 -0.3287  0.0236  0.1155
29882SOL     OW 1623   0.539   5.059   2.300 -0.0136 -0.0644 -0.1067
29882SOL    HW1 1624   0.624   5.015   2.298 -1.7043 -3.6939 -0.0937
29882SOL    HW2 1625   0.496   5.026   2.379 -2.5236 -0.7269 -1.6242
29883SOL     OW 1626   3.481   2.101   1.310 -0.4657  0.3142  0.1279
29883SOL    HW1 1627   3.494   2.024   1.254 -0.4484 -0.8552  1.6369
29883SOL    HW2 1628   3.404   2.144   1.275 -1.2094 -1.0964 -0.0613
29884SOL     OW 1629   2.880   7.661   4.786 -0.0538  0.2989 -0.3392
29884SOL    HW1 1630   2.947   7.635   4.722 -1.6014 -1.6495 -1.2591
29884SOL    HW2 1631   2.915   7.741   4.825  1.7493  0.6298 -2.4144
29885SOL     OW 1632   6.969   9.033   5.985 -0.0708  0.3215 -0.4287
29885SOL    HW1 1633   7.052   9.067   6.017  0.3939  0.4027 -1.6547
29885SOL    HW2 1634   6.907   9.105   5.997 -0.5701 -0.4955  2.6410
29886SOL     OW 1635   0.106   8.225   6.472  0.6400  0.2469  0.2820
29886SOL    HW1 1636   0.112   8.170   6.394 -2.5073 -1.0707  0.7993
29886SOL    HW2 1637   0.162   8.182   6.536 -0.4067 -1.4531  0.1309
29887SOL     OW 1638   3.836   3.002   3.179  0.2381  0.1686 -0.6061
29887SOL    HW1 1639   3.759   2.956   3.213  1.0620 -1.0312 -0.2851
29887SOL    HW2 1640   3.837   2.982   3.086  1.3055 -1.6553 -0.2692
29888SOL     OW 1641   0.497   5.897   2.941  0.2259  0.0753  0.0266
29888SOL    HW1 1642   0.500   5.803   2.956  1.5102  0.2130  0.7367
29888SOL    HW2 1643   0.522   5.936   3.025 -1.5392  1.0994  0.1374
29889SOL     OW 1644   9.528   7.929  10.251 -0.7621  0.0550  0.0628
29889SOL    HW1 1645   9.559   7.890  10.333  2.1473  1.1957 -0.3523
29889SOL    HW2 1646   9.561   7.871  10.183 -0.4047  0.7538 -0.3765
29890SOL     OW 1647   4.213  10.075   4.358 -0.0608 -0.7443 -0.3007
29890SOL    HW1 1648   4.306  10.065   4.381 -0.1106 -0.1012  0.2099
29890SOL    HW2 1649   4.214  10.094   4.264  0.3010 -1.0386 -0.3624
29891SOL     OW 1650   9.358   5.808   6.998 -0.3078 -0.4910  0.2242
29891SOL    HW1 1651   9.407   5.728   7.017  0.0230 -0.4220 -0.3357
29891SOL    HW2 1652   9.395   5.840   6.916 -0.4779  0.2085  0.4212
29892SOL     OW 1653   7.520   8.951   7.707 -0.1394 -0.2942  0.5925
29892SOL    HW1 1654   7.454   8.883   7.721 -1.6543  0.8075 -0.7361
29892SOL    HW2 1655   7.575   8.948   7.785 -2.7770 -0.1924  2.6013
29893SOL     OW 1656   3.093   2.790   0.881  0.4742 -0.3976 -0.2417
29893SOL    HW1 1657   3.089   2.694   0.888 -0.6027 -0.2712  1.1989
29893SOL    HW2 1658   3.146   2.817   0.955 -1.8548  0.2923  1.2602
29894SOL     OW 1659   8.642   9.708   8.593  0.5597 -0.5180  0.0198
29894SOL    HW1 1660   8.647   9.649   8.518 -0.6244  0.6645 -1.0505
29894SOL    HW2 1661   8.622   9.651   8.667  0.6718 -1.5901 -0.7479
29895SOL     OW 1662   6.227   9.025   3.382 -0.2700  0.5554 -0.0162
29895SOL    HW1 1663   6.270   9.041   3.298  1.5664  1.0620  0.9519
29895SOL    HW2 1664   6.206   8.932   3.381  0.0759  0.4765 -0.8843
29896SOL     OW 1665   0.257   9.755   8.266 -0.3394  0.7385 -0.0078
29896SOL    HW1 1666   0.263   9.717   8.178  1.1009 -0.1596  0.4470
29896SOL    HW2 1667   0.329   9.818   8.269  0.8207 -0.5643  1.1074
29897SOL     OW 1668   8.669   1.771   8.891  0.0744  0.4041  0.4323
29897SOL    HW1 1669   8.710   1.727   8.817  0.8685  2.4390 -0.3848
29897SOL    HW2 1670   8.735   1.768   8.960 -0.0477 -0.0368  0.5373
29898SOL     OW 1671   3.122   2.858   6.385 -0.1575  0.0151 -0.1229
29898SOL    HW1 1672   3.135   2.815   6.469 -1.5793 -1.0781 -0.4170
29898SOL    HW2 1673   3.199   2.835   6.333 -0.5878 -1.6805 -0.0548
29899SOL     OW 1674   1.089   3.632   6.296  0.0864  0.2388 -0.2442
29899SOL    HW1 1675   1.126   3.600   6.378  0.2213 -1.0520 -0.7946
29899SOL    HW2 1676   1.164   3.663   6.245 -0.1316  2.4264  0.6721
29900SOL     OW 1677   0.724  10.064   7.248 -0.6342  0.0621 -0.2089
29900SOL    HW1 1678   0.636  10.102   7.251 -0.3348  0.7337  0.0577
29900SOL    HW2 1679   0.780  10.134   7.216 -0.1880 -0.3707 -0.3956
29901SOL     OW 1680   9.638   1.925   2.310 -0.6662  0.3829 -0.2914
29901SOL    HW1 1681   9.676   1.894   2.228 -0.1090  0.5603 -0.1060
29901SOL    HW2 1682   9.702   1.900   2.377 -1.1653  0.1493  0.1016
29902SOL     OW 1683   4.652   9.980   0.373  0.2362 -0.4304  0.0815
29902SOL    HW1 1684   4.562  10.011   0.385 -0.0099 -1.0082 -0.2303
29902SOL    HW2 1685   4.696  10.004   0.454 -0.4433 -0.9641  0.6278
29903SOL     OW 1686   2.442   4.740   6.397 -0.3054  0.5086 -0.5133
29903SOL    HW1 1687   2.444   4.685   6.474 -1.3107 -1.2970 -1.7092
29903SOL    HW2 1688   2.531   4.738   6.363 -0.4264 -0.7743 -0.7859
29904SOL     OW 1689   8.908   5.933   9.901  0.3219  0.3658 -0.3557
29904SOL    HW1 1690   8.819   5.899   9.898  1.3521 -2.6622 -0.9641
29904SOL    HW2 1691   8.921   5.975   9.816  0.3931 -2.1188 -1.6716
29905SOL     OW 1692   7.971   6.775   6.304  1.0174  0.5016  0.3604
29905SOL    HW1 1693   8.026   6.717   6.252  0.5705 -0.7198  1.2223
29905SOL    HW2 1694   7.911   6.815   6.241  0.1624 -1.3068 -0.0125
29906SOL     OW 1695   8.808   7.767   5.347 -0.0717 -0.4806 -0.3705
29906SOL    HW1 1696   8.726   7.815   5.341 -0.4771 -1.3247 -2.7840
29906SOL    HW2 1697   8.875   7.835   5.354 -0.8340  0.3049 -0.5519
29907SOL     OW 1698   1.788   2.849   0.479  0.1546 -0.1085  0.2368
29907SOL    HW1 1699   1.858   2.784   0.474  0.1423 -0.1264  0.2862
29907SOL    HW2 1700   1.775   2.878   0.389  1.1914  0.9277  0.4078
29908SOL     OW 1701   7.377   1.766   5.857 -0.1934  0.3345  0.3166
29908SOL    HW1 1702   7.471   1.746   5.854  0.0276  1.4264 -0.3578
29908SOL    HW2 1703   7.340   1.699   5.915  0.7424 -1.0988 -0.6804
29909SOL     OW 1704   4.366   7.298   1.731  0.5548 -0.2267  0.5142
29909SOL    HW1 1705   4.417   7.255   1.799  0.3531  2.0613  2.2204
29909SOL    HW2 1706   4.421   7.370   1.701  0.0318 -0.3117 -0.7175
29910SOL     OW 1707   5.387   0.258   1.683  0.0107  0.3274  0.1311
29910SOL    HW1 1708   5.464   0.217   1.642  0.4524  0.7806  0.4982
29910SOL    HW2 1709   5.399   0.352   1.670 -0.2980  0.4242  0.5112
29911SOL     OW 1710   4.391   4.132   5.585 -0.2415 -1.0702  0.0115
29911SOL    HW1 1711   4.363   4.221   5.603 -1.1432 -1.6887  2.0764
29911SOL    HW2 1712   4.462   4.117   5.647 -1.5807 -2.4425  1.3097
29912SOL     OW 1713   8.388   4.235   7.258  0.3062  0.4587 -0.0982
29912SOL    HW1 1714   8.462   4.212   7.202 -0.5575  0.8546 -1.4563
29912SOL    HW2 1715   8.326   4.162   7.247  0.6169 -0.0581  1.3218
29913SOL     OW 1716   5.136   9.194   8.791 -0.2702  0.4763 -0.2877
29913SOL    HW1 1717   5.166   9.133   8.859  0.9666  1.2854 -0.0657
29913SOL    HW2 1718   5.181   9.165   8.712 -1.0289  0.0662 -0.5730
29914SOL     OW 1719   0.021   7.367   6.559 -0.0028 -0.1976  0.0539
29914SOL    HW1 1720  -0.057   7.314   6.548 -0.5275 -0.0081  2.4690
29914SOL    HW2 1721   0.001   7.449   6.514 -1.3382 -0.0445  0.8787
29915SOL     OW 1722   2.423   7.026   4.529  0.1743  0.3450  0.1910
29915SOL    HW1 1723   2.505   7.014   4.480 -0.6977 -0.2306 -1.1978
29915SOL    HW2 1724   2.382   6.939   4.528 -0.4031  0.6030  0.9559
29916SOL     OW 1725   9.031   0.626   1.247 -0.3303 -0.1340 -0.3006
29916SOL    HW1 1726   9.116   0.653   1.280 -0.9055  0.9945  0.3283
29916SOL    HW2 1727   9.044   0.613   1.153  0.2456  1.2528 -0.4253
29917SOL     OW 1728   8.221   7.166   8.149 -0.3173  0.2641  0.4442
29917SOL    HW1 1729   8.216   7.071   8.157  1.2612  0.1609  0.7454
29917SOL    HW2 1730   8.305   7.182   8.105 -1.8597  1.4511 -2.3163
29918SOL     OW 1731   2.509   4.997   6.981  0.8850  0.1070 -0.3258
29918SOL    HW1 1732   2.576   5.054   6.942  0.1980  0.3052 -1.2579
29918SOL    HW2 1733   2.549   4.965   7.062  2.0501  0.3269 -0.7913
29919SOL     OW 1734   8.209   8.985   0.753  0.1138 -0.2731 -0.1401
29919SOL    HW1 1735   8.216   9.072   0.713  1.1002 -0.4631 -0.4110
29919SOL    HW2 1736   8.273   8.932   0.706 -0.4570 -1.1495  0.0420
29920SOL     OW 1737   7.564   3.581   2.650 -0.4379  0.1906 -0.0076
29920SOL    HW1 1738   7.564   3.577   2.554  0.3411 -0.0392 -0.0070
29920SOL    HW2 1739   7.512   3.505   2.676  1.6388 -1.4389 -0.2449
29921SOL     OW 1740   6.817   3.338   2.104  0.0327 -0.0163 -0.5137
29921SOL    HW1 1741   6.798   3.259   2.156  0.0108  0.0731 -0.3867
29921SOL    HW2 1742   6.801   3.411   2.164  0.6090  0.0694 -0.4532
29922SOL     OW 1743   0.720   3.325   6.477  1.0814 -0.2349 -0.1248
29922SOL    HW1 1744   0.659   3.394   6.501  1.5462  0.5076 -1.0205
29922SOL    HW2 1745   0.665   3.247   6.467 -0.0003  0.7125 -2.3431
29923SOL     OW 1746   6.134   0.338   1.870 -0.0496  0.1755 -0.0325
29923SOL    HW1 1747   6.197   0.319   1.940  0.7957  0.3209 -0.7408
29923SOL    HW2 1748   6.188   0.356   1.793 -0.9593  0.4064 -0.6320
29924SOL     OW 1749   6.689  10.380   8.539 -0.1587  0.3350  0.5282
29924SOL    HW1 1750   6.739  10.426   8.607 -0.0109  1.5495 -0.3556
29924SOL    HW2 1751   6.673  10.447   8.473 -1.1854 -0.5689 -0.1605
29925SOL     OW 1752   1.142   7.234   4.063 -0.4655  0.3754 -0.2829
29925SOL    HW1 1753   1.051   7.259   4.080 -1.4796 -3.0144  0.1098
29925SOL    HW2 1754   1.136   7.168   3.994  1.9948  1.7860 -1.9736
29926SOL     OW 1755   2.320   2.370   5.040 -0.0359 -0.0711 -1.9163
29926SOL    HW1 1756   2.338   2.306   5.110  0.8719  1.5377 -0.6072
29926SOL    HW2 1757   2.225   2.368   5.030 -0.6757  1.9370  1.7862
29927SOL     OW 1758   1.882   7.850   1.119  0.4384 -0.5446 -0.2948
29927SOL    HW1 1759   1.792   7.832   1.148  0.4284  0.4692  0.3201
29927SOL    HW2 1760   1.890   7.800   1.037 -1.3585  0.9201 -1.4514
29928SOL     OW 1761   9.564   0.030   3.537  0.0363 -0.1831 -0.9682
29928SOL    HW1 1762   9.499  -0.039   3.536  2.8810 -3.1338 -0.0007
29928SOL    HW2 1763   9.619   0.014   3.460  1.4761  0.1835 -0.0719
29929SOL     OW 1764   6.368   7.206   0.007  0.1556  0.2505  0.2890
29929SOL    HW1 1765   6.389   7.297   0.028  2.8037 -0.1558 -0.1727
29929SOL    HW2 1766   6.422   7.155   0.067  2.0353 -0.9332 -2.2320
29930SOL     OW 1767   0.940   5.753   8.765  0.9080 -0.1704 -0.0068
29930SOL    HW1 1768   0.875   5.751   8.695 -0.3270 -1.6886  1.1224
29930SOL    HW2 1769   1.018   5.714   8.726  0.5841 -0.0195 -0.8354
29931SOL     OW 1770   0.550   1.545   3.271  0.2732 -0.3618 -0.2326
29931SOL    HW1 1771   0.558   1.584   3.359  2.0019  0.1956 -0.5919
29931SOL    HW2 1772   0.458   1.558   3.248 -0.4183 -1.2241  1.7944
29932SOL     OW 1773  10.095   6.886   5.973  0.3547 -0.2109  0.2201
29932SOL    HW1 1774  10.127   6.822   6.036  0.1635  0.0541  0.5938
29932SOL    HW2 1775  10.174   6.928   5.939  0.6784 -2.3500 -1.9185
29933SOL     OW 1776   5.773   4.137   8.489  0.2664  0.1369 -0.4668
29933SOL    HW1 1777   5.783   4.228   8.516 -1.1399 -0.3960  2.2052
29933SOL    HW2 1778   5.705   4.139   8.422  1.1891  1.1400 -1.4120
29934SOL     OW 1779   6.653   9.746   8.139  0.0607  0.6140  0.0551
29934SOL    HW1 1780   6.619   9.834   8.156  0.2029  1.3849 -3.0176
29934SOL    HW2 1781   6.589   9.706   8.081  0.5666 -0.9002  0.4989
29935SOL     OW 1782   4.149   9.255   9.234  0.4288  0.2468 -0.6910
29935SOL    HW1 1783   4.218   9.204   9.190  0.0395 -1.8604  0.9416
29935SOL    HW2 1784   4.195   9.330   9.271  1.0746  1.0940 -3.0553
29936SOL     OW 1785   3.859   1.733   5.601 -0.8862  0.1633  0.5386
29936SOL    HW1 1786   3.763   1.726   5.599 -0.8373 -0.4744 -0.0490
29936SOL    HW2 1787   3.889   1.644   5.618 -0.3853  0.2023 -0.0864
29937SOL     OW 1788   1.372   6.916   2.256  0.2996  0.1202  0.7129
29937SOL    HW1 1789   1.294   6.969   2.272  1.5121  2.7042 -1.1544
29937SOL    HW2 1790   1.342   6.844   2.201 -0.4683  2.6865 -2.5320
29938SOL     OW 1791   0.696   0.797   5.760 -0.5528 -0.2635 -0.0636
29938SOL    HW1 1792   0.641   0.824   5.833 -0.9157  0.3978 -0.5725
29938SOL    HW2 1793   0.778   0.770   5.801 -1.8566 -3.1976  0.9026
29939SOL     OW 1794   8.803   2.397   4.271  0.8106 -0.1921  0.3708
29939SOL    HW1 1795   8.787   2.491   4.274 -0.4238 -0.4022  1.2617
29939SOL    HW2 1796   8.718   2.358   4.294  1.3624 -1.5142  0.2378
29940SOL     OW 1797   4.431   3.247   7.057  0.3270 -0.5324 -0.2147
29940SOL    HW1 1798   4.465   3.325   7.101 -1.6119 -0.1803  0.7391
29940SOL    HW2 1799   4.451   3.175   7.117  3.3518 -1.0956 -1.6974
29941SOL     OW 1800   2.254   8.365   7.690  0.1619  0.4729 -0.5019
29941SOL    HW1 1801   2.230   8.456   7.672  0.9054  0.6497 -0.6383
29941SOL    HW2 1802   2.173   8.323   7.719  0.0417  1.4673  0.6935
29942SOL     OW 1803   6.737   0.470   1.944  0.1465  0.2207  0.6913
29942SOL    HW1 1804   6.768   0.537   2.005  0.5059  2.5640 -1.9043
29942SOL    HW2 1805   6.811   0.455   1.885 -1.0612  0.0816 -0.8559
29943SOL     OW 1806   1.493   0.702   6.648  0.3440  1.2175  0.0724
29943SOL    HW1 1807   1.500   0.607   6.658 -0.2540  1.2978  1.6066
29943SOL    HW2 1808   1.416   0.726   6.700  2.6274  2.9549  2.9528
29944SOL     OW 1809   7.299   4.652   1.028  0.8883  0.0855 -0.3376
29944SOL    HW1 1810   7.331   4.608   0.950  1.4856 -1.9801  1.0027
29944SOL    HW2 1811   7.323   4.594   1.100  1.0972  2.3061  1.4866
29945SOL     OW 1812   5.772   7.417   5.610 -0.0260  0.2362 -0.3465
29945SOL    HW1 1813   5.851   7.469   5.594  0.2151 -0.1760 -0.5198
29945SOL    HW2 1814   5.702   7.467   5.569  0.2213  0.3712 -0.6070
29946SOL     OW 1815  10.137   9.168   8.252  0.5170  0.2896  0.9085
29946SOL    HW1 1816  10.206   9.104   8.238 -2.0724 -2.0067 -3.5551
29946SOL    HW2 1817  10.163   9.243   8.198 -0.5388 -0.7983 -1.2336
29947SOL     OW 1818   7.355   8.202   5.455 -0.0168 -0.2934 -0.3162
29947SOL    HW1 1819   7.378   8.290   5.426 -1.4461  0.8028  1.5581
29947SOL    HW2 1820   7.373   8.146   5.380  2.0647  1.3942 -1.1823
29948SOL     OW 1821   9.476   1.010   9.653  0.0547 -0.3711 -0.2275
29948SOL    HW1 1822   9.425   0.963   9.719  0.4424  0.7413  0.9048
29948SOL    HW2 1823   9.411   1.038   9.588  0.0127 -3.8970 -1.9320
29949SOL     OW 1824   4.493  10.105   6.984 -0.0297  0.1232  0.1026
29949SOL    HW1 1825   4.567  10.103   7.044  0.5903 -2.0201 -0.6486
29949SOL    HW2 1826   4.511  10.178   6.926  0.8652  0.3779  0.6879
29950SOL     OW 1827   1.084   6.164   4.543 -0.1712 -0.2412  0.1200
29950SOL    HW1 1828   1.179   6.152   4.531 -0.3456  0.0175 -1.9076
29950SOL    HW2 1829   1.077   6.230   4.612  1.0663 -1.5639  1.5896
29951SOL     OW 1830   3.095   6.714   9.178  0.4885 -0.7492 -0.2744
29951SOL    HW1 1831   3.066   6.634   9.134 -1.4728  0.2950 -0.9966
29951SOL    HW2 1832   3.118   6.774   9.106  2.6310 -0.8297  0.2626
29952SOL     OW 1833   0.517   1.088   6.518  0.7366  0.2680 -0.1606
29952SOL    HW1 1834   0.475   1.093   6.604  2.2564 -0.3569  0.6629
29952SOL    HW2 1835   0.563   1.172   6.509  2.0279 -0.3437  0.4617
29953SOL     OW 1836   0.543   1.562   8.220 -0.1502 -0.3317  0.6253
29953SOL    HW1 1837   0.457   1.594   8.193  0.2072  0.4002  0.3161
29953SOL    HW2 1838   0.525   1.497   8.287 -0.9487 -0.2545  0.4921
29954SOL     OW 1839   5.156   8.360   1.871 -0.1335 -0.0925 -0.1865
29954SOL    HW1 1840   5.176   8.327   1.783 -0.9061  0.1484 -0.4682
29954SOL    HW2 1841   5.241   8.381   1.909  0.3106 -1.4772 -0.3644
29955SOL     OW 1842   5.475   6.758   4.368 -0.2762 -0.2267 -0.3392
29955SOL    HW1 1843   5.496   6.829   4.307  1.2729  0.3465  0.7641
29955SOL    HW2 1844   5.402   6.792   4.420  0.6079  0.7276  0.3438
29956SOL     OW 1845   0.718   0.762   4.206  0.3297  0.7487  0.1091
29956SOL    HW1 1846   0.738   0.786   4.115 -0.4375 -0.5700 -0.4367
29956SOL    HW2 1847   0.800   0.724   4.238 -0.2336 -1.7347 -1.1124
29957SOL     OW 1848   9.917   6.819   0.628 -0.2525  0.5476  0.6827
29957SOL    HW1 1849   9.935   6.786   0.716  0.5185  1.8693  1.0545
29957SOL    HW2 1850  10.003   6.834   0.590 -0.5554  2.0388  0.5302
29958SOL     OW 1851   4.953   9.124   5.726  0.0494  0.4092 -0.2240
29958SOL    HW1 1852   5.032   9.164   5.690  0.2342  0.3317  0.0863
29958SOL    HW2 1853   4.954   9.149   5.819  1.3475 -2.1048  0.5262
29959SOL     OW 1854   9.409   4.581  10.053  0.4950 -0.0758  0.8939
29959SOL    HW1 1855   9.378   4.587   9.963 -0.0785 -1.9989  0.9162
29959SOL    HW2 1856   9.502   4.603  10.049  0.3643  0.3463 -0.0601
29960SOL     OW 1857   4.545   7.428   3.127 -0.3919 -0.0144 -0.4301
29960SOL    HW1 1858   4.482   7.388   3.187 -1.2178  0.5505 -0.9123
29960SOL    HW2 1859   4.546   7.370   3.051  1.3932 -1.2844  0.4799
29961SOL     OW 1860   6.565   9.641   1.680 -0.8197  0.0616 -0.0718
29961SOL    HW1 1861   6.490   9.585   1.700 -1.0965  0.8389  1.1402
29961SOL    HW2 1862   6.549   9.722   1.729  1.1041  0.0002  0.7576
29962SOL     OW 1863   9.168   5.798   6.285 -0.8633 -0.0510  0.4976
29962SOL    HW1 1864   9.186   5.731   6.219  0.3738  0.4204  0.3419
29962SOL    HW2 1865   9.217   5.874   6.256  1.5206 -0.4585  3.0538
29963SOL     OW 1866   5.542   4.190   9.473 -0.4418 -0.2879 -0.0672
29963SOL    HW1 1867   5.608   4.201   9.404  0.1508 -1.3725  0.3075
29963SOL    HW2 1868   5.524   4.280   9.503  0.7398  0.0421 -0.2847
29964SOL     OW 1869   4.764   4.410  10.221 -0.4841 -0.6595  0.4912
29964SOL    HW1 1870   4.692   4.473  10.215 -1.3946 -1.7478 -0.4973
29964SOL    HW2 1871   4.830   4.442  10.159  0.6835  1.2379  2.5540
29965SOL     OW 1872   9.936   9.831   1.115 -0.4797  0.1272 -0.4921
29965SOL    HW1 1873   9.970   9.799   1.198 -1.7598  1.4195  0.5739
29965SOL    HW2 1874   9.882   9.759   1.082 -0.2842 -0.2421 -0.0133
29966SOL     OW 1875   0.136   3.116   0.836  0.1821 -0.1819 -0.1569
29966SOL    HW1 1876   0.089   3.067   0.903  0.5340  1.1944  1.1595
29966SOL    HW2 1877   0.090   3.097   0.754 -2.0942  0.3715  0.9270
29967SOL     OW 1878   2.232   1.203   4.086 -0.2153 -0.0128 -0.7685
29967SOL    HW1 1879   2.167   1.133   4.091  0.4647 -0.6229 -0.2875
29967SOL    HW2 1880   2.216   1.245   4.002 -0.8305 -0.5462 -0.9242
29968SOL     OW 1881  10.086   4.361   3.560  0.1599  0.4915  0.6613
29968SOL    HW1 1882   9.994   4.385   3.575 -0.1157  0.4732 -0.8708
29968SOL    HW2 1883  10.127   4.442   3.529  0.0032 -0.1242 -1.2842
29969SOL     OW 1884   3.520   0.829   6.416  0.2046 -0.1715  0.3227
29969SOL    HW1 1885   3.521   0.923   6.398 -0.7978 -0.1962  0.0874
29969SOL    HW2 1886   3.442   0.815   6.469 -1.0150 -1.1918 -1.6121
29970SOL     OW 1887   0.346   8.143   4.196  0.1773 -0.0576  0.1435
29970SOL    HW1 1888   0.369   8.189   4.277  2.1747  0.8550 -0.8668
29970SOL    HW2 1889   0.405   8.067   4.194  1.6344  1.0305 -1.3698
29971SOL     OW 1890   1.803   1.994   0.229 -0.0865  0.4623  0.0860
29971SOL    HW1 1891   1.727   2.037   0.190 -0.5036 -0.8772 -0.6481
29971SOL    HW2 1892   1.775   1.903   0.243  0.5635  0.5160  2.1221
29972SOL     OW 1893  10.128   7.620   3.002 -0.1262 -0.0109  0.7436
29972SOL    HW1 1894  10.157   7.710   3.020  0.2288  0.0795 -0.2445
29972SOL    HW2 1895  10.208   7.570   2.992 -0.3223 -0.3279  0.7565
29973SOL     OW 1896   1.595  10.215   0.243 -1.1412 -0.5123 -0.0469
29973SOL    HW1 1897   1.671  10.159   0.224  0.1878  1.3816 -0.6491
29973SOL    HW2 1898   1.623  10.302   0.214 -2.6504  0.7048  1.9915
29974SOL     OW 1899   8.276   4.034   5.748 -0.2232 -0.4938 -0.0613
29974SOL    HW1 1900   8.320   4.119   5.739  0.1625 -0.5841  0.8928
29974SOL    HW2 1901   8.268   4.021   5.843  0.3849 -1.8550 -0.1671
29975SOL     OW 1902   5.415   7.177   2.705  0.2992  0.3486  0.7521
29975SOL    HW1 1903   5.442   7.249   2.648  2.6590 -0.6891  0.4652
29975SOL    HW2 1904   5.388   7.220   2.787  1.5667  1.5703  0.5522
29976SOL     OW 1905   1.290   8.371   0.070 -0.2231 -0.2571  0.1669
29976SOL    HW1 1906   1.214   8.382   0.128  0.2115  2.1975  0.3697
29976SOL    HW2 1907   1.258   8.401  -0.015 -0.0324 -1.1100 -0.2088
29977SOL     OW 1908   4.106   6.010   0.047 -0.1398  0.2743  0.2269
29977SOL    HW1 1909   4.025   6.051   0.015  0.1621 -0.2112 -1.2480
29977SOL    HW2 1910   4.155   5.990  -0.032  0.8901 -0.5580  1.0499
29978SOL     OW 1911   8.945  10.325   7.235 -0.2703  0.3166 -0.9539
29978SOL    HW1 1912   8.953  10.310   7.329 -1.2021  1.5812 -0.6328
29978SOL    HW2 1913   8.922  10.240   7.198  0.6892 -0.3224 -0.1350
29979SOL     OW 1914   9.680   8.677   0.099  0.0622 -0.2214  0.2957
29979SOL    HW1 1915   9.691   8.685   0.194  1.5671  0.1321  0.1070
29979SOL    HW2 1916   9.586   8.687   0.086 -0.0112  1.2408  1.6159
29980SOL     OW 1917   7.062   8.495   4.918 -0.1735  0.3443 -0.5466
29980SOL    HW1 1918   7.078   8.415   4.967  0.9612  0.7166 -0.2853
29980SOL    HW2 1919   7.133   8.554   4.943 -1.2414  1.6090 -0.3827
29981SOL     OW 1920   0.533   0.066   4.870  0.3552  0.2578 -0.0566
29981SOL    HW1 1921   0.571   0.024   4.793 -4.5244 -0.1233 -2.6804
29981SOL    HW2 1922   0.524   0.158   4.846 -2.7524 -0.1416 -0.9388
29982SOL     OW 1923   6.513   4.925   5.543  0.3270 -0.0310  0.1752
29982SOL    HW1 1924   6.551   5.004   5.503  0.9778 -0.3160  0.2182
29982SOL    HW2 1925   6.585   4.887   5.594  0.5387 -1.6025 -1.2339
29983SOL     OW 1926   4.712   9.884   3.890  0.2246 -0.3681 -0.2921
29983SOL    HW1 1927   4.652   9.850   3.825 -0.8709  0.2984  0.3365
29983SOL    HW2 1928   4.752   9.961   3.848 -0.1103 -0.2277 -0.3533
29984SOL     OW 1929   0.669   3.871   9.987 -0.8957  0.3045  0.7031
29984SOL    HW1 1930   0.610   3.863   9.912 -0.2315 -1.9031  0.3447
29984SOL    HW2 1931   0.752   3.900   9.949 -1.2273  1.6135  0.9516
29985SOL     OW 1932   6.375   1.544   8.468 -0.2852 -0.3246  0.2095
29985SOL    HW1 1933   6.403   1.483   8.399 -0.8770 -0.5863  0.1933
29985SOL    HW2 1934   6.284   1.519   8.486 -1.7467  2.5907 -2.1027
29986SOL     OW 1935   9.291   4.563   9.809 -0.7327 -0.3616 -0.6213
29986SOL    HW1 1936   9.200   4.591   9.796 -0.2743  0.2503 -3.1553
29986SOL    HW2 1937   9.340   4.609   9.741  1.2488 -1.7843 -0.2593
29987SOL     OW 1938   4.348   8.660   8.204 -0.0313  0.1186 -0.0649
29987SOL    HW1 1939   4.271   8.709   8.174  0.5525  0.4582 -1.0838
29987SOL    HW2 1940   4.363   8.595   8.134  1.0293  0.5387 -0.2416
29988SOL     OW 1941   8.435   1.607   6.238  0.3407 -0.2624 -0.2038
29988SOL    HW1 1942   8.423   1.546   6.165 -1.8834  0.6746 -0.7033
29988SOL    HW2 1943   8.360   1.666   6.232  2.3747  2.5645  0.2483
29989SOL     OW 1944   3.811   9.985   5.032 -0.2484  0.0702  0.1666
29989SOL    HW1 1945   3.804  10.063   5.087 -0.8716 -0.2579  0.5630
29989SOL    HW2 1946   3.880   9.932   5.074 -0.9653 -0.3409  0.8463
29990SOL     OW 1947   1.148   5.114  10.207 -0.4725  0.0588  0.8752
29990SOL    HW1 1948   1.111   5.197  10.175 -1.2596 -0.6258 -0.0568
29990SOL    HW2 1949   1.072   5.062  10.232 -0.2314 -1.4385 -1.2082
29991SOL     OW 1950   7.746   5.771   2.619 -0.3206  0.1452 -0.1454
29991SOL    HW1 1951   7.660   5.759   2.659 -1.5754  0.0687 -2.6671
29991SOL    HW2 1952   7.731   5.832   2.548  1.2712 -1.3832 -1.9046
29992SOL     OW 1953   2.164   6.433   2.141  0.6067 -0.3841 -0.0635
29992SOL    HW1 1954   2.100   6.425   2.071  0.6294 -1.4881  0.0179
29992SOL    HW2 1955   2.132   6.504   2.196 -1.0018 -1.4532  0.4318
29993SOL     OW 1956   5.100   4.256   4.988  0.1045  0.2885  0.7915
29993SOL    HW1 1957   5.063   4.310   4.917 -0.4634  0.6944  1.3890
29993SOL    HW2 1958   5.127   4.319   5.054  1.6375 -0.0154  0.5007
29994SOL     OW 1959   5.463   4.707   5.360  0.1785 -1.0884  0.0256
29994SOL    HW1 1960   5.496   4.702   5.271 -0.8728  1.8277 -0.6243
29994SOL    HW2 1961   5.376   4.665   5.355 -1.1293  1.5494 -1.1053
29995SOL     OW 1962   1.583   3.315   3.503  0.3782  0.1786  0.2564
29995SOL    HW1 1963   1.561   3.405   3.529  0.8784  0.8958 -1.6325
29995SOL    HW2 1964   1.526   3.298   3.428  1.2875 -0.5677 -0.2734
29996SOL     OW 1965   2.716   9.658   1.762 -0.2188 -0.5457  0.3599
29996SOL    HW1 1966   2.694   9.681   1.672 -1.6859 -2.2650  0.2298
29996SOL    HW2 1967   2.641   9.687   1.814 -1.1110 -2.7728  0.4705
29997SOL     OW 1968   9.264   4.150   8.017 -0.7482 -0.0278 -0.6338
29997SOL    HW1 1969   9.231   4.144   7.927 -0.9618 -1.1892 -0.4947
29997SOL    HW2 1970   9.185   4.150   8.071 -0.6262  0.8093 -0.4357
29998SOL     OW 1971   5.198   3.938   2.734 -0.4935  0.5627  0.4750
29998SOL    HW1 1972   5.130   3.998   2.764  0.3917  1.0790  1.4890
29998SOL    HW2 1973   5.280   3.979   2.762  0.1349 -1.0549  1.0754
29999SOL     OW 1974   9.218   9.366   1.042  0.1562 -0.8186 -0.7404
29999SOL    HW1 1975   9.258   9.453   1.032 -0.5763 -0.4404 -0.4640
29999SOL    HW2 1976   9.186   9.365   1.132 -2.6851 -0.1290 -1.6497
30000SOL     OW 1977   4.782   8.914   9.749  0.0233  0.9841 -0.0992
30000SOL    HW1 1978   4.835   8.959   9.816  0.3610 -0.4714  0.6452
30000SOL    HW2 1979   4.805   8.958   9.667  1.7660  0.9499  0.3198
30001SOL     OW 1980   1.285   7.887   1.209 -0.1072 -0.0227  0.2920
30001SOL    HW1 1981   1.262   7.978   1.228  4.0250  1.3311 -0.2812
30001SOL    HW2 1982   1.261   7.875   1.117 -0.4873  0.5493  0.3104
30002SOL     OW 1983   3.819   6.316   5.196 -0.3105  0.3916 -0.4873
30002SOL    HW1 1984   3.862   6.387   5.150  0.5702  0.0392 -0.2327
30002SOL    HW2 1985   3.887   6.279   5.253 -1.0612  0.0938  0.2468
30003SOL     OW 1986   4.907   7.861   8.703  0.3141 -0.8234 -0.2500
30003SOL    HW1 1987   4.833   7.909   8.666  0.0550 -1.1095 -0.1072
30003SOL    HW2 1988   4.911   7.890   8.795  1.2054  0.1888 -0.5929
30004SOL     OW 1989   4.804   0.052   7.254 -0.0040  0.1145 -0.1782
30004SOL    HW1 1990   4.826  -0.024   7.308  1.2498  1.8757  1.9863
30004SOL    HW2 1991   4.857   0.041   7.175  0.3619 -1.1186  0.2129
30005SOL     OW 1992   0.872  10.105   4.397 -0.3367  0.1729 -0.7213
30005SOL    HW1 1993   0.940  10.040   4.381  0.0515  0.5662 -0.6789
30005SOL    HW2 1994   0.904  10.156   4.472 -0.8514  0.1200 -0.4549
30006SOL     OW 1995   9.879   8.082   3.420 -0.1680 -0.0301  0.0372
30006SOL    HW1 1996   9.790   8.069   3.453 -0.2496  1.1149  0.3046
30006SOL    HW2 1997   9.930   8.011   3.460 -0.6140  0.3491  1.3320
30007SOL     OW 1998   0.494  10.378   3.685 -0.4829 -1.0726  0.2164
30007SOL    HW1 1999   0.446  10.353   3.763 -0.0336  0.7258  1.1130
30007SOL    HW2 2000   0.540  10.298   3.659 -0.6487 -1.7094  1.7804
30008SOL     OW 2001   0.394   7.792   8.665 -0.2504  0.0367 -0.0844
30008SOL    HW1 2002   0.412   7.698   8.671 -0.8406 -0.0961 -0.3628
30008SOL    HW2 2003   0.403   7.812   8.571  2.9744  0.8965  0.2825
30009SOL     OW 2004   9.242   9.985   9.717  0.0864 -0.0829 -0.2504
30009SOL    HW1 2005   9.317   9.999   9.774  0.6782  0.0505 -1.0391
30009SOL    HW2 2006   9.210  10.073   9.697  0.9281 -0.0280 -1.4631
30010SOL     OW 2007   6.124   3.767   7.253  0.6717 -0.2806  0.0091
30010SOL    HW1 2008   6.087   3.683   7.229  1.2084 -0.4774 -0.1542
30010SOL    HW2 2009   6.082   3.790   7.336 -0.5102 -0.0323 -0.6462
30011SOL     OW 2010   8.891   3.385   2.798  0.1072  0.1943 -0.1200
30011SOL    HW1 2011   8.978   3.367   2.762  1.0064 -0.0584  1.9946
30011SOL    HW2 2012   8.860   3.300   2.830 -0.2316  0.5496  0.5175
30012SOL     OW 2013   5.499   3.355   7.315  0.6065  0.1730 -0.0411
30012SOL    HW1 2014   5.504   3.309   7.231 -1.5361  1.9150 -1.2324
30012SOL    HW2 2015   5.455   3.294   7.374 -2.2968  0.5581 -1.6224
30013SOL     OW 2016   7.111   2.618  10.205  0.4538 -0.4134 -0.1398
30013SOL    HW1 2017   7.095   2.568  10.126 -1.2103 -0.4767  0.2045
30013SOL    HW2 2018   7.118   2.552  10.274  1.5007 -0.3349 -0.1565
30014SOL     OW 2019   4.695   3.804   7.431 -0.0833 -0.0757 -0.3828
30014SOL    HW1 2020   4.739   3.842   7.508  0.4584  0.2412 -0.8410
30014SOL    HW2 2021   4.673   3.880   7.377  0.6179 -0.3660 -1.1044
30015SOL     OW 2022   6.817   6.646   1.930  0.0079 -0.7023 -0.7883
30015SOL    HW1 2023   6.876   6.646   1.855  1.0420 -0.2280 -0.0108
30015SOL    HW2 2024   6.825   6.734   1.967 -0.5973 -0.8766 -0.2135
30016SOL     OW 2025   2.689   7.289   2.467  0.1964 -0.0864  0.3491
30016SOL    HW1 2026   2.653   7.365   2.421  2.0066 -0.9977 -2.8366
30016SOL    HW2 2027   2.749   7.326   2.531 -1.2766  1.1917  1.0699
30017SOL     OW 2028   5.052   1.569   5.371  0.5200 -0.2117  0.1433
30017SOL    HW1 2029   5.091   1.640   5.423  0.5323  0.1798 -0.3909
30017SOL    HW2 2030   5.043   1.497   5.433 -2.1389  1.1172  1.4631
30018SOL     OW 2031   7.414  10.158  10.297  0.3184  0.0954 -0.7689
30018SOL    HW1 2032   7.440  10.113  10.378 -1.3351 -2.0124 -1.3027
30018SOL    HW2 2033   7.343  10.216  10.324 -1.8335 -2.2820 -0.9182
30019SOL     OW 2034   2.289   3.525   1.389  0.0020 -0.4025  0.0637
30019SOL    HW1 2035   2.343   3.449   1.407  0.4911  0.0683  0.6133
30019SOL    HW2 2036   2.351   3.593   1.363 -0.3551  0.0274  0.3234
30020SOL     OW 2037   8.302   5.781   5.718  0.6428 -0.3007  0.2601
30020SOL    HW1 2038   8.349   5.848   5.767  1.1665 -1.6537  1.7117
30020SOL    HW2 2039   8.345   5.699   5.743  0.0363 -1.1981 -1.4583
30021SOL     OW 2040   4.709   6.178   0.215  0.2722 -0.1608  0.1410
30021SOL    HW1 2041   4.730   6.143   0.129  0.6777 -0.0661  0.2010
30021SOL    HW2 2042   4.776   6.244   0.232  0.2413 -0.2302  0.5583
30022SOL     OW 2043   2.571   7.922   2.779 -0.1213 -0.0588  0.1726
30022SOL    HW1 2044   2.625   7.944   2.703 -0.1520 -1.1967 -0.1946
30022SOL    HW2 2045   2.481   7.936   2.750 -0.0814  0.7273  0.4140
30023SOL     OW 2046   6.639   1.059   9.178  0.5631  0.1129  0.2283
30023SOL    HW1 2047   6.634   1.127   9.111  0.8162  0.2529  0.3470
30023SOL    HW2 2048   6.559   1.007   9.167 -0.1412  1.0551  0.8155
30024SOL     OW 2049   9.400   8.676  10.000  0.6666 -0.2587 -0.3577
30024SOL    HW1 2050   9.377   8.595  10.045  0.8735 -0.7368 -1.0842
30024SOL    HW2 2051   9.490   8.693  10.027 -0.0424  0.8960  1.4497
30025SOL     OW 2052   9.441   5.834   4.390  0.4994 -0.0114 -0.3051
30025SOL    HW1 2053   9.494   5.913   4.395 -0.8150  1.0064 -1.7431
30025SOL    HW2 2054   9.381   5.840   4.463  1.2463 -0.3549  0.3547
30026SOL     OW 2055   2.909   0.466   8.221  0.3022 -0.3125 -0.0381
30026SOL    HW1 2056   2.850   0.470   8.145  0.4994 -0.4653 -0.1990
30026SOL    HW2 2057   2.910   0.373   8.245  0.9871 -0.4096 -0.4356
30027SOL     OW 2058   9.228   8.203   2.404  0.4928  0.1179  0.2080
30027SOL    HW1 2059   9.141   8.243   2.405  0.6197  0.3927  1.4919
30027SOL    HW2 2060   9.241   8.177   2.313 -1.1878 -0.4885  0.1147
30028SOL     OW 2061   7.901   0.520   3.929  0.2879  0.1620 -0.1705
30028SOL    HW1 2062   7.869   0.608   3.951 -0.2489 -0.2712  0.8665
30028SOL    HW2 2063   7.853   0.496   3.850 -0.9330  0.0973  0.5631
30029SOL     OW 2064   4.806  10.115   2.871  0.0334  0.4367 -0.5171
30029SOL    HW1 2065   4.878  10.063   2.906  0.3593  0.3748 -1.2517
30029SOL    HW2 2066   4.840  10.152   2.790 -0.0076  2.2528  0.2510
30030SOL     OW 2067   9.562   1.681   8.670  0.0262 -0.2616 -0.3341
30030SOL    HW1 2068   9.567   1.600   8.720 -1.9436 -0.3965 -0.2696
30030SOL    HW2 2069   9.595   1.658   8.583  2.7186 -0.2145  0.5873
30031SOL     OW 2070   4.490   0.938  10.334 -0.0191  0.2398  0.0705
30031SOL    HW1 2071   4.565   0.897  10.290  1.3761  1.3043  1.3516
30031SOL    HW2 2072   4.433   0.966  10.262  1.3259  0.3516 -1.0073
30032SOL     OW 2073   3.875   0.642   1.056  0.3418 -0.5121 -0.2248
30032SOL    HW1 2074   3.917   0.568   1.099 -0.0075 -1.5822 -1.6588
30032SOL    HW2 2075   3.815   0.676   1.122  1.3920 -0.7185  0.8747
30033SOL     OW 2076   2.901   5.226   2.623 -0.4293  0.1489  0.1387
30033SOL    HW1 2077   2.882   5.151   2.566 -1.0494 -0.2856  0.8932
30033SOL    HW2 2078   2.993   5.215   2.647  0.1014  0.8243 -1.4606
30034SOL     OW 2079   1.746   0.958   3.067  0.0264  0.2913  0.4381
30034SOL    HW1 2080   1.746   0.873   3.112 -1.2185  0.6687  1.2150
30034SOL    HW2 2081   1.654   0.974   3.046  0.3710  0.9807 -0.6465
30035SOL     OW 2082   1.682   8.154   2.191  0.1143  0.5069  0.3573
30035SOL    HW1 2083   1.739   8.216   2.235  1.4247  0.5665 -1.3164
30035SOL    HW2 2084   1.685   8.180   2.099  0.0463 -1.5316 -0.2649
30036SOL     OW 2085   0.074   2.397   4.538 -0.0188  0.8189 -0.4273
30036SOL    HW1 2086   0.151   2.344   4.517 -0.2712  0.6072 -0.8526
30036SOL    HW2 2087   0.084   2.419   4.630  0.2666  0.3146 -0.3319
30037SOL     OW 2088  10.392   7.757   5.565  0.3691 -0.2601  0.0802
30037SOL    HW1 2089  10.408   7.719   5.651 -3.0080 -3.7501 -0.5562
30037SOL    HW2 2090  10.369   7.848   5.583  0.0082 -0.8110  2.8200
30038SOL     OW 2091   6.394   8.380   4.315 -0.7200 -0.1021 -0.2180
30038SOL    HW1 2092   6.384   8.475   4.316 -2.2604 -0.2209  1.5230
30038SOL    HW2 2093   6.411   8.359   4.223 -2.0408  1.7114 -0.9496
30039SOL     OW 2094   1.262   1.110   9.275  0.1684 -0.0746  0.6637
30039SOL    HW1 2095   1.276   1.035   9.333 -1.2079 -0.3057  0.7326
30039SOL    HW2 2096   1.264   1.186   9.333 -0.8493 -0.2738  0.9712
30040SOL     OW 2097   2.844   5.882  10.133 -0.1383 -0.0629  0.0962
30040SOL    HW1 2098   2.914   5.870  10.197 -0.8027 -1.1739  0.6540
30040SOL    HW2 2099   2.884   5.934  10.063  1.3374 -0.9509  0.2337
30041SOL     OW 2100   0.613   8.965   8.720 -0.0507 -0.8026 -0.8920
30041SOL    HW1 2101   0.579   8.876   8.721 -3.1221  0.1947  1.5873
30041SOL    HW2 2102   0.676   8.967   8.792 -0.7567 -0.7737 -0.2584
30042SOL     OW 2103   3.941   4.111   0.760  0.3014 -0.1834  0.2315
30042SOL    HW1 2104   3.936   4.019   0.734  0.0762 -0.1886  0.2902
30042SOL    HW2 2105   3.870   4.154   0.710  0.4330 -0.0346  0.1710
30043SOL     OW 2106   5.589   7.197   6.628 -0.3680 -0.0790 -0.1909
30043SOL    HW1 2107   5.670   7.217   6.676 -0.0382 -0.2074 -0.6891
30043SOL    HW2 2108   5.601   7.239   6.543  0.2771 -2.2410 -1.2161
30044SOL     OW 2109   7.107   6.032   0.259 -0.0999  0.1800 -0.2132
30044SOL    HW1 2110   7.013   6.016   0.246  0.0787  0.4111 -2.0822
30044SOL    HW2 2111   7.136   6.069   0.176  1.4880  0.9384  0.6448
30045SOL     OW 2112  10.190   7.467  10.011  0.7832  0.3311  0.4926
30045SOL    HW1 2113  10.195   7.449  10.105 -0.1130  3.3217  1.2462
30045SOL    HW2 2114  10.255   7.536   9.997  1.0509 -0.2140 -1.1510
30046SOL     OW 2115   5.662   7.420   5.913 -0.4212  0.5788  0.2121
30046SOL    HW1 2116   5.654   7.386   5.823 -1.6395  2.9565 -0.6562
30046SOL    HW2 2117   5.757   7.421   5.929 -0.2440 -1.2424 -0.4446
30047SOL     OW 2118   3.029   5.165   9.911 -0.2682 -0.4978 -0.1773
30047SOL    HW1 2119   3.063   5.095   9.855 -0.7665 -0.1802 -0.8931
30047SOL    HW2 2120   3.010   5.236   9.851 -1.0917 -0.2484  0.3592
30048SOL     OW 2121   4.293   8.727   6.540 -0.5655 -0.3780 -0.2532
30048SOL    HW1 2122   4.264   8.637   6.525  1.1790 -1.1078  0.5615
30048SOL    HW2 2123   4.254   8.751   6.624  0.9008 -1.2796  0.7290
30049SOL     OW 2124   5.902   1.289   9.850 -0.3342  0.5385 -0.2436
30049SOL    HW1 2125   5.933   1.218   9.793  1.6756  1.4465 -0.3902
30049SOL    HW2 2126   5.981   1.341   9.867 -1.0160  0.7251  2.7816
30050SOL     OW 2127   8.882   1.070   7.208  0.2606 -0.2817  0.2653
30050SOL    HW1 2128   8.930   1.102   7.284  2.3745 -4.2192  0.8977
30050SOL    HW2 2129   8.790   1.077   7.233  0.4161  4.7210  0.2597
30051SOL     OW 2130   9.840   7.163   9.058  0.5904 -0.1825  0.2419
30051SOL    HW1 2131   9.784   7.238   9.077 -0.7676  0.3028 -4.4933
30051SOL    HW2 2132   9.787   7.087   9.081  0.8089  0.1830  2.2027
30052SOL     OW 2133   5.046   1.422   4.681  0.2194  0.4197  0.6032
30052SOL    HW1 2134   4.978   1.448   4.743 -0.7196  0.6360 -0.4618
30052SOL    HW2 2135   5.064   1.331   4.702 -0.3592  0.3827  0.9682
30053SOL     OW 2136   4.765  10.303   3.205 -0.7898  0.0767 -0.4384
30053SOL    HW1 2137   4.715  10.285   3.125  0.1444 -0.1140 -0.9871
30053SOL    HW2 2138   4.793  10.394   3.195  1.1201 -0.5735 -1.3424
30054SOL     OW 2139   3.581   6.014   9.515 -0.5870  0.0430 -0.0957
30054SOL    HW1 2140   3.559   5.978   9.601 -1.4653 -1.0841 -0.7561
30054SOL    HW2 2141   3.502   5.998   9.462  0.2027  0.0350 -1.3090
30055SOL     OW 2142   5.082   1.206   8.196  0.3013 -0.3444  0.7293
30055SOL    HW1 2143   5.154   1.268   8.187  0.0946 -0.2385 -0.3657
30055SOL    HW2 2144   5.104   1.153   8.273  2.1311 -1.0627 -0.2419
30056SOL     OW 2145   0.833   9.166   9.840 -0.6321 -0.1340  0.0932
30056SOL    HW1 2146   0.797   9.253   9.828 -0.8272 -0.4194 -1.6388
30056SOL    HW2 2147   0.757   9.111   9.859 -0.7397 -0.2108 -0.5363
30057SOL     OW 2148   7.354   6.955   5.348  0.3568 -0.3530  0.2805
30057SOL    HW1 2149   7.360   6.890   5.277 -0.1199  0.9041 -0.9392
30057SOL    HW2 2150   7.446   6.975   5.369  0.5120 -0.0839 -0.6106
30058SOL     OW 2151   8.342   8.389   0.508 -0.0538 -0.7308 -0.0142
30058SOL    HW1 2152   8.353   8.338   0.588  0.6870 -0.7749 -0.1391
30058SOL    HW2 2153   8.412   8.359   0.450  0.1617  0.1549 -0.2274
30059SOL     OW 2154   0.096   8.604   2.893  0.1419  0.6963  0.0802
30059SOL    HW1 2155   0.120   8.663   2.822 -1.5164  0.3929 -0.7732
30059SOL    HW2 2156   0.143   8.523   2.874 -0.8417  0.3734 -1.1150
30060SOL     OW 2157   0.944   0.905   7.782  0.5905 -0.0289  0.6654
30060SOL    HW1 2158   0.915   0.822   7.744 -2.2188  1.8196 -1.6183
30060SOL    HW2 2159   0.881   0.923   7.852 -0.1461  1.1283 -0.2647
30061SOL     OW 2160   0.748   9.605   3.737  0.6495 -0.5106 -0.7379
30061SOL    HW1 2161   0.756   9.512   3.715 -0.7680 -0.3053 -2.3865
30061SOL    HW2 2162   0.654   9.623   3.728  0.9796  1.1931 -1.0064
30062SOL     OW 2163   2.769   6.907   6.557 -0.4222 -0.6519  0.2715
30062SOL    HW1 2164   2.676   6.927   6.547 -0.5032 -1.6537 -1.3290
30062SOL    HW2 2165   2.804   6.980   6.608 -2.1299 -0.3984  1.1593
30063SOL     OW 2166   1.008   5.692   4.891  0.0994 -0.4669  0.1507
30063SOL    HW1 2167   1.059   5.690   4.972 -1.1488  1.0547  1.0338
30063SOL    HW2 2168   0.918   5.675   4.919 -0.7123  2.2535 -0.5430
30064SOL     OW 2169   1.056   2.338   7.386  0.5546 -0.1639  0.0983
30064SOL    HW1 2170   0.978   2.394   7.389  0.9262  0.4634 -1.3424
30064SOL    HW2 2171   1.021   2.249   7.379 -0.0334  0.1159 -0.6250
30065SOL     OW 2172   1.408  10.010   9.165  0.0057 -0.8302 -0.1982
30065SOL    HW1 2173   1.391  10.009   9.071 -0.0450 -0.1947 -0.1977
30065SOL    HW2 2174   1.370  10.092   9.196 -0.6278 -1.3713  0.5014
30066SOL     OW 2175   4.357  10.218   3.169  0.2482  0.1317 -0.4639
30066SOL    HW1 2176   4.407  10.204   3.089  0.6461  0.3331 -0.2518
30066SOL    HW2 2177   4.422  10.245   3.234 -0.0186 -0.4001  0.0293
30067SOL     OW 2178   1.276   7.543   9.967  0.6093 -0.8767 -0.1323
30067SOL    HW1 2179   1.248   7.552   9.875 -1.7730 -1.5608  0.4457
30067SOL    HW2 2180   1.274   7.448   9.983 -0.5709 -0.6747  1.0392
30068SOL     OW 2181   2.788  10.321   7.107  0.4211  0.1959  0.2027
30068SOL    HW1 2182   2.695  10.334   7.088  0.4072 -0.3777 -0.1648
30068SOL    HW2 2183   2.790  10.241   7.160  0.6489  0.5871  0.7972
30069SOL     OW 2184   5.985   9.344   0.064  0.3267  0.3448 -0.2472
30069SOL    HW1 2185   5.992   9.428   0.018 -0.2595  0.6444  0.1850
30069SOL    HW2 2186   5.891   9.330   0.073  0.4245  0.1056  0.5099
30070SOL     OW 2187   9.722   7.636   3.925 -0.0002  0.2843  0.1413
30070SOL    HW1 2188   9.812   7.606   3.909 -1.0405 -2.3189 -1.5091
30070SOL    HW2 2189   9.715   7.717   3.875  1.1293 -0.1026 -0.6994
30071SOL     OW 2190   5.420   2.660   6.444  0.4178 -0.2209  0.0435
30071SOL    HW1 2191   5.451   2.586   6.497 -2.5498 -0.5510  1.5307
30071SOL    HW2 2192   5.401   2.729   6.508 -0.6412  0.3664 -0.8802
30072SOL     OW 2193   4.352   0.201   9.210  0.2584 -0.2407  0.3119
30072SOL    HW1 2194   4.442   0.228   9.194 -0.0405  0.1721 -0.8062
30072SOL    HW2 2195   4.358   0.126   9.269  1.2515  0.6971  1.4588
30073SOL     OW 2196   6.852   6.625   6.835 -0.3476  0.3354  0.3867
30073SOL    HW1 2197   6.824   6.681   6.762 -0.1341  1.5366  1.2010
30073SOL    HW2 2198   6.944   6.608   6.816 -0.6750 -0.6320 -0.4103
30074SOL     OW 2199   2.491   8.277   2.501  0.2660 -0.2128 -0.3020
30074SOL    HW1 2200   2.478   8.260   2.408  1.7378  0.1680 -0.5983
30074SOL    HW2 2201   2.585   8.289   2.511  0.1073  0.0258  1.1966
30075SOL     OW 2202   4.598   4.666   3.086 -0.1299  0.3033  0.0114
30075SOL    HW1 2203   4.694   4.666   3.078 -0.0857  0.1464  0.5239
30075SOL    HW2 2204   4.567   4.634   3.002  0.2857 -0.1571  0.0310
30076SOL     OW 2205   3.561   2.233   5.114  0.5794 -0.6456  0.3780
30076SOL    HW1 2206   3.513   2.158   5.078 -0.6045  0.6683 -0.9116
30076SOL    HW2 2207   3.653   2.210   5.103  0.2974 -0.6765 -2.8764
30077SOL     OW 2208   0.080   1.750   6.784  0.2467  0.1938 -0.2988
30077SOL    HW1 2209   0.095   1.657   6.768 -0.0290  0.1783 -0.4897
30077SOL    HW2 2210   0.127   1.769   6.865  0.9269  0.0624 -0.6546
30078SOL     OW 2211   4.878   7.288   9.583  0.0059 -0.5481 -0.7149
30078SOL    HW1 2212   4.890   7.340   9.662  0.5247 -1.3783 -0.2257
30078SOL    HW2 2213   4.880   7.197   9.614  0.2278 -0.8854 -1.6762
30079SOL     OW 2214   1.105   7.375   4.807  0.2122 -0.3283 -0.3180
30079SOL    HW1 2215   1.098   7.425   4.726 -0.6639  0.6768  0.3400
30079SOL    HW2 2216   1.019   7.385   4.849  0.9445  0.0404  1.1850
30080SOL     OW 2217   4.507   7.303   6.608 -0.1085  0.0550  0.0609
30080SOL    HW1 2218   4.472   7.299   6.519  0.3990  1.4882 -0.2315
30080SOL    HW2 2219   4.566   7.228   6.614 -3.1285 -2.4738  0.5947
30081SOL     OW 2220   8.447   4.758   2.892  0.2949  0.0408  0.9468
30081SOL    HW1 2221   8.446   4.725   2.802  0.8464 -2.7256  1.8392
30081SOL    HW2 2222   8.537   4.747   2.921 -0.0237  0.1950  2.0590
30082SOL     OW 2223   4.793   8.665   9.623 -0.4178 -0.3164 -0.3257
30082SOL    HW1 2224   4.825   8.677   9.533 -0.8573  0.0202 -0.4405
30082SOL    HW2 2225   4.801   8.752   9.662 -1.3239 -0.1973 -0.4005
30083SOL     OW 2226   8.632  10.195   8.901  0.3177 -0.2647 -0.1878
30083SOL    HW1 2227   8.572  10.209   8.974  0.0800  0.9731 -0.5967
30083SOL    HW2 2228   8.617  10.104   8.874  0.2605 -0.6697  1.1570
30084SOL     OW 2229   7.271   8.739   1.572  0.5241 -0.4863 -0.2353
30084SOL    HW1 2230   7.255   8.655   1.615  1.2451 -0.2316  0.5478
30084SOL    HW2 2231   7.327   8.717   1.498  0.3078 -0.7574 -0.3231
30085SOL     OW 2232   8.516   8.926   4.128  0.2376  0.2744  0.5953
30085SOL    HW1 2233   8.453   8.991   4.097 -0.5446 -0.0041  1.5561
30085SOL    HW2 2234   8.462   8.856   4.165  1.0930 -0.4922  0.4189
30086SOL     OW 2235   3.717   1.781   7.070  0.3627 -0.8098 -0.2487
30086SOL    HW1 2236   3.748   1.763   6.982  0.1184 -2.5299 -0.0213
30086SOL    HW2 2237   3.629   1.743   7.074  0.1904 -0.3662  0.5997
30087SOL     OW 2238   7.914   9.397   0.923  0.0525  0.2148 -0.1902
30087SOL    HW1 2239   7.948   9.307   0.927  2.4871  1.1077  0.7715
30087SOL    HW2 2240   7.987   9.452   0.951 -1.5402  2.4896 -0.2316
30088SOL     OW 2241   5.696   5.456   7.559  0.0404 -0.0621  0.5366
30088SOL    HW1 2242   5.729   5.439   7.471 -1.8989 -0.1987 -0.1890
30088SOL    HW2 2243   5.748   5.531   7.590 -0.1841  0.8953 -1.2711
30089SOL     OW 2244   3.769  10.212   5.728 -0.2431 -1.1100 -0.4448
30089SOL    HW1 2245   3.683  10.249   5.750  0.6147 -0.4960  2.4129
30089SOL    HW2 2246   3.759  10.118   5.741 -0.0913 -0.8765  1.8629
30090SOL     OW 2247   1.685   1.892   6.573  0.2786 -0.0402 -0.3477
30090SOL    HW1 2248   1.667   1.799   6.565 -0.7249  0.1495 -0.4568
30090SOL    HW2 2249   1.629   1.933   6.507  1.9266  0.5281 -1.4459
30091SOL     OW 2250   8.011   3.140   6.200 -0.0336 -1.0773 -0.0271
30091SOL    HW1 2251   8.062   3.153   6.120  0.6709 -1.2340  0.3815
30091SOL    HW2 2252   8.051   3.063   6.242 -0.8340 -1.4135  0.1340
30092SOL     OW 2253   2.804   9.808   0.570 -0.4890 -0.0452 -0.2594
30092SOL    HW1 2254   2.784   9.900   0.550  0.0452  0.2792  0.6564
30092SOL    HW2 2255   2.828   9.808   0.662 -0.4002 -1.1008 -0.2710
30093SOL     OW 2256   8.050   3.430   5.656 -0.1025  0.7520 -0.3069
30093SOL    HW1 2257   8.023   3.515   5.621 -0.5081  1.3543  1.3672
30093SOL    HW2 2258   7.993   3.416   5.732  0.5447 -0.6015 -0.0370
30094SOL     OW 2259   4.653   7.753   2.613 -0.3090 -0.5182 -0.4595
30094SOL    HW1 2260   4.695   7.683   2.562 -0.1822  0.0911 -1.2064
30094SOL    HW2 2261   4.703   7.756   2.695  1.6949  0.7548 -1.6505
30095SOL     OW 2262   0.272   1.147   0.256 -0.4288  1.0480  0.1935
30095SOL    HW1 2263   0.214   1.086   0.301  0.6591 -0.5209 -0.4076
30095SOL    HW2 2264   0.244   1.143   0.164  1.8690 -1.4506 -0.5442
30096SOL     OW 2265   0.996   6.473   7.524  0.4431  0.8210 -0.2587
30096SOL    HW1 2266   1.091   6.482   7.519  0.4245  0.5545 -1.2559
30096SOL    HW2 2267   0.966   6.556   7.563  1.1170  0.6639  0.6177
30097SOL     OW 2268   6.062   8.446   8.895  0.1801  0.6532  0.3686
30097SOL    HW1 2269   6.023   8.528   8.864 -0.6186  0.2006  0.1285
30097SOL    HW2 2270   6.153   8.467   8.913 -0.0520  1.6281  0.4426
30098SOL     OW 2271   1.675   1.296   8.404 -0.1824 -0.1813 -0.3534
30098SOL    HW1 2272   1.591   1.270   8.366 -1.0670  1.0347  0.6714
30098SOL    HW2 2273   1.705   1.368   8.350  0.2755 -0.7031 -0.7989
30099SOL     OW 2274   1.181   1.576   3.131  0.0832  0.3450 -0.0071
30099SOL    HW1 2275   1.211   1.663   3.158  2.3526 -0.6834  1.0737
30099SOL    HW2 2276   1.106   1.558   3.188  1.0924  0.6514  1.4747
30100SOL     OW 2277   0.634   5.790  10.324  0.0591  0.0278  0.2882
30100SOL    HW1 2278   0.725   5.808  10.348  0.4892  0.7727 -1.6815
30100SOL    HW2 2279   0.638   5.767  10.231 -1.7302 -0.2893  0.2505
30101SOL     OW 2280  10.112   0.846   0.831 -0.6185 -0.1262  0.4192
30101SOL    HW1 2281  10.061   0.779   0.786  0.8864 -0.5815 -0.6946
30101SOL    HW2 2282  10.084   0.928   0.791  1.3061 -0.5805 -2.1496
30102SOL     OW 2283   5.839   5.144   8.757  0.3839 -0.5182 -0.6096
30102SOL    HW1 2284   5.920   5.194   8.757 -0.1714  0.4095 -0.4720
30102SOL    HW2 2285   5.788   5.181   8.685 -0.2250 -0.5512 -0.2062
30103SOL     OW 2286   6.922   4.873   8.922  0.5134 -0.2420  0.1547
30103SOL    HW1 2287   6.880   4.797   8.962 -1.1455 -0.1631 -1.3224
30103SOL    HW2 2288   6.950   4.843   8.836 -2.0157  1.2415 -1.3102
30104SOL     OW 2289   4.623   6.058   7.429  0.0662  0.4578  0.1235
30104SOL    HW1 2290   4.702   6.012   7.458 -0.2935 -0.7119 -0.6506
30104SOL    HW2 2291   4.591   6.006   7.356 -1.2658  1.0718  0.2366
30105SOL     OW 2292   8.967   7.080   6.181  0.1613  0.1410  0.2020
30105SOL    HW1 2293   8.982   7.048   6.092 -1.8891 -0.7310  0.1178
30105SOL    HW2 2294   8.989   7.006   6.237 -0.6272 -0.0354  0.2790
30106SOL     OW 2295   9.290   3.975   9.634 -0.3791 -0.7265 -0.4698
30106SOL    HW1 2296   9.337   4.039   9.579  1.0547 -2.0631 -0.8701
30106SOL    HW2 2297   9.255   4.027   9.706 -0.2479  0.6916 -1.3781
30107SOL     OW 2298   1.378   1.953   7.981 -0.6453  0.1383 -0.1617
30107SOL    HW1 2299   1.374   1.864   8.017  1.7486  0.7621  1.9331
30107SOL    HW2 2300   1.351   2.008   8.054 -0.2672  1.2400 -0.8417
30108SOL     OW 2301  10.082   0.908   7.809  0.7633  0.0037 -0.4614
30108SOL    HW1 2302  10.093   0.842   7.878 -0.9053  0.1394 -0.0161
30108SOL    HW2 2303  10.046   0.860   7.735 -0.1111  0.3302 -0.2611
30109SOL     OW 2304   9.604   2.854   9.176 -0.6534 -0.4670 -0.3122
30109SOL    HW1 2305   9.695   2.878   9.196 -0.9097  1.1990 -1.0240
30109SOL    HW2 2306   9.611   2.782   9.114  0.2058  0.4447 -1.2977
30110SOL     OW 2307  10.095   5.876   5.779 -0.1358 -0.2377 -0.2031
30110SOL    HW1 2308  10.107   5.914   5.692 -0.6906  3.4251  1.1372
30110SOL    HW2 2309  10.000   5.866   5.787 -0.1399  0.0838  0.1913
30111SOL     OW 2310   4.985   8.259   7.612 -1.2331 -0.2075 -0.1300
30111SOL    HW1 2311   4.985   8.202   7.535 -0.7826 -2.0451  1.1520
30111SOL    HW2 2312   4.895   8.289   7.620 -1.0491  1.0098 -2.0316
30112SOL     OW 2313   1.548   6.032   6.801 -0.3439  0.1559  0.4239
30112SOL    HW1 2314   1.459   6.027   6.766 -0.9002 -0.5358  1.8754
30112SOL    HW2 2315   1.596   5.965   6.753 -0.5020  0.7823 -0.6320
30113SOL     OW 2316   7.977   3.379   6.790  0.4035  0.1730  0.4395
30113SOL    HW1 2317   7.914   3.401   6.722  1.1592 -0.8401 -0.6243
30113SOL    HW2 2318   8.025   3.461   6.806  0.1426  0.4502 -0.1667
30114SOL     OW 2319   6.902   1.975   8.868 -0.3436 -0.1352  0.4000
30114SOL    HW1 2320   6.842   2.039   8.831  0.0122 -0.3481 -0.5613
30114SOL    HW2 2321   6.923   2.010   8.955 -0.0537  1.1088 -0.1513
30115SOL     OW 2322   2.758   2.889   4.836  0.7592  0.0529  0.8481
30115SOL    HW1 2323   2.764   2.823   4.767  0.2324  0.2698  0.5908
30115SOL    HW2 2324   2.756   2.839   4.917 -0.1162 -0.2766  0.6321
30116SOL     OW 2325   3.449   6.735   6.977 -0.0361 -0.0153 -0.7222
30116SOL    HW1 2326   3.353   6.727   6.978 -0.2324  1.8872 -0.0552
30116SOL    HW2 2327   3.467   6.813   7.029  1.7394  0.8293 -2.4472
30117SOL     OW 2328   7.218   8.937   0.025 -0.1019 -0.6267  0.0181
30117SOL    HW1 2329   7.277   9.012   0.030  0.2540 -0.9329  0.6964
30117SOL    HW2 2330   7.218   8.913  -0.067 -0.3816  0.3256 -0.2376
30118SOL     OW 2331   2.773   6.226   8.078  0.2911  0.1405  0.2114
30118SOL    HW1 2332   2.859   6.243   8.039 -0.3037  0.1200 -1.1942
30118SOL    HW2 2333   2.732   6.313   8.085 -0.0802  0.0294 -0.4276
30119SOL     OW 2334  10.040   0.532  10.186  0.9475 -0.2102 -0.4761
30119SOL    HW1 2335  10.067   0.483  10.264  2.3487  3.2003  1.3917
30119SOL    HW2 2336  10.108   0.599  10.175 -0.9533  1.5198 -2.6366
30120SOL     OW 2337   8.507   9.094   6.432  0.5717  0.0144 -0.5673
30120SOL    HW1 2338   8.510   9.122   6.523  1.1224  1.1922 -0.9236
30120SOL    HW2 2339   8.598   9.096   6.402  0.4105 -0.4450 -1.1184
30121SOL     OW 2340   2.125  10.056   8.253  0.3915  0.1058 -0.5670
30121SOL    HW1 2341   2.179  10.038   8.330  0.3627  0.1421 -0.5383
30121SOL    HW2 2342   2.036  10.064   8.288  0.1560 -1.3050 -0.7887
30122SOL     OW 2343   4.341   4.477   8.976 -0.2438  0.0640  0.0669
30122SOL    HW1 2344   4.277   4.489   9.046 -0.4790 -0.6648 -0.0106
30122SOL    HW2 2345   4.342   4.383   8.961  3.0643 -0.3787  2.1131
30123SOL     OW 2346   2.851   9.567   7.187 -0.5190 -0.5497  0.3690
30123SOL    HW1 2347   2.939   9.531   7.195 -0.0363  0.0299 -1.7660
30123SOL    HW2 2348   2.801   9.500   7.141 -1.2853 -0.9502  1.7170
30124SOL     OW 2349   2.453   0.607   4.825 -0.1913 -0.1922  0.5219
30124SOL    HW1 2350   2.411   0.528   4.858 -1.6877  1.0621  1.8116
30124SOL    HW2 2351   2.470   0.589   4.733 -2.1841 -1.3659  0.3272
30125SOL     OW 2352   1.349   2.575   9.153  0.0161  0.5597 -0.0302
30125SOL    HW1 2353   1.331   2.508   9.087  3.2581 -1.5768  1.0697
30125SOL    HW2 2354   1.284   2.559   9.221 -1.2980  0.7095 -1.1893
30126SOL     OW 2355   2.524   8.201   5.854  0.1600 -0.0777  0.0839
30126SOL    HW1 2356   2.534   8.290   5.887  1.2892 -0.1383 -0.0382
30126SOL    HW2 2357   2.551   8.145   5.927 -0.8869 -0.3394  0.2810
30127SOL     OW 2358   3.394   2.865   4.821  0.0876  0.4266 -0.4706
30127SOL    HW1 2359   3.346   2.890   4.742  1.0158 -0.2425 -1.2700
30127SOL    HW2 2360   3.333   2.810   4.870 -1.3644  2.7540  0.4886
30128SOL     OW 2361   5.185   4.506   0.084 -0.0939  0.8751 -0.2648
30128SOL    HW1 2362   5.249   4.456   0.033  1.0493  1.2684  0.7153
30128SOL    HW2 2363   5.236   4.579   0.119 -0.0799 -0.7130  3.5325
30129SOL     OW 2364   9.286   5.549   7.151  0.3335  0.0192 -0.4613
30129SOL    HW1 2365   9.274   5.584   7.063  0.8638 -0.6378 -0.8016
30129SOL    HW2 2366   9.262   5.457   7.144  0.3188 -0.0257  0.1030
30130SOL     OW 2367   2.842   1.053   8.049  0.0450  0.5298  0.3836
30130SOL    HW1 2368   2.876   1.069   8.137  2.2878 -3.8353  0.5811
30130SOL    HW2 2369   2.765   0.997   8.062  0.5982 -0.4466 -0.3892
30131SOL     OW 2370   0.282   4.475   3.525  0.6443  0.8161 -0.0654
30131SOL    HW1 2371   0.246   4.499   3.611  0.7374  0.1822  0.1584
30131SOL    HW2 2372   0.364   4.524   3.519  0.6342  0.8678  0.2066
30132SOL     OW 2373   2.128   1.661   3.046  0.1900 -0.2170  0.2208
30132SOL    HW1 2374   2.138   1.696   2.958  0.5364  0.1546  0.4050
30132SOL    HW2 2375   2.149   1.568   3.038 -0.5127 -0.3348 -0.2288
30133SOL     OW 2376   4.064   9.140   3.253  0.0485  0.2677 -0.9877
30133SOL    HW1 2377   3.979   9.113   3.289 -1.0465  1.8936 -2.1527
30133SOL    HW2 2378   4.128   9.113   3.318 -1.6357  1.4936  1.3244
30134SOL     OW 2379   4.026   2.231   6.284  0.2193 -0.6714  0.1722
30134SOL    HW1 2380   4.095   2.268   6.339  0.9575 -0.3831 -0.9208
30134SOL    HW2 2381   4.004   2.148   6.326  2.8478 -1.8987 -0.6641
30135SOL     OW 2382   9.616   1.568   0.021  0.0841  0.6023 -0.3965
30135SOL    HW1 2383   9.706   1.590  -0.002  0.1337  0.3316 -0.4567
30135SOL    HW2 2384   9.623   1.490   0.076 -0.2330 -0.5942 -2.0017
30136SOL     OW 2385   1.941   4.352   7.291 -0.3887 -0.3487  0.1357
30136SOL    HW1 2386   2.011   4.414   7.314 -1.6492  1.3304 -0.3308
30136SOL    HW2 2387   1.932   4.297   7.369  0.4268  0.3942  0.7834
30137SOL     OW 2388  10.286   7.555   4.452  0.3340 -0.5439 -0.4879
30137SOL    HW1 2389  10.302   7.464   4.478 -1.5148 -0.5985  0.6966
30137SOL    HW2 2390  10.193   7.557   4.429  0.6188  0.8115 -1.6280
30138SOL     OW 2391   9.251   6.844   3.809 -0.1465 -0.0024 -0.1933
30138SOL    HW1 2392   9.302   6.897   3.748  0.6958 -0.9338 -0.3166
30138SOL    HW2 2393   9.262   6.887   3.894 -0.7588  0.9041 -0.5609
30139SOL     OW 2394   6.610   0.683   6.730 -0.5408  0.5524  0.1393
30139SOL    HW1 2395   6.574   0.661   6.815  0.4550 -1.6040  0.0699
30139SOL    HW2 2396   6.702   0.656   6.735 -0.7468 -0.7749 -1.9766
30140SOL     OW 2397   8.777   4.850   8.152  0.7639 -0.0058  0.0139
30140SOL    HW1 2398   8.816   4.868   8.238 -0.0788 -1.0113  0.6417
30140SOL    HW2 2399   8.730   4.930   8.130  1.6328  0.5470  0.1111
30141SOL     OW 2400   0.547   7.036   2.093  0.0552 -0.2230 -0.5496
30141SOL    HW1 2401   0.529   7.128   2.074  0.4562  0.3180  1.4456
30141SOL    HW2 2402   0.639   7.035   2.120 -0.6247 -0.6812  2.0513
30142SOL     OW 2403   9.160   5.749   9.240  0.1362 -0.0110 -0.2489
30142SOL    HW1 2404   9.184   5.835   9.274  0.6953 -0.0459 -0.5476
30142SOL    HW2 2405   9.244   5.704   9.227  0.0526  0.4270 -2.8425
30143SOL     OW 2406   5.208  10.174   9.996  0.2880 -0.2445 -0.2284
30143SOL    HW1 2407   5.219  10.191  10.089  1.1917  1.3986 -0.5919
30143SOL    HW2 2408   5.296  10.183   9.959 -0.2674  0.6162 -1.4303
30144SOL     OW 2409   3.376   3.341   2.324 -0.2202 -0.1876 -0.1636
30144SOL    HW1 2410   3.377   3.395   2.245 -1.3821 -1.7568 -1.3140
30144SOL    HW2 2411   3.318   3.387   2.384  1.8345  1.7999  0.4301
30145SOL     OW 2412   5.867   1.452   3.542  0.1743  0.0549  0.4283
30145SOL    HW1 2413   5.906   1.489   3.621 -0.2933 -0.8724  1.1143
30145SOL    HW2 2414   5.919   1.373   3.524 -0.5094 -0.4306  0.5522
30146SOL     OW 2415   7.788   7.294  10.174  0.1662 -0.4385 -0.1472
30146SOL    HW1 2416   7.737   7.286  10.094  1.0154 -0.1120 -0.7302
30146SOL    HW2 2417   7.775   7.385  10.201 -2.4695 -1.2281  1.7262
30147SOL     OW 2418   9.047   1.801   6.331  0.1282 -0.2641  0.1455
30147SOL    HW1 2419   8.985   1.730   6.346 -1.1879  0.7101 -0.4931
30147SOL    HW2 2420   9.061   1.801   6.236  1.2244 -0.5481  0.2923
30148SOL     OW 2421   4.208   7.600   5.111 -0.1507 -0.6522  0.0219
30148SOL    HW1 2422   4.121   7.605   5.073 -0.3851  0.0847  0.6389
30148SOL    HW2 2423   4.265   7.644   5.048  0.2382 -3.3360 -1.6259
30149SOL     OW 2424   7.749   8.952   3.276  1.1821  0.0108 -0.4158
30149SOL    HW1 2425   7.671   8.920   3.230 -0.1804  0.8008  1.2374
30149SOL    HW2 2426   7.793   8.872   3.306  0.8774 -0.4368 -1.1153
30150SOL     OW 2427   8.346   6.111   7.516  0.2410 -0.5100  0.3835
30150SOL    HW1 2428   8.404   6.078   7.584  0.5433 -1.4704 -0.3173
30150SOL    HW2 2429   8.392   6.187   7.480  0.1448 -0.0841  1.1417
30151SOL     OW 2430   8.992   2.795   6.439 -0.3365 -0.0419  0.6490
30151SOL    HW1 2431   8.967   2.709   6.405 -0.5702  0.4803 -0.5723
30151SOL    HW2 2432   9.016   2.779   6.530 -0.2043 -1.4306  0.3972
30152SOL     OW 2433   0.427   8.060   1.422  0.1554 -0.1191  0.1730
30152SOL    HW1 2434   0.376   8.073   1.342  0.7915  1.0804 -0.0558
30152SOL    HW2 2435   0.495   7.998   1.397 -0.2880 -0.5749  0.0805
30153SOL     OW 2436   9.857   5.028   7.605  0.5972 -0.0918 -0.9547
30153SOL    HW1 2437   9.778   5.058   7.650  0.8295 -0.2759 -0.4181
30153SOL    HW2 2438   9.826   4.962   7.543  0.3023  0.0223 -0.9332
30154SOL     OW 2439   4.820   3.387   0.481 -0.1306  0.4146  0.4050
30154SOL    HW1 2440   4.736   3.394   0.526 -0.0407 -0.4134  0.7157
30154SOL    HW2 2441   4.842   3.478   0.457 -0.3413  0.8348  1.7219
30155SOL     OW 2442   5.606   9.593   8.057  0.7841 -0.3797 -0.2322
30155SOL    HW1 2443   5.519   9.617   8.026 -0.3584 -0.7680  2.4384
30155SOL    HW2 2444   5.658   9.586   7.977 -1.6368 -0.2546 -1.9448
30156SOL     OW 2445   0.818   1.893   1.577 -0.0152 -0.0552 -0.1962
30156SOL    HW1 2446   0.850   1.803   1.588 -0.1003  0.0377  0.8960
30156SOL    HW2 2447   0.733   1.894   1.620 -0.6517  0.2114 -1.4048
30157SOL     OW 2448   0.776   1.533   6.381  0.0987 -0.2882 -0.2493
30157SOL    HW1 2449   0.713   1.580   6.435  1.0359  1.4897 -0.6195
30157SOL    HW2 2450   0.858   1.536   6.431  0.2964 -1.1204 -0.5069
30158SOL     OW 2451   7.607   8.168   0.335 -0.5135  0.0858  0.3372
30158SOL    HW1 2452   7.535   8.163   0.397 -1.2068 -1.8344 -0.5518
30158SOL    HW2 2453   7.566   8.188   0.251  0.4350  2.8772  0.4433
30159SOL     OW 2454   4.982   8.233   6.078 -0.2942  0.0777  0.2393
30159SOL    HW1 2455   5.009   8.169   6.144  0.1981 -0.2081 -0.2270
30159SOL    HW2 2456   5.019   8.316   6.108  1.2017 -0.3184 -0.4211
30160SOL     OW 2457   7.691   1.935   8.471  0.7520  0.5251  0.5381
30160SOL    HW1 2458   7.719   1.865   8.413  1.5930  0.4662  0.9985
30160SOL    HW2 2459   7.764   1.946   8.532 -0.1828  0.4800  1.6769
30161SOL     OW 2460   2.517   0.263   9.356 -0.1426 -0.4548 -0.3014
30161SOL    HW1 2461   2.561   0.345   9.334  0.3160 -0.6549 -0.1426
30161SOL    HW2 2462   2.583   0.213   9.404 -0.5665 -0.7304 -0.0018
30162SOL     OW 2463   3.084   9.091   4.780 -0.2248 -0.4471  0.9557
30162SOL    HW1 2464   2.994   9.071   4.753  0.3716  0.1656 -1.7133
30162SOL    HW2 2465   3.113   9.159   4.719  1.9156 -0.3145  2.0478
30163SOL     OW 2466   3.871   0.466   6.071  0.2954 -0.1399  0.0569
30163SOL    HW1 2467   3.918   0.549   6.074  0.5642 -0.3142  1.1251
30163SOL    HW2 2468   3.805   0.473   6.141 -0.1300 -0.5572 -0.2976
30164SOL     OW 2469   2.054   9.866   9.898  0.5871 -0.3425 -0.1448
30164SOL    HW1 2470   2.090   9.937   9.845 -1.0877  1.2543  0.7428
30164SOL    HW2 2471   2.098   9.874   9.982 -0.5674  0.5258  0.3898
30165SOL     OW 2472   9.909   8.456   6.647  0.3930  0.2428  0.0641
30165SOL    HW1 2473   9.858   8.520   6.696 -2.2649 -0.5541 -1.4497
30165SOL    HW2 2474   9.886   8.372   6.685  1.1084 -0.1087 -0.2497
30166SOL     OW 2475   7.523   4.209  10.286 -0.5199  0.2804 -0.0036
30166SOL    HW1 2476   7.479   4.128  10.311 -0.8644  0.7671  1.0131
30166SOL    HW2 2477   7.485   4.276  10.343  1.9743  0.6224  1.4042
30167SOL     OW 2478   2.996   3.277   2.293  0.2610 -0.1898 -0.1989
30167SOL    HW1 2479   2.984   3.358   2.243 -1.4705 -0.4539 -0.2486
30167SOL    HW2 2480   3.030   3.214   2.229  0.1371  0.0704 -0.5242
30168SOL     OW 2481   5.899   0.962   6.119 -0.2734 -0.2638  0.1859
30168SOL    HW1 2482   5.952   1.021   6.066 -1.4829 -0.3132 -1.1454
30168SOL    HW2 2483   5.849   0.911   6.056 -2.8957  0.6845  1.3537
30169SOL     OW 2484   4.536   1.772   0.063 -0.2365 -0.3108 -0.2575
30169SOL    HW1 2485   4.529   1.688   0.109  0.9703 -0.8620 -1.0354
30169SOL    HW2 2486   4.457   1.820   0.089 -1.9115 -2.3921 -1.2494
30170SOL     OW 2487   4.000   0.375   9.948  0.3950 -0.2126 -0.0095
30170SOL    HW1 2488   3.993   0.467   9.972  0.3663 -0.5144  1.2006
30170SOL    HW2 2489   4.016   0.376   9.854  2.0125  1.0908  0.2295
30171SOL     OW 2490   6.412   9.634   4.458 -0.0645 -0.0031 -0.2671
30171SOL    HW1 2491   6.387   9.639   4.551  0.6801 -2.1907  0.0993
30171SOL    HW2 2492   6.347   9.689   4.413 -0.8538  0.5570  1.4549
30172SOL     OW 2493   1.923   9.025   7.700  0.0116 -0.4205 -0.2741
30172SOL    HW1 2494   1.867   9.093   7.665 -0.4319  0.2240  1.5541
30172SOL    HW2 2495   2.005   9.069   7.722  0.4547 -0.9043 -0.9232
30173SOL     OW 2496   0.447   2.241   5.056  0.1030  0.2833 -0.6495
30173SOL    HW1 2497   0.514   2.186   5.097 -1.6371 -0.1751  1.8304
30173SOL    HW2 2498   0.373   2.182   5.044 -1.0241  1.5457 -0.1136
30174SOL     OW 2499   6.989   0.738   1.051 -0.0733 -0.0992 -0.3888
30174SOL    HW1 2500   7.053   0.772   0.989  1.1178  2.0542  1.8493
30174SOL    HW2 2501   7.041   0.703   1.123 -1.4141 -0.9384  0.2181
30175SOL     OW 2502  10.102  10.326   6.921 -0.0264  0.0472 -0.5927
30175SOL    HW1 2503  10.024  10.356   6.968  0.3334 -1.9340  1.4800
30175SOL    HW2 2504  10.172  10.384   6.952 -0.1426 -0.0577 -0.1213
30176SOL     OW 2505   3.784  10.277   9.372  0.1403 -0.2365 -0.1289
30176SOL    HW1 2506   3.768  10.321   9.289  1.6729 -1.6569 -1.2288
30176SOL    HW2 2507   3.871  10.306   9.399  0.1528 -0.7142  0.3736
30177SOL     OW 2508   4.260   6.342   7.874 -0.0225  0.1015  0.5370
30177SOL    HW1 2509   4.212   6.354   7.956  1.2799  1.1416  1.1962
30177SOL    HW2 2510   4.287   6.430   7.849  0.7017 -0.3451 -0.3237
30178SOL     OW 2511   2.072   6.792   1.301 -0.1967  0.4978  0.4726
30178SOL    HW1 2512   2.039   6.878   1.277 -0.5923  0.1244 -0.3950
30178SOL    HW2 2513   1.993   6.739   1.316  0.0332  0.1952  0.6356
30179SOL     OW 2514   9.899   7.478   7.611  0.3863  0.1099  0.0253
30179SOL    HW1 2515   9.932   7.528   7.536 -1.5045  0.7369 -0.4371
30179SOL    HW2 2516   9.887   7.543   7.680 -3.1576  0.6887 -0.9229
30180SOL     OW 2517   9.626   0.139   0.709 -0.0213  0.3088  0.5873
30180SOL    HW1 2518   9.606   0.219   0.659  0.4537 -0.6186 -1.1613
30180SOL    HW2 2519   9.586   0.069   0.658  1.8059 -0.8474  0.6660
30181SOL     OW 2520   6.259   7.251   2.008 -0.0712  0.1398  0.4208
30181SOL    HW1 2521   6.224   7.205   1.932  1.2302  1.4259 -1.0159
30181SOL    HW2 2522   6.287   7.181   2.067 -0.0263 -0.8986 -0.7888
30182SOL     OW 2523   1.278   0.711   1.682  0.3021 -0.4510  0.2005
30182SOL    HW1 2524   1.370   0.688   1.697  0.4629  0.5579  0.8559
30182SOL    HW2 2525   1.270   0.715   1.586  0.6926 -1.4689  0.1137
30183SOL     OW 2526   3.661   3.981   9.561 -0.3049  0.2766 -0.1826
30183SOL    HW1 2527   3.597   4.042   9.525 -0.4521  0.7337  0.8438
30183SOL    HW2 2528   3.614   3.933   9.628  0.6150  1.1417  1.1172
30184SOL     OW 2529   6.502   6.047   4.245 -0.3018 -0.1121 -0.0999
30184SOL    HW1 2530   6.447   6.002   4.181  1.5751  0.6759 -2.3997
30184SOL    HW2 2531   6.571   5.984   4.266 -1.0104 -0.4354  1.3621
30185SOL     OW 2532   9.830   4.290   5.364 -0.0084  0.2488 -0.5742
30185SOL    HW1 2533   9.741   4.327   5.370  0.1630  0.6681 -0.5515
30185SOL    HW2 2534   9.828   4.238   5.283 -0.1227  0.6925 -0.8621
30186SOL     OW 2535   2.883   9.086   2.642  0.3293  0.4677 -0.3407
30186SOL    HW1 2536   2.851   9.088   2.732 -1.5860 -0.3160 -0.9711
30186SOL    HW2 2537   2.970   9.045   2.649  0.9360  1.9168  1.3156
30187SOL     OW 2538   9.867   9.673   5.149  0.0558 -0.4311 -0.1442
30187SOL    HW1 2539   9.864   9.757   5.194 -0.1876 -0.9868  0.9222
30187SOL    HW2 2540   9.922   9.688   5.072  0.7626  0.4755  0.5155
30188SOL     OW 2541   3.700   5.884   7.438  0.1041  0.0972 -0.0322
30188SOL    HW1 2542   3.741   5.969   7.450 -1.1270  0.4673  2.1905
30188SOL    HW2 2543   3.609   5.903   7.416 -0.3066 -0.6126  0.9694
30189SOL     OW 2544   4.929   2.827   8.214  0.7386 -0.3618  0.1897
30189SOL    HW1 2545   4.851   2.846   8.265  1.3682 -2.1341  1.9218
30189SOL    HW2 2546   4.989   2.785   8.276  1.4679 -2.8588 -2.0164
30190SOL     OW 2547   8.809   8.194   4.648 -0.0973 -0.5624  0.1745
30190SOL    HW1 2548   8.812   8.287   4.670 -0.0694 -0.2113 -1.2740
30190SOL    HW2 2549   8.797   8.191   4.554  1.6763 -2.0285 -0.0645
30191SOL     OW 2550   9.118   3.566   6.861  0.0259 -0.1602 -0.3012
30191SOL    HW1 2551   9.141   3.645   6.813 -1.6342  1.2403  1.0912
30191SOL    HW2 2552   9.023   3.558   6.850 -0.2196 -0.4564  1.7429
30192SOL     OW 2553   5.864   6.948   7.571  0.2931  0.1904 -0.6193
30192SOL    HW1 2554   5.951   6.979   7.596 -0.1892 -0.0740  1.6086
30192SOL    HW2 2555   5.864   6.855   7.594 -0.4793  0.1048 -0.9087
30193SOL     OW 2556   4.493   4.200   1.744 -0.0161  0.3644  0.1556
30193SOL    HW1 2557   4.398   4.207   1.728  0.1259 -1.2399 -1.7236
30193SOL    HW2 2558   4.514   4.280   1.792 -2.2429  0.9828  0.2415
30194SOL     OW 2559   2.859   2.802   1.566  0.3832 -0.2891 -0.4482
30194SOL    HW1 2560   2.921   2.739   1.529  1.2318  1.4476 -2.1827
30194SOL    HW2 2561   2.900   2.831   1.647  1.0806 -0.3519 -0.7656
30195SOL     OW 2562   0.670   1.225   4.040  0.5044 -0.0690  0.6373
30195SOL    HW1 2563   0.707   1.313   4.038  0.9048 -0.2389  0.3612
30195SOL    HW2 2564   0.704   1.183   3.961  0.1768 -0.4161  0.6781
30196SOL     OW 2565   0.516   0.221   1.453 -0.2214 -0.4280  0.3068
30196SOL    HW1 2566   0.494   0.170   1.532  1.1046 -1.6045 -0.0264
30196SOL    HW2 2567   0.512   0.312   1.481 -1.8609 -0.7194  1.1536
30197SOL     OW 2568   4.690   6.988   7.725 -0.7228 -0.0901  0.2679
30197SOL    HW1 2569   4.705   7.074   7.685 -1.8158  0.7261  1.5342
30197SOL    HW2 2570   4.717   6.925   7.657  0.9163  1.2222 -0.3635
30198SOL     OW 2571   0.285   8.887   3.935  0.3870 -0.6414  0.2167
30198SOL    HW1 2572   0.345   8.932   3.995  1.8723  0.0579 -1.6795
30198SOL    HW2 2573   0.308   8.795   3.943  1.0199 -0.4856  0.3038
30199SOL     OW 2574   4.224   6.558   3.770  0.3047 -0.2801 -0.2833
30199SOL    HW1 2575   4.299   6.613   3.791  0.0273  0.5792 -1.3774
30199SOL    HW2 2576   4.175   6.609   3.705 -1.7006 -0.4141  1.0266
30200SOL     OW 2577   3.370   8.068   2.790 -0.2906 -0.3333 -0.8723
30200SOL    HW1 2578   3.293   8.116   2.759  0.5913  1.4622 -0.3975
30200SOL    HW2 2579   3.337   8.012   2.860 -0.9692  1.4932  0.3288
30201SOL     OW 2580   9.663   1.718   7.667 -0.1284  0.0349  0.0326
30201SOL    HW1 2581   9.614   1.800   7.664  1.1658  1.0609  3.0529
30201SOL    HW2 2582   9.725   1.724   7.594 -0.3203  1.5864 -0.0343
30202SOL     OW 2583   0.012   5.344   4.236 -0.4617 -0.9791  0.0811
30202SOL    HW1 2584   0.013   5.252   4.260  0.9224 -1.7026 -2.4238
30202SOL    HW2 2585  -0.078   5.360   4.208 -0.1963 -2.2685 -1.6800
30203SOL     OW 2586   9.064   0.323   8.964  0.0780  0.1371 -0.1707
30203SOL    HW1 2587   9.114   0.259   9.014  1.4033  0.1715 -1.3800
30203SOL    HW2 2588   9.099   0.317   8.875 -3.3041 -1.1131 -1.6042
30204SOL     OW 2589   6.813   6.308   6.055  0.3628 -0.3800  0.0239
30204SOL    HW1 2590   6.903   6.297   6.086  0.5333  0.2637 -0.2228
30204SOL    HW2 2591   6.758   6.274   6.126  0.7912 -0.3320  0.3804
30205SOL     OW 2592   4.958   1.056   6.829  0.3252 -0.1725  0.1863
30205SOL    HW1 2593   4.912   1.129   6.787  0.3579 -0.8306 -1.0547
30205SOL    HW2 2594   5.039   1.095   6.862  0.1184  0.4475 -0.0160
30206SOL     OW 2595   4.103   0.522   4.897  0.5608 -0.0592  0.0631
30206SOL    HW1 2596   4.182   0.570   4.870  2.2186 -1.3040  2.3200
30206SOL    HW2 2597   4.134   0.463   4.966 -2.2975 -0.9608  0.6927
30207SOL     OW 2598   8.597   8.778   3.572  0.0184 -0.2124 -0.3802
30207SOL    HW1 2599   8.588   8.857   3.520  0.3994  0.0011 -0.1293
30207SOL    HW2 2600   8.591   8.808   3.663 -0.6825 -0.5835 -0.2918
30208SOL     OW 2601   7.422  10.270   4.155 -0.2819 -0.3493 -0.0635
30208SOL    HW1 2602   7.439  10.202   4.089  0.2098  0.0809 -0.3800
30208SOL    HW2 2603   7.500  10.325   4.154  0.4673 -1.2487  2.0179
30209SOL     OW 2604   6.245   7.917   5.287  0.1285 -0.6752  0.6820
30209SOL    HW1 2605   6.155   7.945   5.269  0.9714  1.3132 -0.8656
30209SOL    HW2 2606   6.260   7.940   5.379 -0.5578  0.1390  0.6022
30210SOL     OW 2607   9.759   8.860   2.667  0.0161  0.1180  0.1474
30210SOL    HW1 2608   9.832   8.810   2.632  0.4072  0.3215  0.6460
30210SOL    HW2 2609   9.684   8.801   2.663  1.1223 -1.8764  3.8784
30211SOL     OW 2610   6.482   8.012   2.794  0.0005  0.3241 -0.2287
30211SOL    HW1 2611   6.525   8.082   2.844 -0.0107  1.0272 -1.1750
30211SOL    HW2 2612   6.412   8.056   2.747  0.1609 -0.2832 -1.0492
30212SOL     OW 2613   5.546   7.806   5.656  0.1263 -0.9222 -0.0553
30212SOL    HW1 2614   5.628   7.824   5.702  0.7699  0.4129 -1.6388
30212SOL    HW2 2615   5.523   7.717   5.683  0.8535 -0.4889  2.1979
30213SOL     OW 2616   2.048   7.777   5.206  0.4577 -0.2872 -0.0685
30213SOL    HW1 2617   2.109   7.723   5.156  0.4787 -0.6931  0.3803
30213SOL    HW2 2618   1.975   7.718   5.226  0.5708 -0.2168  0.6001
30214SOL     OW 2619   9.854   6.017   1.441 -0.0730  0.0429  0.0080
30214SOL    HW1 2620   9.891   6.014   1.530  2.1948  1.0407 -0.8104
30214SOL    HW2 2621   9.812   6.103   1.436  0.8098  0.4769 -0.2113
30215SOL     OW 2622   4.363   9.340   4.673 -0.0679  0.2097 -0.5658
30215SOL    HW1 2623   4.366   9.430   4.639 -1.1803  1.0611  1.4301
30215SOL    HW2 2624   4.342   9.350   4.766 -0.4125 -2.1355 -0.3325
30216SOL     OW 2625   0.220   3.886   8.175 -0.3218  0.1384 -0.4750
30216SOL    HW1 2626   0.216   3.874   8.270 -1.2864  1.8542 -0.2612
30216SOL    HW2 2627   0.178   3.807   8.139 -1.1623  0.0950  0.5712
30217SOL     OW 2628   8.139   4.329   9.380  0.1623 -0.1916 -0.2785
30217SOL    HW1 2629   8.086   4.334   9.300 -0.4298 -0.0389  0.1181
30217SOL    HW2 2630   8.151   4.235   9.394 -1.2241 -0.2856  0.4140
30218SOL     OW 2631   0.230   1.572   3.646  0.2945  0.0006  0.0801
30218SOL    HW1 2632   0.253   1.517   3.720  1.9937  0.1579 -0.2746
30218SOL    HW2 2633   0.164   1.522   3.598  0.2784 -0.7695  0.8806
30219SOL     OW 2634   5.996   8.019   5.272  0.3735  0.0790 -0.3397
30219SOL    HW1 2635   6.009   8.067   5.354  3.6227 -0.3881 -0.4536
30219SOL    HW2 2636   5.981   8.086   5.206  1.7696  0.7940  0.0220
30220SOL     OW 2637   8.892   3.057   2.382  0.2907 -0.4866  0.6144
30220SOL    HW1 2638   8.848   2.977   2.413  0.0493  0.3986  2.6955
30220SOL    HW2 2639   8.827   3.100   2.327  0.8834 -2.3147 -1.7125
30221SOL     OW 2640   4.533   1.992   6.910 -0.0798  0.0473  0.7239
30221SOL    HW1 2641   4.561   2.074   6.952  0.5191  1.2780 -1.8789
30221SOL    HW2 2642   4.600   1.928   6.935  1.1722  1.1575  0.3215
30222SOL     OW 2643   7.809   0.468   5.451  0.1635  0.3812 -0.2873
30222SOL    HW1 2644   7.716   0.450   5.435  0.1571  0.3527 -0.2165
30222SOL    HW2 2645   7.810   0.557   5.485  0.1958  0.5163 -0.6419
30223SOL     OW 2646   1.790   5.846   1.433  1.0492 -0.3945  0.1882
30223SOL    HW1 2647   1.756   5.820   1.519 -1.5383  0.7660 -0.3814
30223SOL    HW2 2648   1.745   5.787   1.372  0.9332  0.4372 -0.5413
30224SOL     OW 2649   7.832   5.992   1.432  0.9116 -0.4893 -0.4780
30224SOL    HW1 2650   7.814   5.899   1.416  2.6340 -0.7437 -1.1371
30224SOL    HW2 2651   7.785   6.011   1.513  1.5766 -2.3035  0.4067
30225SOL     OW 2652   5.753   0.603   3.195  0.1849  0.3886 -0.4841
30225SOL    HW1 2653   5.783   0.514   3.180 -2.7323 -0.4042 -2.4619
30225SOL    HW2 2654   5.814   0.658   3.145 -0.9203 -1.0248 -3.5896
30226SOL     OW 2655   9.182   5.456   0.893 -0.0576  0.0118  0.0661
30226SOL    HW1 2656   9.273   5.439   0.921 -0.0765 -1.6158 -0.7558
30226SOL    HW2 2657   9.191   5.514   0.818  0.2644  0.4361  0.4260
30227SOL     OW 2658   2.503   2.536   0.779  0.0109 -0.2438  0.4810
30227SOL    HW1 2659   2.414   2.507   0.763 -0.2304  0.6508  0.1215
30227SOL    HW2 2660   2.557   2.458   0.770 -0.4731 -0.3716 -1.6741
30228SOL     OW 2661   0.534   5.212   4.615 -0.1476  0.3010 -0.4285
30228SOL    HW1 2662   0.539   5.200   4.520 -3.5264  0.7375 -0.7526
30228SOL    HW2 2663   0.624   5.235   4.641  0.7325  0.8041 -3.5714
30229SOL     OW 2664   7.479   0.646   2.247 -0.1791  0.7746  0.2774
30229SOL    HW1 2665   7.551   0.594   2.283 -0.2754 -0.4133 -1.1606
30229SOL    HW2 2666   7.466   0.611   2.159 -1.7996  1.7029  0.1134
30230SOL     OW 2667   1.013   3.659   4.877  0.1207  0.0474  0.2727
30230SOL    HW1 2668   0.920   3.665   4.856  0.1015  0.4443  0.4695
30230SOL    HW2 2669   1.058   3.690   4.798  0.0532  1.2910  0.7016
30231SOL     OW 2670   1.819   2.270   5.877 -0.3897  0.1702  0.4003
30231SOL    HW1 2671   1.848   2.361   5.886 -1.5896  1.0969 -3.2576
30231SOL    HW2 2672   1.724   2.274   5.887 -0.3596 -0.9911  1.5252
30232SOL     OW 2673   0.740   4.436   2.133  0.1757 -0.1688 -0.3593
30232SOL    HW1 2674   0.718   4.412   2.043  0.5555 -1.3573 -0.1519
30232SOL    HW2 2675   0.805   4.506   2.124 -0.3145  0.2093 -1.0024
30233SOL     OW 2676   4.206   1.594  10.090 -0.5171 -0.2759 -0.0744
30233SOL    HW1 2677   4.143   1.566  10.024 -2.8599 -0.8507  2.2564
30233SOL    HW2 2678   4.271   1.523  10.092 -1.6338 -1.3401 -0.2468
30234SOL     OW 2679   1.322   3.101   0.910 -0.5345  0.7785 -0.1989
30234SOL    HW1 2680   1.289   3.098   1.000  0.2610 -0.1334  0.0759
30234SOL    HW2 2681   1.243   3.103   0.856 -1.0612 -0.7728  0.4638
30235SOL     OW 2682   0.448   1.652   6.725 -0.0195  0.1161 -0.5572
30235SOL    HW1 2683   0.378   1.603   6.769  0.5109  0.9750  1.3711
30235SOL    HW2 2684   0.416   1.665   6.636 -2.5290  0.8476  0.3576
30236SOL     OW 2685   1.565   3.430   6.450  0.4162  0.2230  0.5692
30236SOL    HW1 2686   1.490   3.372   6.459 -0.5915  1.4806  0.6054
30236SOL    HW2 2687   1.640   3.380   6.483 -0.0358 -1.7656 -1.1975
30237SOL     OW 2688   1.409   6.772   1.243  0.1056  0.5585  0.8796
30237SOL    HW1 2689   1.351   6.799   1.171 -1.7927 -1.7289  1.4293
30237SOL    HW2 2690   1.479   6.723   1.199 -0.1240  0.6137  0.4382
30238SOL     OW 2691   1.961   7.876   3.208  0.3570  0.4623  0.3576
30238SOL    HW1 2692   1.886   7.935   3.197  0.9632  1.5826  1.8342
30238SOL    HW2 2693   1.925   7.789   3.195 -1.6819  0.8176  2.7642
30239SOL     OW 2694   4.900   9.032   3.756 -0.4939  0.3636  0.4906
30239SOL    HW1 2695   4.921   8.940   3.742  0.5874  0.1809  2.8994
30239SOL    HW2 2696   4.986   9.075   3.761 -0.9353  1.1662  1.3621
30240SOL     OW 2697   5.366   1.394   7.620  0.4120  0.0169 -0.4388
30240SOL    HW1 2698   5.337   1.392   7.529  0.8039 -2.2360 -0.5706
30240SOL    HW2 2699   5.417   1.314   7.630 -0.4819 -0.3013  2.0490
30241SOL     OW 2700   6.578   3.170  10.251 -0.3313  0.1315  0.0253
30241SOL    HW1 2701   6.510   3.103  10.260 -0.6006 -0.0284 -2.5087
30241SOL    HW2 2702   6.541   3.247  10.295 -0.9043 -0.7692  1.1672
30242SOL     OW 2703   0.934   5.670   8.186  0.2780 -0.2833  0.2247
30242SOL    HW1 2704   0.897   5.595   8.232  0.9825 -1.0313 -0.4049
30242SOL    HW2 2705   1.029   5.657   8.192  0.4321  0.9683  0.7793
30243SOL     OW 2706  10.171   0.531   5.590  0.6108  0.2940 -0.6338
30243SOL    HW1 2707  10.130   0.606   5.547  1.5764  0.4232 -1.3538
30243SOL    HW2 2708  10.186   0.561   5.680 -3.4578 -0.7260  0.5969
30244SOL     OW 2709   1.425   2.729   6.677  0.0575  0.0595 -0.4093
30244SOL    HW1 2710   1.478   2.792   6.627  0.3029  0.2312  0.0603
30244SOL    HW2 2711   1.419   2.767   6.765 -0.4206 -0.2095 -0.3242
30245SOL     OW 2712   7.165   9.125   1.987 -0.1192  0.0796  0.0480
30245SOL    HW1 2713   7.117   9.181   1.926 -1.6513 -0.7756  0.4194
30245SOL    HW2 2714   7.136   9.154   2.074  1.1235  0.4782  0.3491
30246SOL     OW 2715   9.055   9.876   9.914 -0.3453  0.3247 -0.2123
30246SOL    HW1 2716   9.131   9.909   9.865 -0.0176 -2.1212 -1.4635
30246SOL    HW2 2717   9.093   9.845   9.997 -0.6680  2.9232  1.0161
30247SOL     OW 2718   0.313   2.724   5.619  0.0609  0.8291 -0.3293
30247SOL    HW1 2719   0.275   2.640   5.595  1.2321 -0.2145  1.2619
30247SOL    HW2 2720   0.290   2.782   5.547 -2.5301 -0.2980 -0.5186
30248SOL     OW 2721   0.301   5.631   9.226 -0.0731 -0.5064 -0.4277
30248SOL    HW1 2722   0.257   5.587   9.299 -0.1498 -0.2925 -0.3437
30248SOL    HW2 2723   0.233   5.685   9.186  0.3968  0.8408  0.5007
30249SOL     OW 2724   5.320   4.841   2.834  0.5963  0.3494  0.4419
30249SOL    HW1 2725   5.315   4.930   2.869 -0.2798  1.0338 -1.2804
30249SOL    HW2 2726   5.343   4.853   2.742 -1.8028 -1.0232 -0.4308
30250SOL     OW 2727   9.538   6.763   4.522 -0.1814 -0.2318 -0.0509
30250SOL    HW1 2728   9.459   6.785   4.570  0.2572  2.1105 -0.3207
30250SOL    HW2 2729   9.528   6.669   4.502 -3.6643  0.2915 -1.5365
30251SOL     OW 2730   2.167   2.142   9.814  0.5039  0.5797 -0.3780
30251SOL    HW1 2731   2.217   2.066   9.843 -0.1795  0.5013  0.6669
30251SOL    HW2 2732   2.224   2.187   9.753  0.8991 -0.8178 -1.0837
30252SOL     OW 2733   3.389   5.686   1.413 -0.1517 -0.0419 -0.3014
30252SOL    HW1 2734   3.405   5.594   1.432 -2.7837 -0.4999  0.0065
30252SOL    HW2 2735   3.304   5.688   1.371 -1.3204  2.4512  1.8874
30253SOL     OW 2736   4.394   2.496   7.134  0.0995  0.6046 -0.4968
30253SOL    HW1 2737   4.415   2.528   7.222  1.6034 -0.2025 -0.5310
30253SOL    HW2 2738   4.334   2.423   7.148 -1.8778  2.1528 -0.3299
30254SOL     OW 2739   2.929   5.499   7.149  0.0146  0.0220  0.0432
30254SOL    HW1 2740   2.996   5.555   7.111  0.9803  0.0730  1.7032
30254SOL    HW2 2741   2.890   5.552   7.219  0.3759 -1.0578  1.0921
30255SOL     OW 2742   8.155   4.697   2.880  0.0050  0.2706 -0.2105
30255SOL    HW1 2743   8.228   4.726   2.936 -0.1733 -1.6732  1.1414
30255SOL    HW2 2744   8.185   4.612   2.846 -1.0182  0.1622 -0.8488
30256SOL     OW 2745   9.735   9.462  10.097 -0.0223 -0.5041  0.1872
30256SOL    HW1 2746   9.737   9.556  10.112  0.4195 -0.7800  2.1582
30256SOL    HW2 2747   9.821   9.431  10.127 -0.1959 -1.5534 -0.3408
30257SOL     OW 2748   5.863   8.343   1.324  0.4391  0.2529 -0.3162
30257SOL    HW1 2749   5.804   8.277   1.361  1.3152  0.8446  2.2720
30257SOL    HW2 2750   5.815   8.376   1.248 -0.6241 -2.3330 -0.8987
30258SOL     OW 2751  10.051   2.394   3.984 -0.3410  0.3469  0.4190
30258SOL    HW1 2752  10.118   2.371   4.049 -1.3732  0.5664  1.5946
30258SOL    HW2 2753  10.000   2.313   3.973  1.0192 -0.3324 -1.6915
30259SOL     OW 2754   8.762   5.063   4.700 -0.2408  0.2172 -0.2065
30259SOL    HW1 2755   8.793   4.973   4.705  0.2450  0.3898 -0.0947
30259SOL    HW2 2756   8.840   5.117   4.713 -0.8181  0.6581  1.6394
30260SOL     OW 2757   7.230   6.785   3.806 -0.3970  0.6417  0.1084
30260SOL    HW1 2758   7.313   6.789   3.852 -0.4716 -0.0349  0.3224
30260SOL    HW2 2759   7.164   6.797   3.874 -0.4810  1.3573 -0.0859
30261SOL     OW 2760   1.781   0.585   4.531  0.2270 -0.0456 -0.5917
30261SOL    HW1 2761   1.694   0.562   4.565  0.4314 -0.6897 -0.4952
30261SOL    HW2 2762   1.807   0.509   4.478  0.2776  0.5948 -1.4990
30262SOL     OW 2763   7.067   0.395   8.732 -0.5211 -0.5460 -0.0962
30262SOL    HW1 2764   7.103   0.343   8.803 -0.4428  0.9264  0.9905
30262SOL    HW2 2765   7.119   0.475   8.732 -0.9532 -0.2433 -1.3840
30263SOL     OW 2766   4.930   7.752   0.045  0.1063 -0.2553  0.0039
30263SOL    HW1 2767   4.967   7.780  -0.039 -0.2294  1.1224  0.2833
30263SOL    HW2 2768   5.006   7.740   0.102  0.2473  0.5192 -0.0130
30264SOL     OW 2769   1.900   0.991   2.708  0.7053 -0.3186 -0.3614
30264SOL    HW1 2770   1.980   0.995   2.761  1.4563  2.2192 -1.5243
30264SOL    HW2 2771   1.926   0.947   2.627  0.3488 -1.3987  0.0955
30265SOL     OW 2772   9.919   2.647  10.202  0.6366 -0.0100 -0.1420
30265SOL    HW1 2773   9.976   2.723  10.191 -1.1276  1.6248  1.1241
30265SOL    HW2 2774   9.865   2.670  10.278 -1.3086 -1.6801 -0.9411
30266SOL     OW 2775   9.475   5.688   7.675 -0.0618  0.4982 -0.0931
30266SOL    HW1 2776   9.536   5.759   7.653  1.5509 -0.8626 -0.1924
30266SOL    HW2 2777   9.458   5.645   7.591 -0.2786  0.1907  0.1087
30267SOL     OW 2778   1.976   7.168   3.175  0.0300 -0.3880  0.1264
30267SOL    HW1 2779   2.039   7.192   3.107 -0.1386  0.4918  0.2617
30267SOL    HW2 2780   1.966   7.073   3.167  0.8509 -0.4399 -0.3423
30268SOL     OW 2781   5.745   4.908   1.530  0.1865  0.2005  0.0706
30268SOL    HW1 2782   5.766   4.835   1.589  1.9387 -0.3378 -1.1481
30268SOL    HW2 2783   5.765   4.986   1.581  3.0799 -0.2663 -0.1816
30269SOL     OW 2784   5.014   1.913   0.786 -0.6262 -0.3564  0.2090
30269SOL    HW1 2785   5.001   1.848   0.856  2.2374  1.8009  3.0349
30269SOL    HW2 2786   5.078   1.872   0.728  1.7674  0.0174  2.3878
30270SOL     OW 2787  10.227   6.523   9.944 -0.0300  0.1658  0.1391
30270SOL    HW1 2788  10.290   6.478   9.887 -1.9879 -1.7608 -0.6786
30270SOL    HW2 2789  10.167   6.567   9.883 -0.3664  0.6792  0.8302
30271SOL     OW 2790   0.998   2.423   5.901 -0.2429 -0.1478  0.0904
30271SOL    HW1 2791   1.058   2.425   5.976 -0.4761 -1.0165  0.3022
30271SOL    HW2 2792   1.014   2.338   5.860  1.6170  1.2152 -2.2755
30272SOL     OW 2793  10.354   9.743   2.073  0.6500 -0.2882  0.1307
30272SOL    HW1 2794  10.448   9.758   2.081  0.8317 -0.3654 -1.6353
30272SOL    HW2 2795  10.315   9.817   2.121  1.6053  0.5365 -0.3182
30273SOL     OW 2796   8.529   8.441  10.333  0.5634 -0.2736 -0.4136
30273SOL    HW1 2797   8.477   8.482  10.264 -0.5052 -0.3247  0.3292
30273SOL    HW2 2798   8.609   8.492  10.337  0.0535  0.5731 -0.7871
30274SOL     OW 2799   2.345   2.802   2.241 -0.4747 -0.1577  0.2812
30274SOL    HW1 2800   2.291   2.879   2.224 -0.6863 -0.5853 -1.1450
30274SOL    HW2 2801   2.329   2.745   2.166  0.7261 -0.9999  0.6370
30275SOL     OW 2802   8.207   1.337   0.505 -0.2686 -0.1377  0.1640
30275SOL    HW1 2803   8.185   1.322   0.413 -0.4166  0.2341  0.1353
30275SOL    HW2 2804   8.246   1.255   0.534 -0.2476 -0.2684 -0.2234
30276SOL     OW 2805   4.269   0.142   4.704  0.5625  0.5174  0.5658
30276SOL    HW1 2806   4.342   0.103   4.751 -0.1788  0.6154  1.8456
30276SOL    HW2 2807   4.302   0.227   4.673  1.3458  0.0408  0.0664
30277SOL     OW 2808   9.183   6.007   8.288  0.1166  0.6494  0.4753
30277SOL    HW1 2809   9.239   6.025   8.363 -0.7159  1.7349  0.8756
30277SOL    HW2 2810   9.241   6.012   8.212  0.6455  1.2900  0.9154
30278SOL     OW 2811   2.975   1.560   4.862  0.0068 -0.3794  0.0537
30278SOL    HW1 2812   2.881   1.559   4.882 -0.0096  1.6268  0.2685
30278SOL    HW2 2813   3.000   1.468   4.862 -1.7157 -0.9048  1.1951
30279SOL     OW 2814   4.029   6.745   7.865  0.3417 -0.4431 -0.0352
30279SOL    HW1 2815   3.965   6.674   7.863  0.6429 -0.7212  0.0514
30279SOL    HW2 2816   4.108   6.704   7.900  1.1568 -0.5852 -1.9143
30280SOL     OW 2817   1.226   9.588   6.203  0.2508 -0.2022  0.1629
30280SOL    HW1 2818   1.318   9.609   6.218 -0.0937  0.9773  0.6939
30280SOL    HW2 2819   1.191   9.665   6.157 -0.2425 -1.0704 -0.9744
30281SOL     OW 2820   7.413   0.623   4.614 -0.0583  0.6754 -0.5651
30281SOL    HW1 2821   7.488   0.669   4.577  0.4291  0.2646 -0.1058
30281SOL    HW2 2822   7.396   0.551   4.554 -1.0110  1.6056 -1.4457
30282SOL     OW 2823   6.906   5.848   5.791 -0.1174  0.6589  0.8229
30282SOL    HW1 2824   6.929   5.881   5.878 -0.1332  0.8572  0.7527
30282SOL    HW2 2825   6.982   5.797   5.764 -0.9745 -1.2903  1.8809
30283SOL     OW 2826   2.078   3.344   0.259  0.6856  0.2646  0.4940
30283SOL    HW1 2827   2.066   3.275   0.193 -0.0676  2.3518 -1.7232
30283SOL    HW2 2828   1.995   3.392   0.258  2.0644  2.7995 -0.0749
30284SOL     OW 2829   2.259   0.484   8.852 -0.0019 -0.1573 -0.4113
30284SOL    HW1 2830   2.266   0.419   8.782 -1.5136  0.0544 -0.8002
30284SOL    HW2 2831   2.303   0.444   8.926 -0.0496 -1.2178 -0.9293
30285SOL     OW 2832   3.705   9.683   8.078 -0.1800 -0.1948 -0.4352
30285SOL    HW1 2833   3.649   9.659   8.006 -0.3357 -0.2587 -0.2918
30285SOL    HW2 2834   3.749   9.763   8.048 -0.1951 -0.2561 -0.6232
30286SOL     OW 2835   6.788   5.865   6.645  0.2452 -0.0341  0.2015
30286SOL    HW1 2836   6.751   5.947   6.613 -0.1669 -0.7504 -1.2429
30286SOL    HW2 2837   6.865   5.850   6.590  0.8855 -0.1317  1.1028
30287SOL     OW 2838   0.602   3.365   5.749 -0.0140  0.0925 -0.5313
30287SOL    HW1 2839   0.610   3.303   5.676  0.2111 -0.0600 -0.3784
30287SOL    HW2 2840   0.627   3.314   5.826 -3.2140 -0.6909  0.1444
30288SOL     OW 2841   7.341   2.870   9.238 -0.2926 -0.4948  0.3036
30288SOL    HW1 2842   7.425   2.866   9.284 -0.3426  0.1859  0.4612
30288SOL    HW2 2843   7.313   2.961   9.246 -1.7254 -0.9972  1.4687
30289SOL     OW 2844   1.503   9.910  10.091 -0.0941  0.2749  0.1383
30289SOL    HW1 2845   1.413   9.888  10.115 -0.5087  1.4993 -0.2098
30289SOL    HW2 2846   1.532   9.973  10.158  0.3737  0.1767  0.0355
30290SOL     OW 2847   1.954   6.095   5.166 -0.5337  0.1400  0.0094
30290SOL    HW1 2848   1.861   6.116   5.176 -0.6211 -0.7710  1.4632
30290SOL    HW2 2849   1.970   6.025   5.229  1.2196  0.5070  0.0417
30291SOL     OW 2850   0.485   2.038   9.283  0.3633  0.4359 -0.2638
30291SOL    HW1 2851   0.557   2.098   9.302  1.2209 -0.8817  0.8091
30291SOL    HW2 2852   0.409   2.077   9.326  0.9497  0.6574  0.5914
30292SOL     OW 2853   9.204   4.926   5.759 -0.2568 -0.1012 -0.2996
30292SOL    HW1 2854   9.284   4.964   5.794  0.0229 -1.3452  0.4687
30292SOL    HW2 2855   9.176   4.988   5.692  2.8332 -0.9244 -2.5801
30293SOL     OW 2856   8.610   1.065   7.009  0.3311  0.0061 -0.4118
30293SOL    HW1 2857   8.601   1.081   7.102 -0.0918  1.1425 -0.6396
30293SOL    HW2 2858   8.634   0.972   7.003 -1.0101 -0.4463  0.7430
30294SOL     OW 2859   8.791   1.639   8.642  0.5509 -0.6362  0.0497
30294SOL    HW1 2860   8.858   1.703   8.617  0.4517 -0.0464  1.2321
30294SOL    HW2 2861   8.840   1.563   8.672  0.6701 -0.9294 -0.8535
30295SOL     OW 2862   0.745   8.702   1.924 -0.7157 -0.0705 -0.1777
30295SOL    HW1 2863   0.719   8.772   1.865 -0.2913  1.0137  0.8759
30295SOL    HW2 2864   0.737   8.622   1.872 -1.2127  0.7507 -1.4041
30296SOL     OW 2865   7.081   0.024   5.256 -0.1029  0.0096  0.3791
30296SOL    HW1 2866   7.081  -0.026   5.338  2.7893 -1.9609 -0.6597
30296SOL    HW2 2867   7.174   0.041   5.238 -0.6302  0.3915 -2.4614
30297SOL     OW 2868   3.773  10.366   3.305  0.2362  0.0342  0.1323
30297SOL    HW1 2869   3.793  10.441   3.249 -0.9093  0.6431  0.5082
30297SOL    HW2 2870   3.830  10.296   3.272  0.1431  0.5895 -1.2915
30298SOL     OW 2871   9.728   5.823   0.806 -0.0321 -0.4957 -0.1266
30298SOL    HW1 2872   9.711   5.903   0.856 -0.0277 -0.2365 -0.5335
30298SOL    HW2 2873   9.823   5.813   0.808 -0.0913 -0.9864  0.6776
30299SOL     OW 2874   2.520   7.754   2.431 -0.3460 -0.2503 -0.3047
30299SOL    HW1 2875   2.432   7.784   2.408 -1.2963 -1.2375  1.7931
30299SOL    HW2 2876   2.566   7.832   2.459 -0.0606  0.5048 -2.6702
30300SOL     OW 2877   3.054   0.695   9.060  0.5426  0.0953  0.2202
30300SOL    HW1 2878   3.070   0.701   9.155 -0.9800 -0.3071  0.5220
30300SOL    HW2 2879   2.962   0.669   9.053  0.6124  0.2237 -1.3812
30301SOL     OW 2880  10.088   6.696   9.357 -0.0573  0.0376 -0.5927
30301SOL    HW1 2881  10.182   6.700   9.345  0.0775 -0.1256  0.3211
30301SOL    HW2 2882  10.071   6.607   9.387 -0.4036  0.2980  0.0065
30302SOL     OW 2883   9.915   7.253   0.809  0.6694  0.3511  0.7026
30302SOL    HW1 2884   9.895   7.347   0.809  1.0442  0.4353 -0.1388
30302SOL    HW2 2885   9.924   7.230   0.717  1.3068 -0.3486  0.9275
30303SOL     OW 2886   4.283   7.365   9.486  0.8210  0.1448 -0.3350
30303SOL    HW1 2887   4.189   7.367   9.470  0.9908  0.0336 -1.3564
30303SOL    HW2 2888   4.320   7.425   9.421  1.2252  2.3949  1.7843
30304SOL     OW 2889   1.055   9.957   8.125  0.5744 -0.6051 -0.1672
30304SOL    HW1 2890   1.121   9.967   8.057  1.4417 -1.0392  0.5847
30304SOL    HW2 2891   1.095   9.995   8.203  0.3634 -1.7939  0.5491
30305SOL     OW 2892   4.875   8.590   9.354  0.5271 -0.1290  0.1634
30305SOL    HW1 2893   4.867   8.495   9.364 -0.1318 -0.0309  0.6297
30305SOL    HW2 2894   4.828   8.610   9.274  0.8101 -0.2118 -0.0254
30306SOL     OW 2895   7.553   7.080   6.669  0.6150 -0.0199 -0.0447
30306SOL    HW1 2896   7.498   7.039   6.602  2.1559 -2.6601  0.1841
30306SOL    HW2 2897   7.528   7.173   6.667 -0.0585 -0.1329 -3.5955
30307SOL     OW 2898   7.500   7.805   6.381  0.3495  0.2923  0.0608
30307SOL    HW1 2899   7.475   7.762   6.299  2.2094 -2.1120  0.6377
30307SOL    HW2 2900   7.591   7.831   6.369  0.5108  0.3214  1.1848
30308SOL     OW 2901   0.385   6.513   2.344  0.2854  0.4163  0.0568
30308SOL    HW1 2902   0.393   6.539   2.252 -1.4962 -2.9038 -1.2002
30308SOL    HW2 2903   0.309   6.562   2.376  0.4151  0.9905 -0.4868
30309SOL     OW 2904  10.334   1.060   3.950  0.2337  0.3944  0.3331
30309SOL    HW1 2905  10.257   1.068   3.893  0.0799  0.8384  0.6006
30309SOL    HW2 2906  10.385   0.990   3.910 -1.5756 -1.7772  1.5880
30310SOL     OW 2907   0.815   7.686   3.427  0.6564  0.1703  0.0971
30310SOL    HW1 2908   0.877   7.618   3.400 -1.0048 -1.8436  1.0548
30310SOL    HW2 2909   0.736   7.669   3.376 -0.8374 -0.6115  2.4811
30311SOL     OW 2910   9.696   3.392   6.384  0.0206  0.0149 -0.2116
30311SOL    HW1 2911   9.663   3.376   6.295 -1.4985 -0.8929  0.4754
30311SOL    HW2 2912   9.642   3.463   6.417 -1.1377 -1.3121  0.8396
30312SOL     OW 2913   7.598   3.030   9.335  0.3021 -0.4071 -0.3864
30312SOL    HW1 2914   7.638   3.018   9.249  0.8116  1.7756 -0.5199
30312SOL    HW2 2915   7.622   2.951   9.384  1.2790 -1.0078 -1.7535
30313SOL     OW 2916   7.968   5.152   8.453 -0.0502 -0.1781  0.0656
30313SOL    HW1 2917   7.983   5.207   8.530 -0.7525  2.4726 -1.5532
30313SOL    HW2 2918   8.051   5.107   8.439  0.1509 -0.5854  2.2200
30314SOL     OW 2919   8.238  10.166   6.058  0.3335 -0.6745  0.3521
30314SOL    HW1 2920   8.273  10.204   6.138 -0.2874 -1.4474  1.0069
30314SOL    HW2 2921   8.315  10.148   6.004  0.6285  2.1576 -0.3195
30315SOL     OW 2922   9.556   7.302   8.873 -0.6519 -0.6301 -0.3072
30315SOL    HW1 2923   9.548   7.318   8.779  1.0701 -2.1642 -0.7661
30315SOL    HW2 2924   9.519   7.215   8.885 -1.3222 -0.2415  0.5482
30316SOL     OW 2925   4.558   2.654   4.550  0.0631  0.1692 -0.2234
30316SOL    HW1 2926   4.594   2.714   4.616  0.0345 -0.4450  0.3572
30316SOL    HW2 2927   4.464   2.655   4.564 -0.1121  1.1979 -1.2580
30317SOL     OW 2928   3.722   7.654   3.902  0.3457 -0.2420  0.0024
30317SOL    HW1 2929   3.728   7.692   3.990 -0.2507  2.6751 -1.0974
30317SOL    HW2 2930   3.628   7.653   3.884  0.5424  0.8973 -1.2262
30318SOL     OW 2931   9.605   7.597   2.233 -0.6113  0.5917  0.2676
30318SOL    HW1 2932   9.697   7.572   2.224 -1.3816 -2.0337 -1.5496
30318SOL    HW2 2933   9.601   7.645   2.316  2.2711  0.2522  0.7087
30319SOL     OW 2934   8.974   7.543   8.693 -0.2317  0.1470 -0.5928
30319SOL    HW1 2935   8.984   7.473   8.758  2.0908 -0.2384 -1.2565
30319SOL    HW2 2936   9.003   7.503   8.611  0.5586  1.7066 -1.1131
30320SOL     OW 2937   1.270   2.067   1.783 -0.0355  0.2477 -0.1579
30320SOL    HW1 2938   1.223   2.100   1.707 -0.5543 -1.3668 -0.5744
30320SOL    HW2 2939   1.204   2.066   1.853  0.0890  0.4692 -0.0352
30321SOL     OW 2940   6.069   7.928   2.550  0.1427 -0.4111 -0.0012
30321SOL    HW1 2941   6.100   8.009   2.590 -1.4780 -0.3767  1.3437
30321SOL    HW2 2942   6.123   7.859   2.589  0.0397 -0.1601  0.6040
30322SOL     OW 2943   6.926   4.092   6.523 -0.1391 -0.0076  0.2987
30322SOL    HW1 2944   6.859   4.121   6.584 -0.5317  0.8240 -0.5185
30322SOL    HW2 2945   7.008   4.100   6.572 -0.6247 -1.3648  1.4236
30323SOL     OW 2946   4.315   4.433   3.510 -0.1008 -0.1474 -0.3527
30323SOL    HW1 2947   4.349   4.441   3.421 -1.5391  0.9614 -0.8369
30323SOL    HW2 2948   4.259   4.510   3.521  1.1913  0.5343  2.0381
30324SOL     OW 2949   5.396   4.816   9.577  0.3207  0.0836  0.2500
30324SOL    HW1 2950   5.343   4.788   9.503  0.2336 -1.8860  0.9892
30324SOL    HW2 2951   5.333   4.837   9.646  0.3755  2.4796 -0.3468
30325SOL     OW 2952  10.021   0.811   8.646 -0.0649  0.1534  0.0141
30325SOL    HW1 2953   9.995   0.783   8.558 -0.1978  1.0132 -0.2307
30325SOL    HW2 2954   9.986   0.899   8.654 -1.4106 -0.4804  1.5369
30326SOL     OW 2955   6.161   1.005   1.998 -0.3468  0.1349 -0.3370
30326SOL    HW1 2956   6.184   0.928   2.049 -0.2072  0.5678  0.2652
30326SOL    HW2 2957   6.077   1.034   2.033 -0.7754 -0.1809 -1.0766
30327SOL     OW 2958   7.356   8.023   0.366 -0.1603 -0.1984  0.2836
30327SOL    HW1 2959   7.368   7.930   0.350 -0.1976 -0.2459  0.5170
30327SOL    HW2 2960   7.333   8.028   0.459  4.1647  0.3638  1.5628
30328SOL     OW 2961   8.277   5.909   7.879 -0.4725 -0.1530  0.0790
30328SOL    HW1 2962   8.327   5.981   7.917 -0.5949  1.5564 -2.7413
30328SOL    HW2 2963   8.338   5.866   7.818 -0.5434 -2.2466  1.3685
30329SOL     OW 2964   0.206   2.313   6.759 -0.0520  0.2394  0.0014
30329SOL    HW1 2965   0.219   2.382   6.824 -0.7912  1.1148 -0.7321
30329SOL    HW2 2966   0.143   2.351   6.697 -2.1819 -1.8811  0.7288
30330SOL     OW 2967   4.638   5.650   5.893  0.0549 -0.0308  0.3641
30330SOL    HW1 2968   4.662   5.734   5.932 -1.3470 -0.2593  1.8106
30330SOL    HW2 2969   4.543   5.643   5.907 -0.0233 -1.4198 -0.6166
30331SOL     OW 2970   2.162   4.546   4.922 -0.0401  0.0665 -0.2264
30331SOL    HW1 2971   2.135   4.609   4.989 -1.5929 -1.0792  0.2892
30331SOL    HW2 2972   2.257   4.554   4.918 -0.1565  2.1539  0.0814
30332SOL     OW 2973   2.895   2.943   5.748 -0.4090  0.1644  0.0300
30332SOL    HW1 2974   2.891   2.870   5.686  1.1218 -0.2377  0.3599
30332SOL    HW2 2975   2.852   3.015   5.702  0.1122 -0.3085 -1.2536
30333SOL     OW 2976   6.568   5.579   3.439 -0.0665  0.3876  0.3403
30333SOL    HW1 2977   6.493   5.596   3.384  0.6682  0.3183 -0.7109
30333SOL    HW2 2978   6.634   5.642   3.410  1.2915 -1.4791 -0.8390
30334SOL     OW 2979   8.659   6.942   8.753  0.1718 -0.0232  0.5490
30334SOL    HW1 2980   8.607   6.871   8.789  1.1693 -2.2419 -2.0185
30334SOL    HW2 2981   8.596   6.995   8.703 -0.2495 -0.3877  0.6961
30335SOL     OW 2982   4.848   6.344   8.955 -1.0953  0.1225  0.5187
30335SOL    HW1 2983   4.859   6.400   8.878 -0.4235 -1.2978 -0.4567
30335SOL    HW2 2984   4.774   6.287   8.932 -0.5111 -0.7075  0.6523
30336SOL     OW 2985   6.601   2.628   5.535 -0.5113 -0.0712  0.2266
30336SOL    HW1 2986   6.591   2.722   5.524 -1.3823 -0.1630  0.1761
30336SOL    HW2 2987   6.647   2.618   5.618  1.1269  0.4407 -0.5814
30337SOL     OW 2988   7.751   6.339   1.649  0.4481 -0.3655  0.0786
30337SOL    HW1 2989   7.733   6.256   1.692  0.5604 -0.2328  0.3804
30337SOL    HW2 2990   7.814   6.317   1.580 -0.6963 -0.8007 -0.8613
30338SOL     OW 2991   3.279   0.589   9.208 -0.2957 -0.0771  0.4005
30338SOL    HW1 2992   3.224   0.627   9.140  0.3784 -0.7851 -0.5620
30338SOL    HW2 2993   3.333   0.662   9.239 -0.1308  0.1038 -0.3032
30339SOL     OW 2994   2.193   3.761   9.818 -0.2463  0.2838  0.4536
30339SOL    HW1 2995   2.268   3.748   9.760 -0.9471  0.1534 -0.4504
30339SOL    HW2 2996   2.229   3.754   9.907  0.7735  0.0677  0.0329
30340SOL     OW 2997   1.794   1.683   3.928 -0.2947 -0.0236  0.5576
30340SOL    HW1 2998   1.718   1.725   3.969 -0.5161 -0.4592  0.6013
30340SOL    HW2 2999   1.787   1.706   3.835 -1.5916 -1.6616  0.1929
30341SOL     OW 3000   1.906   6.448   2.358  0.5679 -0.2303  0.4852
30341SOL    HW1 3001   1.879   6.540   2.361  0.3096 -0.2515 -0.7597
30341SOL    HW2 3002   1.900   6.425   2.265  1.1878 -1.3413  0.7179
30342SOL     OW 3003   9.802   9.161   0.087  0.2133 -0.0955 -0.0820
30342SOL    HW1 3004   9.807   9.068   0.062 -1.5888 -1.0063  2.5669
30342SOL    HW2 3005   9.861   9.168   0.162  0.2256  0.9062 -0.1748
30343SOL     OW 3006   8.822   1.206   4.486 -0.6283  0.3715 -0.5802
30343SOL    HW1 3007   8.865   1.281   4.526 -1.1426 -0.7152  2.2387
30343SOL    HW2 3008   8.731   1.233   4.477 -0.5762  0.4987 -0.7401
30344SOL     OW 3009   5.282   8.706   8.437 -0.0456 -0.4642  0.2977
30344SOL    HW1 3010   5.253   8.617   8.414  0.4130 -0.6246  0.3409
30344SOL    HW2 3011   5.201   8.757   8.438 -0.0967 -0.4094 -1.8140
30345SOL     OW 3012   9.882   2.040   0.290  0.3000  0.4784 -0.5124
30345SOL    HW1 3013   9.961   2.008   0.247 -0.1115  0.5490 -1.3308
30345SOL    HW2 3014   9.888   2.006   0.379  0.4221 -0.9242 -1.0439
30346SOL     OW 3015   3.270   7.921   5.615 -0.0030  0.1145 -0.0958
30346SOL    HW1 3016   3.236   7.978   5.684 -1.3164 -0.8382  0.0833
30346SOL    HW2 3017   3.260   7.971   5.534 -0.3643  0.4460  0.1551
30347SOL     OW 3018   1.229   2.131   8.524  0.3885 -0.7940 -0.0533
30347SOL    HW1 3019   1.144   2.099   8.494  0.8902 -1.6973 -0.5941
30347SOL    HW2 3020   1.236   2.100   8.614 -0.1838 -0.0166  0.2680
30348SOL     OW 3021   1.476   7.541   1.820 -0.2303 -0.1934  0.2138
30348SOL    HW1 3022   1.547   7.572   1.763 -2.0665  0.1088 -2.0551
30348SOL    HW2 3023   1.515   7.468   1.869  1.5901 -0.1389 -1.0563
30349SOL     OW 3024   4.189   2.458   8.716 -0.0964 -0.4868 -0.2627
30349SOL    HW1 3025   4.238   2.540   8.726 -0.1926 -0.4861  0.1934
30349SOL    HW2 3026   4.163   2.457   8.624 -1.3976  0.7358  0.0517
30350SOL     OW 3027   7.207   3.565   7.767 -0.0982  0.1933  0.0055
30350SOL    HW1 3028   7.260   3.521   7.701  1.1381  0.0279  1.0807
30350SOL    HW2 3029   7.270   3.604   7.828 -1.1990  0.0163  1.3136
30351SOL     OW 3030   7.715   6.063   5.407 -0.0094 -0.3596  0.4918
30351SOL    HW1 3031   7.719   6.156   5.384  0.1421 -0.5866 -0.4656
30351SOL    HW2 3032   7.776   6.053   5.479  1.5089 -0.0711 -0.6981
30352SOL     OW 3033   9.586   3.564   1.580 -0.3108 -0.7214  0.1529
30352SOL    HW1 3034   9.529   3.529   1.649  0.0521 -0.7558  0.4412
30352SOL    HW2 3035   9.665   3.592   1.626 -0.8614  1.1497  0.0242
30353SOL     OW 3036   6.393   5.495   5.411 -0.2435  0.4821 -0.1682
30353SOL    HW1 3037   6.483   5.479   5.441 -0.0780  1.9270  0.1751
30353SOL    HW2 3038   6.404   5.523   5.320 -0.3174  0.9120 -0.0461
30354SOL     OW 3039   6.817   8.626   6.985 -0.3853 -0.8610  0.6789
30354SOL    HW1 3040   6.867   8.618   6.903 -0.0146 -2.2027  1.0021
30354SOL    HW2 3041   6.734   8.581   6.967 -1.5013  1.2815  0.1748
30355SOL     OW 3042   1.658   7.231   9.199 -0.3231  0.6971  0.1270
30355SOL    HW1 3043   1.643   7.192   9.112 -1.1780 -1.9333  1.3295
30355SOL    HW2 3044   1.586   7.197   9.253  0.3743  1.9858  1.9548
30356SOL     OW 3045  10.175   9.262   3.596  0.4272 -0.2030 -0.4743
30356SOL    HW1 3046  10.137   9.349   3.608 -1.2739 -0.6624 -2.1464
30356SOL    HW2 3047  10.270   9.276   3.605  0.2276  1.9208 -1.1459
30357SOL     OW 3048   4.046   0.827   3.480  0.8223 -0.0234  0.1222
30357SOL    HW1 3049   4.066   0.824   3.386  1.6822 -0.0537  0.2936
30357SOL    HW2 3050   4.024   0.737   3.504  0.3888  0.0250 -0.0938
30358SOL     OW 3051   0.475   8.349   1.419  0.0355 -0.3852  0.2771
30358SOL    HW1 3052   0.478   8.263   1.377 -1.1872  0.2623 -1.2235
30358SOL    HW2 3053   0.383   8.365   1.438  0.2966  0.4075  0.9882
30359SOL     OW 3054   6.532   1.684   0.528  0.3167  0.0108 -0.3287
30359SOL    HW1 3055   6.461   1.621   0.543 -0.8342  0.9449 -1.5809
30359SOL    HW2 3056   6.583   1.646   0.456  1.7931 -1.1783  1.2568
30360SOL     OW 3057   8.754   2.243   3.102 -0.1523 -0.8539  0.1317
30360SOL    HW1 3058   8.793   2.290   3.029 -1.0263  0.1762  0.3016
30360SOL    HW2 3059   8.801   2.160   3.105  0.8549 -0.3374 -0.7087
30361SOL     OW 3060   2.238   0.954   9.227 -0.7576 -0.4198 -0.4769
30361SOL    HW1 3061   2.207   0.931   9.139 -0.5726  0.5321 -0.7999
30361SOL    HW2 3062   2.306   0.889   9.246  0.5082  0.4390 -1.8179
30362SOL     OW 3063   2.723   7.708   6.707 -0.1897  0.2743 -0.3379
30362SOL    HW1 3064   2.762   7.669   6.629  0.3702  2.8437 -1.4777
30362SOL    HW2 3065   2.657   7.645   6.736  1.0867 -1.7337 -1.5699
30363SOL     OW 3066   4.797   4.716   5.989 -0.2251 -0.2345  0.3204
30363SOL    HW1 3067   4.756   4.801   6.003 -2.3037 -1.0830 -0.3401
30363SOL    HW2 3068   4.889   4.731   6.012 -0.3848  2.3348 -0.3631
30364SOL     OW 3069   9.938   4.661   6.900 -0.4245  0.3842  0.2753
30364SOL    HW1 3070   9.958   4.635   6.990  0.3305 -0.3869 -0.1029
30364SOL    HW2 3071  10.006   4.619   6.848  0.0457  2.0756 -0.5111
30365SOL     OW 3072   1.733   4.755   1.098 -0.0406 -0.1619  0.3189
30365SOL    HW1 3073   1.713   4.848   1.090  1.0051  0.1136  0.7442
30365SOL    HW2 3074   1.760   4.729   1.010 -1.0929 -0.2646  0.0136
30366SOL     OW 3075   4.006   9.954   4.770 -0.1706 -0.3115  0.1514
30366SOL    HW1 3076   3.920   9.939   4.807  0.1887 -0.1742  1.0648
30366SOL    HW2 3077   4.022  10.047   4.782 -0.5795  0.0144 -1.5447
30367SOL     OW 3078   3.848   6.379   7.039 -0.4198 -0.0685 -0.8859
30367SOL    HW1 3079   3.803   6.295   7.030  0.7535 -0.6794 -1.2485
30367SOL    HW2 3080   3.939   6.356   7.053 -0.3420  1.1175  0.9336
30368SOL     OW 3081   3.488   8.444   3.573  0.6110 -0.4899 -0.0731
30368SOL    HW1 3082   3.569   8.412   3.533  1.1383 -1.4243  1.6236
30368SOL    HW2 3083   3.476   8.388   3.650 -2.4397 -1.3417 -1.0427
30369SOL     OW 3084   7.932   4.534  10.174 -0.5310  0.7371  0.1626
30369SOL    HW1 3085   7.898   4.598  10.111 -1.2514  0.1712 -0.0397
30369SOL    HW2 3086   7.872   4.539  10.248 -1.6083 -0.8732 -0.5473
30370SOL     OW 3087   5.051   4.272   8.905 -0.1322 -1.0239  0.2334
30370SOL    HW1 3088   5.047   4.363   8.877 -0.1776 -0.7228  1.1843
30370SOL    HW2 3089   4.995   4.225   8.843 -0.7154 -0.2830  0.1895
30371SOL     OW 3090   1.223   5.280   3.192  0.1753 -0.1224 -0.5890
30371SOL    HW1 3091   1.157   5.318   3.135  0.3614  0.4074 -0.4608
30371SOL    HW2 3092   1.263   5.209   3.141 -0.0880 -0.0582 -0.8796
30372SOL     OW 3093   6.364   8.888   0.917 -0.1065 -0.3055 -0.3693
30372SOL    HW1 3094   6.342   8.812   0.862  1.5097 -0.5771 -0.7104
30372SOL    HW2 3095   6.377   8.851   1.005 -0.2138 -0.2804 -0.3430
30373SOL     OW 3096   7.751   2.777   6.460  0.1863  0.4069 -0.0598
30373SOL    HW1 3097   7.712   2.771   6.547  1.4025 -1.6420  0.4060
30373SOL    HW2 3098   7.845   2.788   6.476  0.3565  0.5984 -1.1228
30374SOL     OW 3099   2.932   5.021   7.425  0.0071 -0.7021 -0.0693
30374SOL    HW1 3100   2.952   4.979   7.341  0.1959 -0.6114 -0.0708
30374SOL    HW2 3101   2.888   4.953   7.476  1.2531 -1.2466  0.3222
30375SOL     OW 3102   7.974   4.441   7.247  0.3039 -0.1385  0.4190
30375SOL    HW1 3103   8.044   4.409   7.190 -0.4552 -0.0031 -0.6311
30375SOL    HW2 3104   8.019   4.484   7.320  1.3341  0.7917 -0.7118
30376SOL     OW 3105   4.922   6.774   5.140 -0.1162  0.5961  0.4105
30376SOL    HW1 3106   4.868   6.802   5.215 -1.0205 -1.2712  0.5185
30376SOL    HW2 3107   4.873   6.701   5.101  1.9461 -0.6589  0.0025
30377SOL     OW 3108   5.357   0.542   8.045  0.0110 -0.2398 -0.4541
30377SOL    HW1 3109   5.288   0.605   8.026  0.6147  0.6173  0.1133
30377SOL    HW2 3110   5.314   0.474   8.098 -0.7925 -0.6638 -1.6144
30378SOL     OW 3111  10.120   7.847   0.130 -0.1640  0.0361 -0.6964
30378SOL    HW1 3112  10.028   7.841   0.106  0.1957 -2.4080 -1.8148
30378SOL    HW2 3113  10.167   7.807   0.056  1.3846 -3.2342  1.8126
30379SOL     OW 3114   3.110   6.627   9.460  0.1857 -0.4929 -0.4551
30379SOL    HW1 3115   3.104   6.665   9.373  6.1260 -0.5892 -1.3013
30379SOL    HW2 3116   3.110   6.533   9.446  1.4847 -0.5039 -0.4218
30380SOL     OW 3117   4.999   9.543   0.421 -0.5696  0.0057 -0.5945
30380SOL    HW1 3118   5.011   9.622   0.368  1.6209  1.1089  1.3644
30380SOL    HW2 3119   4.924   9.563   0.477 -0.0657  0.6709 -0.1533
30381SOL     OW 3120   0.246   0.782   5.437  0.5714 -0.0955  0.0107
30381SOL    HW1 3121   0.310   0.753   5.503 -0.3081  1.8339  1.8287
30381SOL    HW2 3122   0.162   0.752   5.472  0.3488 -3.4141 -2.7936
30382SOL     OW 3123  10.122   1.484   4.350  0.5847  0.1474  0.4375
30382SOL    HW1 3124  10.051   1.422   4.367  0.1555  0.8631  1.3049
30382SOL    HW2 3125  10.091   1.535   4.275  0.9555 -0.6933 -0.3015
30383SOL     OW 3126   7.167   1.758   3.250  0.1046 -0.2807  0.0162
30383SOL    HW1 3127   7.255   1.790   3.234 -0.2464  0.8083  0.1709
30383SOL    HW2 3128   7.151   1.695   3.179  0.1388  1.2798 -1.4522
30384SOL     OW 3129   7.394  10.174   4.781  0.3979  0.0717 -0.3164
30384SOL    HW1 3130   7.465  10.221   4.738 -0.5928  0.5475 -1.5019
30384SOL    HW2 3131   7.316  10.226   4.762 -0.5331 -1.3544 -0.5392
30385SOL     OW 3132   5.042   0.348   6.887 -0.3841 -0.0845 -0.2563
30385SOL    HW1 3133   5.028   0.262   6.847 -0.4959  1.4423 -3.9652
30385SOL    HW2 3134   4.954   0.380   6.905 -0.3399 -0.7078  1.1998
30386SOL     OW 3135   5.980   3.322   0.398 -0.5412  0.5486 -0.0004
30386SOL    HW1 3136   5.955   3.414   0.398  3.1040  1.6875 -0.4083
30386SOL    HW2 3137   6.057   3.317   0.341 -1.0853 -2.9423 -0.6798
30387SOL     OW 3138   0.737   1.872   3.624 -0.4720 -0.3923  0.1430
30387SOL    HW1 3139   0.676   1.944   3.606 -0.6664 -1.2340 -3.2728
30387SOL    HW2 3140   0.801   1.909   3.685 -1.3560  2.2416 -0.4090
30388SOL     OW 3141   7.422  10.100   7.648  0.1079 -0.1085 -0.0314
30388SOL    HW1 3142   7.461  10.013   7.638  0.6020  0.0705  0.2960
30388SOL    HW2 3143   7.351  10.087   7.712 -0.5409 -0.4844 -0.8132
30389SOL     OW 3144   3.804   9.531   9.275 -0.2236  0.2976 -0.0554
30389SOL    HW1 3145   3.846   9.470   9.214  0.5601  0.3595  0.4104
30389SOL    HW2 3146   3.727   9.562   9.228  0.3085  0.2639 -0.9758
30390SOL     OW 3147   6.826   4.917   0.707 -0.2009 -0.6395 -0.0564
30390SOL    HW1 3148   6.819   4.906   0.613  2.9266 -1.8097 -0.2886
30390SOL    HW2 3149   6.917   4.943   0.721 -0.7761  0.2751  2.6073
30391SOL     OW 3150   8.386   9.471   3.605  0.1002  0.1129 -0.1879
30391SOL    HW1 3151   8.449   9.490   3.537 -0.3064 -0.7697 -0.8323
30391SOL    HW2 3152   8.303   9.459   3.559 -0.1730 -0.5487  0.4485
30392SOL     OW 3153   6.706   4.554   5.567 -0.2718 -0.0151 -1.1602
30392SOL    HW1 3154   6.679   4.503   5.643  0.5090 -1.0166 -1.5455
30392SOL    HW2 3155   6.745   4.634   5.604 -0.2175 -0.3340 -0.5231
30393SOL     OW 3156   9.574   3.179   8.285 -0.5840 -0.3419  0.7356
30393SOL    HW1 3157   9.610   3.096   8.316  1.3027 -0.1326 -0.7357
30393SOL    HW2 3158   9.547   3.225   8.364  1.1814 -1.0917  1.8205
30394SOL     OW 3159   0.612   6.517   7.405  0.5768  0.1527  0.2432
30394SOL    HW1 3160   0.536   6.569   7.428  1.0611  0.7052  0.5982
30394SOL    HW2 3161   0.595   6.490   7.314  0.1656  0.6411  0.1694
30395SOL     OW 3162   8.875   5.932   0.170  0.1310  0.7504  0.1041
30395SOL    HW1 3163   8.960   5.950   0.209  0.8934  0.6772 -1.4488
30395SOL    HW2 3164   8.859   6.007   0.112 -1.0550  0.9625  0.6721
30396SOL     OW 3165   7.545   2.156  10.034 -0.0858 -0.1315  0.6411
30396SOL    HW1 3166   7.607   2.108  10.089 -0.3468 -1.6234 -0.3243
30396SOL    HW2 3167   7.498   2.213  10.095  0.5643 -0.7447  1.7485
30397SOL     OW 3168   7.232   7.073  10.121 -0.3098 -0.0502 -0.0273
30397SOL    HW1 3169   7.210   7.124  10.199 -0.3944  0.1485 -0.1796
30397SOL    HW2 3170   7.205   7.129  10.048  2.1725  0.9637 -0.2936
30398SOL     OW 3171   0.146   4.817   7.046 -0.0102 -1.1110  0.5201
30398SOL    HW1 3172   0.083   4.880   7.010  2.9067  1.0675 -1.1934
30398SOL    HW2 3173   0.175   4.856   7.129  1.0486 -0.6567 -0.0438
30399SOL     OW 3174   7.287   6.343   9.800 -0.2204 -0.2048 -0.1673
30399SOL    HW1 3175   7.238   6.420   9.826 -0.7764 -0.8704  0.8073
30399SOL    HW2 3176   7.374   6.376   9.777 -0.6531  0.7834 -0.4139
30400SOL     OW 3177   3.306   8.912   2.995  0.0349 -0.2541 -0.3248
30400SOL    HW1 3178   3.330   8.967   2.920  0.3415  1.6760  1.0955
30400SOL    HW2 3179   3.338   8.825   2.972 -0.0477  0.2112 -2.4958
30401SOL     OW 3180   4.513   3.732   7.714  0.0632  0.0377  0.0041
30401SOL    HW1 3181   4.552   3.801   7.660 -0.4423  0.5836  0.3207
30401SOL    HW2 3182   4.420   3.753   7.715 -0.5007 -1.9736 -1.8243
30402SOL     OW 3183   2.791   5.752   2.646 -0.0033 -0.0075  0.0005
30402SOL    HW1 3184   2.855   5.822   2.654 -1.2236  1.0343  1.2516
30402SOL    HW2 3185   2.843   5.671   2.649  1.3334  0.8096 -0.3019
30403SOL     OW 3186   6.475   0.317   5.219  0.4683  0.1644  0.1699
30403SOL    HW1 3187   6.545   0.331   5.155  0.4601  2.5176  0.5999
30403SOL    HW2 3188   6.508   0.248   5.277  1.9147  0.4227 -0.3282
30404SOL     OW 3189   7.783   1.977   0.510 -0.1181 -0.2883  0.1647
30404SOL    HW1 3190   7.858   1.920   0.526  2.1522  2.4704  0.2023
30404SOL    HW2 3191   7.734   1.977   0.593  0.5482 -1.1633  0.5698
30405SOL     OW 3192   1.637   5.934   9.239  0.2827 -0.3897  0.0554
30405SOL    HW1 3193   1.556   5.942   9.189  1.7561  0.4336 -2.3302
30405SOL    HW2 3194   1.639   5.843   9.268 -2.1043 -0.1020  1.3744
30406SOL     OW 3195   1.943   9.195   9.178  0.5040  0.4873  0.5101
30406SOL    HW1 3196   1.898   9.273   9.147 -1.4078 -0.6805  0.1888
30406SOL    HW2 3197   2.036   9.217   9.173  0.0481  2.3639 -0.5215
30407SOL     OW 3198   6.697   9.133   5.451  0.4700 -0.0423 -0.1646
30407SOL    HW1 3199   6.657   9.070   5.391 -0.8113  2.3135 -1.9343
30407SOL    HW2 3200   6.638   9.135   5.527 -0.5001  0.2977 -0.9010
30408SOL     OW 3201   9.749   2.237   6.395 -0.1104 -0.2015  0.1967
30408SOL    HW1 3202   9.790   2.322   6.410 -2.1828  0.8546  0.1961
30408SOL    HW2 3203   9.805   2.194   6.331  1.4482  0.7949  0.8459
30409SOL     OW 3204   3.042   4.188   5.624 -0.2154 -0.2198  0.6352
30409SOL    HW1 3205   2.985   4.187   5.701 -1.4076 -0.9235 -0.2255
30409SOL    HW2 3206   2.990   4.148   5.555  0.2877  1.6380 -0.9273
30410SOL     OW 3207   0.767   6.294   3.499  0.1673 -0.1674 -0.4950
30410SOL    HW1 3208   0.859   6.318   3.496 -0.1497  1.1728  0.0024
30410SOL    HW2 3209   0.722   6.363   3.450 -0.5437 -1.0621 -1.1568
30411SOL     OW 3210   1.000   0.385   7.384 -0.4317  0.3899 -0.6830
30411SOL    HW1 3211   0.976   0.427   7.302  2.2460  1.5105 -0.9930
30411SOL    HW2 3212   1.094   0.402   7.394 -0.2288 -1.4567  1.6049
30412SOL     OW 3213   9.016   2.040   2.891 -0.6531 -0.2561 -0.0746
30412SOL    HW1 3214   8.967   2.004   2.965 -0.8761 -1.1595 -0.6490
30412SOL    HW2 3215   9.049   1.963   2.844  2.6665  0.2680  1.1379
30413SOL     OW 3216   0.893   4.224   2.221 -0.7044 -0.2336  0.0825
30413SOL    HW1 3217   0.818   4.280   2.204  1.9697  3.4948 -0.8124
30413SOL    HW2 3218   0.925   4.199   2.135  0.0504 -0.3263  0.3789
30414SOL     OW 3219   8.873   9.701   5.060  0.1522  0.0213 -0.2638
30414SOL    HW1 3220   8.912   9.632   5.114  0.0397 -0.5981 -0.9545
30414SOL    HW2 3221   8.790   9.722   5.104 -0.0818 -0.6889 -0.3508
30415SOL     OW 3222   4.805   6.575   6.164  0.1772  0.7243 -0.1638
30415SOL    HW1 3223   4.779   6.663   6.191  0.3735  0.9562 -0.7204
30415SOL    HW2 3224   4.869   6.548   6.230  0.4089  1.1554 -0.2085
30416SOL     OW 3225   9.261   0.113   5.701  0.1155  0.0906 -0.5682
30416SOL    HW1 3226   9.223   0.194   5.665 -1.5805 -0.6837 -0.6381
30416SOL    HW2 3227   9.309   0.074   5.628 -1.7855 -0.5573 -1.5375
30417SOL     OW 3228   8.828   8.358   3.974  0.2127 -0.0479  0.2558
30417SOL    HW1 3229   8.905   8.407   4.003 -0.0754  0.0712  0.8192
30417SOL    HW2 3230   8.774   8.422   3.929  0.4488 -0.1369 -0.1592
30418SOL     OW 3231   1.128  10.361   4.169 -0.3728 -0.2210 -0.4632
30418SOL    HW1 3232   1.182  10.294   4.211  0.9601  1.5386  0.7846
30418SOL    HW2 3233   1.038  10.327   4.175  0.0753 -1.1767  1.5417
30419SOL     OW 3234   5.319   2.147   3.639  0.2519  0.0782 -0.3621
30419SOL    HW1 3235   5.369   2.164   3.718  0.0128 -1.9493  0.2812
30419SOL    HW2 3236   5.366   2.193   3.570  0.5258  1.7927  0.9157
30420SOL     OW 3237   1.836   7.051   2.461  0.2841 -0.1170 -0.0425
30420SOL    HW1 3238   1.761   6.996   2.481  0.7624 -0.9493 -0.4728
30420SOL    HW2 3239   1.818   7.134   2.505 -0.1790 -0.8109  1.1324
30421SOL     OW 3240   8.946   2.897   8.769  1.0483 -0.0622  0.4368
30421SOL    HW1 3241   9.039   2.899   8.747  0.9429 -0.1793 -0.0394
30421SOL    HW2 3242   8.901   2.893   8.684  0.5768  0.9565  0.6122
30422SOL     OW 3243   1.613   6.963   8.611  0.4791  0.0094 -0.0998
30422SOL    HW1 3244   1.543   6.936   8.670  0.6105 -0.1802 -0.0290
30422SOL    HW2 3245   1.571   7.023   8.549  0.0947 -0.7072 -0.5346
30423SOL     OW 3246   3.462  10.331   3.813 -0.0436  0.7940 -0.4890
30423SOL    HW1 3247   3.470  10.249   3.765 -1.2025 -0.7922  1.8790
30423SOL    HW2 3248   3.550  10.348   3.847  0.2051  0.5615 -1.0101
30424SOL     OW 3249   6.767   1.815   6.090 -0.0522  0.1386  0.0086
30424SOL    HW1 3250   6.854   1.832   6.126  0.4693 -0.3469 -0.9769
30424SOL    HW2 3251   6.761   1.870   6.013 -1.0255  0.9073  0.5999
30425SOL     OW 3252   4.379   6.271   6.490 -0.1790  0.0332 -0.5112
30425SOL    HW1 3253   4.441   6.229   6.550  0.8470 -0.5213 -1.9005
30425SOL    HW2 3254   4.407   6.362   6.486  1.0442 -0.3585 -1.6655
30426SOL     OW 3255   6.911   4.626   8.558  0.2274 -0.5191  0.6739
30426SOL    HW1 3256   6.825   4.615   8.597  0.4151  0.3522  1.3739
30426SOL    HW2 3257   6.914   4.719   8.532  0.7411 -0.6787  0.1341
30427SOL     OW 3258   8.793   3.393   9.504  0.3172  0.5362 -0.4131
30427SOL    HW1 3259   8.707   3.432   9.488  0.4195  0.0684 -2.4194
30427SOL    HW2 3260   8.851   3.467   9.521 -0.4183  0.8692  0.7524
30428SOL     OW 3261   7.583   9.134   7.411 -0.2463 -0.6309 -0.0910
30428SOL    HW1 3262   7.601   9.045   7.443 -0.4884 -0.6177  0.0849
30428SOL    HW2 3263   7.520   9.169   7.474 -1.1602 -0.8042 -0.8873
30429SOL     OW 3264   5.342   6.680   8.141  0.0145  0.0355  0.0896
30429SOL    HW1 3265   5.268   6.626   8.113  0.0278  0.2938 -0.4583
30429SOL    HW2 3266   5.376   6.637   8.219  0.8995 -1.5501 -1.1178
30430SOL     OW 3267   8.926   7.857   0.257 -0.4088  0.1156 -0.3310
30430SOL    HW1 3268   8.892   7.767   0.257 -0.8248  0.2695 -0.8206
30430SOL    HW2 3269   9.020   7.847   0.274 -0.5962 -0.3547  0.4663
30431SOL     OW 3270   7.755   8.513   3.054  0.0487  0.3578 -0.1429
30431SOL    HW1 3271   7.826   8.448   3.050  1.0790  1.4972 -1.2176
30431SOL    HW2 3272   7.737   8.534   2.963  1.7529  3.6614  0.1378
30432SOL     OW 3273   8.091   7.515   3.927  0.3498  0.0040  0.0469
30432SOL    HW1 3274   8.019   7.577   3.914 -0.4485 -0.5983  1.3408
30432SOL    HW2 3275   8.162   7.567   3.965 -0.5502  0.0545  1.7677
30433SOL     OW 3276   7.419   1.718   9.805  0.6055 -0.2652 -0.0801
30433SOL    HW1 3277   7.512   1.695   9.806  0.4100 -1.0619  0.9003
30433SOL    HW2 3278   7.397   1.734   9.897 -0.0127  0.8657 -0.4011
30434SOL     OW 3279   2.164   4.812   9.380  0.3394  0.2931  0.3773
30434SOL    HW1 3280   2.199   4.788   9.466 -0.0533  3.1258  1.4344
30434SOL    HW2 3281   2.077   4.772   9.379  0.7335 -0.6166  0.8445
30435SOL     OW 3282   6.112   6.379   5.959 -0.2019  0.2959 -0.4270
30435SOL    HW1 3283   6.199   6.405   5.988 -0.7644  1.2466  0.4948
30435SOL    HW2 3284   6.062   6.368   6.040 -1.3748  1.4094 -0.9688
30436SOL     OW 3285   2.898   1.532   9.599 -0.2312 -0.1158 -0.4011
30436SOL    HW1 3286   2.857   1.518   9.684  0.6607  1.5174  0.3318
30436SOL    HW2 3287   2.826   1.528   9.537 -0.6100 -4.0611  0.0106
30437SOL     OW 3288   4.399   0.022   8.369  0.3889  0.1367  0.0095
30437SOL    HW1 3289   4.421   0.057   8.455  2.9433  0.3838 -0.6484
30437SOL    HW2 3290   4.350  -0.058   8.387 -0.9741  1.2604  1.6143
30438SOL     OW 3291   3.674   5.888   9.215 -0.0070 -0.2271 -0.0308
30438SOL    HW1 3292   3.708   5.839   9.140 -1.7196 -3.4591  1.1163
30438SOL    HW2 3293   3.618   5.955   9.176  0.3670 -0.8195 -1.6794
30439SOL     OW 3294   7.620   8.348   3.255  0.0235  0.1060  0.5606
30439SOL    HW1 3295   7.671   8.404   3.197  1.0972 -3.0680 -1.8976
30439SOL    HW2 3296   7.686   8.303   3.309 -0.3210 -1.8059 -0.5158
30440SOL     OW 3297  10.129   4.449   8.691 -0.0199  0.0383  0.3762
30440SOL    HW1 3298  10.076   4.516   8.648 -0.8578 -0.8755 -0.0564
30440SOL    HW2 3299  10.083   4.367   8.673  2.1985 -0.9797 -1.0733
30441SOL     OW 3300   2.263   0.378   2.713  0.1139 -0.4483  0.1283
30441SOL    HW1 3301   2.271   0.291   2.752 -2.2059 -0.7504  0.1042
30441SOL    HW2 3302   2.172   0.382   2.683  0.6144  1.4022 -1.3208
30442SOL     OW 3303   6.290   1.444   2.725 -0.2347 -0.2176  0.1649
30442SOL    HW1 3304   6.337   1.398   2.655  1.5703  3.3767 -1.2663
30442SOL    HW2 3305   6.199   1.450   2.693  0.3172  0.3653 -1.3939
30443SOL     OW 3306   3.652  10.164   1.020  0.3322 -0.1118 -0.0792
30443SOL    HW1 3307   3.642  10.122   0.935  0.1339 -0.8404  0.3042
30443SOL    HW2 3308   3.725  10.226   1.007  1.4477 -1.4338 -0.3218
30444SOL     OW 3309   0.091   7.341   4.501  0.0912 -0.2583 -0.0299
30444SOL    HW1 3310   0.180   7.353   4.534  0.5206 -0.3685 -1.0976
30444SOL    HW2 3311   0.079   7.412   4.438 -0.8225  0.1428  0.5784
30445SOL     OW 3312   4.469   5.552   6.793 -0.4521 -0.3232  0.1121
30445SOL    HW1 3313   4.562   5.546   6.772 -0.4744 -1.4088  0.2621
30445SOL    HW2 3314   4.464   5.536   6.887 -0.8560 -1.2128 -0.0424
30446SOL     OW 3315   0.356   5.473   2.794  0.6769 -0.2846 -0.4474
30446SOL    HW1 3316   0.377   5.385   2.763  0.2852 -0.9874  1.1931
30446SOL    HW2 3317   0.390   5.531   2.726 -0.8943 -1.7458 -2.6218
30447SOL     OW 3318   7.908   4.698   5.046 -0.3053 -0.5054  0.6344
30447SOL    HW1 3319   7.969   4.772   5.054  0.9034 -1.2919 -0.7227
30447SOL    HW2 3320   7.827   4.736   5.013  0.7637  0.0641 -1.4663
30448SOL     OW 3321   9.319   8.201   5.502  0.7347  0.0736  0.3141
30448SOL    HW1 3322   9.401   8.231   5.542 -0.5282 -0.1919  3.4456
30448SOL    HW2 3323   9.324   8.105   5.510  0.2726  0.0422  0.2000
30449SOL     OW 3324   2.370   5.301   5.164 -0.5310  0.5927 -0.0929
30449SOL    HW1 3325   2.315   5.344   5.098  2.2501  2.0856 -1.6316
30449SOL    HW2 3326   2.404   5.223   5.120 -0.3246  0.4479  0.3229
30450SOL     OW 3327   5.603   8.924   8.721 -0.8488  0.1166  0.0865
30450SOL    HW1 3328   5.545   8.937   8.795 -0.3010 -2.1868  1.0011
30450SOL    HW2 3329   5.561   8.856   8.668 -1.0468  1.4488 -1.5916
30451SOL     OW 3330   6.723   6.649   7.271 -0.7328 -0.1572 -0.0366
30451SOL    HW1 3331   6.698   6.598   7.348 -3.8962  0.8748 -0.2446
30451SOL    HW2 3332   6.749   6.734   7.307  0.9897 -0.6741  0.0437
30452SOL     OW 3333  10.012   5.649   7.205  0.0131  0.1767  0.0229
30452SOL    HW1 3334   9.936   5.649   7.264 -0.4320  0.9637 -0.5361
30452SOL    HW2 3335   9.982   5.696   7.128  1.3909  1.3638  0.1779
30453SOL     OW 3336   4.291   4.963   4.691  0.2016 -0.1953 -0.4542
30453SOL    HW1 3337   4.254   4.876   4.679  0.4318 -0.4028  0.3081
30453SOL    HW2 3338   4.325   4.963   4.780  2.4162 -0.1529 -1.2316
30454SOL     OW 3339   7.501   4.120   7.207 -0.2195 -0.1672  0.4000
30454SOL    HW1 3340   7.587   4.161   7.218  0.2254 -0.6194 -1.1171
30454SOL    HW2 3341   7.513   4.030   7.239  0.5165 -0.8849 -1.7348
30455SOL     OW 3342   3.029   1.272   7.885  0.1925 -1.1543 -0.3112
30455SOL    HW1 3343   3.120   1.283   7.912 -0.0617 -2.2842  1.1281
30455SOL    HW2 3344   2.995   1.361   7.877  0.2457 -0.6376  3.4926
30456SOL     OW 3345   4.658   8.568   9.177 -0.3875 -0.0196  0.3343
30456SOL    HW1 3346   4.609   8.539   9.100 -0.0704  0.1443  0.0671
30456SOL    HW2 3347   4.690   8.487   9.217 -1.4422 -0.1774  0.9025
30457SOL     OW 3348   3.987   7.019   5.389  0.2131  0.3718  0.3527
30457SOL    HW1 3349   4.043   6.942   5.398  1.7708  1.0380 -2.5134
30457SOL    HW2 3350   3.998   7.067   5.470 -0.6354 -2.2260  2.1455
30458SOL     OW 3351   0.609   4.134   8.965  0.8721 -0.3517  0.0637
30458SOL    HW1 3352   0.532   4.142   8.909  0.9093  2.3244  0.2776
30458SOL    HW2 3353   0.681   4.117   8.905  0.7037  1.1610 -0.6008
30459SOL     OW 3354  10.325   9.502   3.740 -0.1414 -0.4582  0.1518
30459SOL    HW1 3355  10.304   9.545   3.657 -0.5212 -0.9496 -0.0102
30459SOL    HW2 3356  10.385   9.432   3.716 -1.3447 -1.5145  0.0689
30460SOL     OW 3357   3.486  10.379  10.319 -0.3582  0.2293  0.2065
30460SOL    HW1 3358   3.428  10.319  10.365 -0.2634  0.0499  0.0923
30460SOL    HW2 3359   3.431  10.453  10.294 -0.7836 -0.4234 -0.8519
30461SOL     OW 3360   2.988   2.231   7.601 -0.2523 -0.0529  0.2648
30461SOL    HW1 3361   2.927   2.273   7.660 -0.9943 -0.7000 -0.0243
30461SOL    HW2 3362   3.070   2.227   7.650  0.0441  2.2729  0.0712
30462SOL     OW 3363   5.714   7.185   9.485  0.0989 -0.0738 -0.3837
30462SOL    HW1 3364   5.732   7.235   9.406 -1.5052  0.9180 -0.1740
30462SOL    HW2 3365   5.682   7.249   9.548  1.3912 -0.8298  1.1252
30463SOL     OW 3366   6.678   8.639   7.376  0.2017  0.0290 -0.5046
30463SOL    HW1 3367   6.645   8.610   7.461 -1.2585  1.0274 -0.6904
30463SOL    HW2 3368   6.748   8.701   7.397 -0.0587  0.1680 -0.0345
30464SOL     OW 3369   4.110   0.632   6.584  0.4354  0.5655 -0.4322
30464SOL    HW1 3370   4.084   0.544   6.556  2.3440  0.0939 -0.8679
30464SOL    HW2 3371   4.056   0.649   6.661  3.6501 -3.3587  3.1989
30465SOL     OW 3372   0.508   2.325   3.343 -0.4153  0.1660  0.4612
30465SOL    HW1 3373   0.423   2.284   3.328 -0.3036  0.7228 -2.3139
30465SOL    HW2 3374   0.572   2.257   3.325 -0.2300  0.0087  1.6238
30466SOL     OW 3375   8.952   5.185   5.198  0.6942  0.2510 -0.0293
30466SOL    HW1 3376   9.025   5.145   5.151 -0.7272 -1.0053 -1.2749
30466SOL    HW2 3377   8.946   5.135   5.280 -0.0878 -1.1213 -0.8893
30467SOL     OW 3378   1.273   9.005   2.025  0.2984  0.2303  0.7766
30467SOL    HW1 3379   1.351   8.994   2.078  0.4523 -1.4588  0.2689
30467SOL    HW2 3380   1.290   8.953   1.946  0.0272  2.5624 -0.9135
30468SOL     OW 3381   2.390   9.888   0.586  0.5006 -0.2922  0.6103
30468SOL    HW1 3382   2.453   9.843   0.641 -0.0617 -0.7819  0.8716
30468SOL    HW2 3383   2.348   9.819   0.534 -0.8731 -0.1895  1.5238
30469SOL     OW 3384   7.642   0.348   1.957 -0.0944  0.2019 -0.2013
30469SOL    HW1 3385   7.655   0.326   1.865  0.9965  1.1213 -0.2877
30469SOL    HW2 3386   7.712   0.303   2.003 -0.8385 -0.5317  0.2378
30470SOL     OW 3387   3.123   0.446   9.429  0.0151 -0.0373 -0.3220
30470SOL    HW1 3388   3.116   0.539   9.450  0.7274  0.1238 -0.7696
30470SOL    HW2 3389   3.177   0.409   9.499 -0.4459 -0.1635 -0.0269
30471SOL     OW 3390   0.235   2.879   1.091 -0.1758  0.7529  0.2736
30471SOL    HW1 3391   0.156   2.933   1.079 -0.9633 -0.4065  0.0048
30471SOL    HW2 3392   0.303   2.925   1.042 -0.6142  1.9099  0.7069
30472SOL     OW 3393   2.247   0.403   4.579  0.3861 -0.1405 -0.3875
30472SOL    HW1 3394   2.166   0.385   4.627  1.7742 -1.4435  1.6134
30472SOL    HW2 3395   2.248   0.499   4.570 -0.7149  0.0215  0.8027
30473SOL     OW 3396   8.718   4.219  10.386  0.0214 -0.3365 -0.2288
30473SOL    HW1 3397   8.684   4.235  10.474 -0.8150  0.5503 -0.6960
30473SOL    HW2 3398   8.812   4.234  10.394 -0.0388 -0.3047  0.5244
30474SOL     OW 3399   1.248   7.098   8.809  0.2006  0.3981 -0.3425
30474SOL    HW1 3400   1.191   7.039   8.760  0.6663  1.3646 -2.1358
30474SOL    HW2 3401   1.191   7.140   8.873 -0.5021 -0.6699 -0.2521
30475SOL     OW 3402   6.812   1.866   8.378  0.0830 -0.2387  0.1777
30475SOL    HW1 3403   6.748   1.799   8.402 -1.3557  1.8718  2.8045
30475SOL    HW2 3404   6.848   1.895   8.462  1.2676  1.6994 -0.9340
30476SOL     OW 3405   7.539   7.192   8.474 -0.2147  0.1927  0.0086
30476SOL    HW1 3406   7.601   7.232   8.535  0.6434 -0.7848 -0.1909
30476SOL    HW2 3407   7.488   7.132   8.528 -0.3528  0.3105  0.0084
30477SOL     OW 3408   4.717   2.251   2.984  0.4034 -0.6548 -0.1134
30477SOL    HW1 3409   4.672   2.274   2.903 -0.3910  0.0519  0.5021
30477SOL    HW2 3410   4.809   2.269   2.966  0.4275 -1.7897 -1.2821
30478SOL     OW 3411   1.149   5.003   5.302  0.6895  0.3603  0.2897
30478SOL    HW1 3412   1.135   5.096   5.284  0.2378  0.4482  1.0533
30478SOL    HW2 3413   1.244   4.993   5.306  0.9099  0.1314 -3.1108
30479SOL     OW 3414   8.260   1.235   6.340  0.1793  0.5131 -0.3886
30479SOL    HW1 3415   8.228   1.151   6.375 -1.3255  1.4662  0.6414
30479SOL    HW2 3416   8.349   1.242   6.374  0.4308 -0.7567 -0.6998
30480SOL     OW 3417   6.125   9.797   0.639 -0.5654 -0.4707  0.5640
30480SOL    HW1 3418   6.208   9.842   0.657 -0.4704 -0.5673  0.3771
30480SOL    HW2 3419   6.139   9.708   0.671 -0.5065 -0.5572  0.2967
30481SOL     OW 3420   0.091   8.709   0.993  0.1748 -0.5103 -0.1507
30481SOL    HW1 3421   0.034   8.643   0.954  2.1284 -1.5880 -1.3612
30481SOL    HW2 3422   0.146   8.740   0.921  0.6188  1.0405  0.7941
30482SOL     OW 3423   5.647   9.744   0.055 -0.6940 -0.3737  0.2143
30482SOL    HW1 3424   5.738   9.755   0.028 -0.7756  0.2741  0.1672
30482SOL    HW2 3425   5.604   9.706  -0.021 -0.6527  0.2092 -0.1068
30483SOL     OW 3426   6.469   3.967   2.066 -0.2965 -0.2606 -0.2334
30483SOL    HW1 3427   6.409   4.041   2.054  0.0433 -0.0953 -0.9449
30483SOL    HW2 3428   6.467   3.951   2.160 -0.3140  0.7076 -0.0512
30484SOL     OW 3429  10.022   7.511   4.380 -0.8774 -0.4868  0.2283
30484SOL    HW1 3430   9.967   7.555   4.316  0.5361  1.1204  0.0322
30484SOL    HW2 3431   9.977   7.522   4.464 -0.6504  1.2517  0.1532
30485SOL     OW 3432   2.694   3.582   3.421 -0.2478 -0.2559  0.0148
30485SOL    HW1 3433   2.786   3.556   3.421 -0.6892 -2.0329  0.7116
30485SOL    HW2 3434   2.662   3.558   3.334  0.2663  1.8060 -0.7927
30486SOL     OW 3435   0.999   0.356   0.148  0.4145 -0.3002  0.5865
30486SOL    HW1 3436   1.033   0.281   0.100 -0.4683  0.8320 -1.9832
30486SOL    HW2 3437   1.073   0.387   0.201  1.4521 -1.5952 -0.0513
30487SOL     OW 3438   5.631   4.748   5.119  0.0284  0.1271 -0.7140
30487SOL    HW1 3439   5.656   4.656   5.130 -3.1157 -0.9500 -1.4436
30487SOL    HW2 3440   5.609   4.756   5.026  0.8232  1.8237 -0.7882
30488SOL     OW 3441   7.229   7.982   0.891 -0.1402  0.3640  0.1188
30488SOL    HW1 3442   7.249   8.027   0.809  2.6614 -0.1548  0.4112
30488SOL    HW2 3443   7.262   7.892   0.877 -1.5701 -0.3426  1.0725
30489SOL     OW 3444   2.417   1.640   8.149 -0.0347  0.1127 -0.3641
30489SOL    HW1 3445   2.365   1.618   8.226 -0.9520 -0.5199 -1.1476
30489SOL    HW2 3446   2.447   1.730   8.166  0.5003 -0.3177  1.1022
30490SOL     OW 3447   7.506   1.874   6.516  0.4836 -0.1034  0.0615
30490SOL    HW1 3448   7.415   1.848   6.531  0.3852 -0.3142 -0.8864
30490SOL    HW2 3449   7.543   1.881   6.604 -0.1875 -0.9628  0.4252
30491SOL     OW 3450   3.324   2.157   0.554  0.1906 -0.1891 -0.4875
30491SOL    HW1 3451   3.239   2.188   0.524  0.6270  2.7524  0.9244
30491SOL    HW2 3452   3.321   2.166   0.649  3.2522  4.1270 -0.4787
30492SOL     OW 3453   8.903   6.330   6.669 -0.3901 -0.4484  0.4853
30492SOL    HW1 3454   8.996   6.320   6.692 -0.1773 -0.5001 -0.3790
30492SOL    HW2 3455   8.857   6.285   6.740  0.1944  0.4471  1.4624
30493SOL     OW 3456   0.128   7.457   5.697  0.3907 -0.2314 -0.2372
30493SOL    HW1 3457   0.099   7.424   5.613  0.2260 -3.4183  0.9577
30493SOL    HW2 3458   0.199   7.399   5.724  0.2280  0.4605  1.9468
30494SOL     OW 3459   1.033   7.370   6.055 -0.0609  0.4285  0.2901
30494SOL    HW1 3460   1.011   7.347   5.965  1.4467 -0.9353  0.2220
30494SOL    HW2 3461   1.050   7.464   6.052 -0.5356  0.4999 -0.7290
30495SOL     OW 3462   9.979   8.793   7.481  0.1990  0.1592  0.1638
30495SOL    HW1 3463   9.930   8.713   7.462  1.1181 -0.1368 -1.0711
30495SOL    HW2 3464   9.915   8.863   7.473 -0.1060 -0.2479 -1.0803
30496SOL     OW 3465   4.732   7.928   1.411  0.8039 -0.2305  0.1554
30496SOL    HW1 3466   4.737   8.020   1.383 -1.0729 -0.1173  0.1088
30496SOL    HW2 3467   4.797   7.921   1.481  0.3251  1.3729  0.7932
30497SOL     OW 3468   9.542   5.635   3.366  0.3216  0.3544  0.5342
30497SOL    HW1 3469   9.465   5.578   3.368 -0.0253  0.7516 -0.6898
30497SOL    HW2 3470   9.516   5.713   3.414  0.1254  0.2866  0.5377
30498SOL     OW 3471   3.636   7.222   5.342 -0.0870  0.5383  0.1708
30498SOL    HW1 3472   3.566   7.270   5.299 -0.7295 -0.4214  0.1096
30498SOL    HW2 3473   3.705   7.287   5.356 -0.6480  1.3022 -0.5308
30499SOL     OW 3474   9.195   4.830   7.664 -0.2035  1.0148 -0.1811
30499SOL    HW1 3475   9.223   4.796   7.749  0.2483  1.2182 -0.2442
30499SOL    HW2 3476   9.107   4.863   7.679 -1.1286 -1.1835 -0.3744
30500SOL     OW 3477   5.687   8.353   9.250 -0.3514  0.0080 -0.2738
30500SOL    HW1 3478   5.719   8.399   9.172 -1.0522  1.1595  0.0906
30500SOL    HW2 3479   5.736   8.271   9.251  1.1891  0.8792 -0.7790
30501SOL     OW 3480   4.911   6.538   8.770 -0.1725 -0.3474 -0.2824
30501SOL    HW1 3481   4.973   6.582   8.828 -1.1199  0.0315  0.4709
30501SOL    HW2 3482   4.856   6.608   8.736 -1.5608 -0.8971  0.7572
30502SOL     OW 3483   8.148   0.657   0.355 -0.2953  0.0474  0.3389
30502SOL    HW1 3484   8.149   0.749   0.326 -1.3225 -0.8843 -3.0853
30502SOL    HW2 3485   8.060   0.644   0.390  0.5829  0.8666  3.1252
30503SOL     OW 3486   5.307   0.055   3.070 -0.0644  0.6480 -0.4115
30503SOL    HW1 3487   5.370   0.086   3.005  1.9775 -3.0550 -0.4589
30503SOL    HW2 3488   5.332   0.099   3.151  1.7482  0.3026 -0.7405
30504SOL     OW 3489   8.500   0.323   8.838 -0.0151 -0.4462  0.0212
30504SOL    HW1 3490   8.563   0.311   8.909 -0.4770  1.5236  0.8158
30504SOL    HW2 3491   8.537   0.395   8.786 -1.1961  0.2257  0.0714
30505SOL     OW 3492  10.035   2.066   1.683  0.0167  0.0074 -0.1548
30505SOL    HW1 3493  10.073   2.054   1.770  0.9276 -2.5954 -0.8018
30505SOL    HW2 3494  10.105   2.107   1.632 -0.2878  0.9265  0.1440
30506SOL     OW 3495   0.759   7.746   1.605  0.2344  0.0841 -0.6069
30506SOL    HW1 3496   0.667   7.733   1.582  0.5214 -1.9326 -0.7946
30506SOL    HW2 3497   0.773   7.689   1.681  1.8030 -1.2752 -1.8440
30507SOL     OW 3498   6.169   2.070  10.232 -0.1022 -0.3535  0.0190
30507SOL    HW1 3499   6.251   2.119  10.237  0.5188 -1.4591  1.9584
30507SOL    HW2 3500   6.189   1.993  10.179 -0.9284  1.0698 -2.5487
30508SOL     OW 3501   4.290   6.422   4.848 -0.5527 -0.4464  0.4671
30508SOL    HW1 3502   4.344   6.452   4.922  0.9898  0.5777 -0.9954
30508SOL    HW2 3503   4.348   6.366   4.797 -1.8848 -1.8844  0.4670
30509SOL     OW 3504   4.525   0.098   2.902  0.1107 -0.4426  0.0109
30509SOL    HW1 3505   4.514   0.020   2.848 -1.3170  0.1847 -0.6625
30509SOL    HW2 3506   4.599   0.144   2.862  0.0101 -0.7208 -0.5062
30510SOL     OW 3507   9.842   4.874   9.736 -0.5528 -0.3704 -0.0768
30510SOL    HW1 3508   9.755   4.914   9.733 -0.8044 -0.5797  2.2963
30510SOL    HW2 3509   9.825   4.781   9.722 -0.8688 -0.5398  1.2867
30511SOL     OW 3510   2.048   5.289   9.070  0.0259 -0.0404 -0.2715
30511SOL    HW1 3511   2.138   5.298   9.039  0.1889  2.8021  0.7462
30511SOL    HW2 3512   2.005   5.370   9.043 -1.7563 -0.5723  0.7909
30512SOL     OW 3513   6.794   7.604   5.884 -0.0264  0.2082 -0.2188
30512SOL    HW1 3514   6.811   7.511   5.871  0.2053  0.3715 -1.1776
30512SOL    HW2 3515   6.744   7.631   5.806 -1.8512  0.4660  0.9935
30513SOL     OW 3516   8.433   1.407  10.104 -0.8631 -0.0562 -0.4855
30513SOL    HW1 3517   8.388   1.368  10.029 -0.8861 -2.0903  0.5223
30513SOL    HW2 3518   8.526   1.402  10.080 -0.9163  0.0834 -0.7271
30514SOL     OW 3519   5.295   8.238   1.493 -0.3895 -0.2063  0.7309
30514SOL    HW1 3520   5.283   8.324   1.534 -1.5080  0.2974 -0.5590
30514SOL    HW2 3521   5.286   8.176   1.566  1.7586  0.7624  1.9227
30515SOL     OW 3522   3.015  10.280   3.540  0.2251  0.0472 -0.3872
30515SOL    HW1 3523   3.077  10.350   3.561  0.2966  0.6056 -2.2451
30515SOL    HW2 3524   3.026  10.216   3.610  0.8540  1.4481  0.8323
30516SOL     OW 3525   2.781   5.277   8.329 -0.2972  0.2110 -0.3521
30516SOL    HW1 3526   2.703   5.294   8.275 -0.0992 -1.4842 -1.2307
30516SOL    HW2 3527   2.804   5.186   8.310  0.8856  0.1467  1.2212
30517SOL     OW 3528   2.271   7.316  10.286 -0.2393  0.0563 -0.4158
30517SOL    HW1 3529   2.351   7.267  10.306 -0.1960  0.2907  0.0089
30517SOL    HW2 3530   2.215   7.304  10.363 -0.2826  0.5580 -0.3613
30518SOL     OW 3531   6.458   0.549   9.636 -0.0097 -0.5351  0.2255
30518SOL    HW1 3532   6.509   0.506   9.704 -0.3810 -2.7938 -0.8425
30518SOL    HW2 3533   6.517   0.554   9.561 -0.5910 -1.0148 -0.2754
30519SOL     OW 3534   3.249   9.237   7.010 -0.5729  0.6742 -0.2791
30519SOL    HW1 3535   3.279   9.167   7.068 -2.3547  0.5202  0.4982
30519SOL    HW2 3536   3.328   9.262   6.961  0.7953  0.2318  1.5873
30520SOL     OW 3537   5.436   0.193   1.957 -0.0107 -0.3063  0.2815
30520SOL    HW1 3538   5.372   0.198   1.886 -0.2828  0.5435  0.5697
30520SOL    HW2 3539   5.521   0.204   1.914 -0.2169  0.9067  0.1436
30521SOL     OW 3540   4.387   5.443   0.418 -0.1701  0.1497 -0.0445
30521SOL    HW1 3541   4.395   5.360   0.464 -0.4469 -0.7106 -1.5054
30521SOL    HW2 3542   4.478   5.474   0.408 -0.0922  0.2457  0.8470
30522SOL     OW 3543   9.062   9.082   0.618 -0.1626  0.7183  0.1083
30522SOL    HW1 3544   9.026   9.163   0.582 -1.5611 -0.8411 -2.2673
30522SOL    HW2 3545   9.008   9.065   0.695 -1.2752  0.9776 -0.5862
30523SOL     OW 3546   9.034   2.604   0.327  0.3352  0.2209 -0.1947
30523SOL    HW1 3547   8.995   2.661   0.261 -0.1866 -0.4031 -0.4354
30523SOL    HW2 3548   9.026   2.516   0.290 -0.3227 -0.1865  0.8803
30524SOL     OW 3549   5.279   7.956   6.519  0.2632 -0.6021  0.9122
30524SOL    HW1 3550   5.336   7.982   6.447 -0.4281 -1.3266  0.0843
30524SOL    HW2 3551   5.300   7.864   6.535  1.5446 -0.0616  2.7341
30525SOL     OW 3552   0.798   5.286   4.670  0.4718  0.3185  0.3525
30525SOL    HW1 3553   0.881   5.316   4.633 -0.1017  0.0191 -1.2594
30525SOL    HW2 3554   0.823   5.219   4.733  1.4551  0.1219 -0.2141
30526SOL     OW 3555   0.883   1.905   5.072 -0.8962  0.8037  0.4713
30526SOL    HW1 3556   0.965   1.936   5.110 -0.3071 -0.1380  0.0032
30526SOL    HW2 3557   0.906   1.877   4.983 -1.8591  1.1474  0.0908
30527SOL     OW 3558   7.654   6.337   7.713  0.3086  0.7381 -0.0948
30527SOL    HW1 3559   7.734   6.299   7.750  0.2391 -1.2367 -1.7805
30527SOL    HW2 3560   7.583   6.294   7.759  0.2036  1.2704  0.2500
30528SOL     OW 3561   5.832   7.003   1.778 -0.2656  0.2712 -0.1358
30528SOL    HW1 3562   5.807   6.922   1.735  1.1580 -0.9813  1.2609
30528SOL    HW2 3563   5.761   7.064   1.758 -0.9676 -1.0494 -1.9130
30529SOL     OW 3564   3.534   9.313   6.926 -0.3746 -0.4095  0.2768
30529SOL    HW1 3565   3.519   9.322   6.832 -0.7214  0.9945  0.4413
30529SOL    HW2 3566   3.594   9.239   6.934  0.8107  0.3458 -1.1632
30530SOL     OW 3567   5.341  10.263   8.527  0.4704 -0.1591  0.0801
30530SOL    HW1 3568   5.365  10.208   8.601  0.4601  2.3056  2.0602
30530SOL    HW2 3569   5.257  10.229   8.497  0.5941 -1.3616  1.0407
30531SOL     OW 3570   0.682   8.850   5.216  0.3170  0.4734  0.3466
30531SOL    HW1 3571   0.747   8.858   5.286 -0.8746  0.0049  1.5584
30531SOL    HW2 3572   0.603   8.820   5.261 -0.3388 -0.3660 -1.3066
30532SOL     OW 3573   4.909   9.683  10.027  0.5326  0.0764 -0.4067
30532SOL    HW1 3574   4.888   9.636   9.946  1.9673 -1.1463 -0.1113
30532SOL    HW2 3575   4.828   9.729  10.049 -0.6589 -1.5182 -1.2118
30533SOL     OW 3576   4.421   3.484   8.976 -0.1947  0.0764 -0.2603
30533SOL    HW1 3577   4.387   3.445   8.895 -0.8527  3.6869 -1.9178
30533SOL    HW2 3578   4.343   3.505   9.026  0.0290  0.7187 -0.1726
30534SOL     OW 3579   9.840   9.541   5.600 -0.1043 -0.1506 -0.3500
30534SOL    HW1 3580   9.808   9.504   5.683 -0.7409  1.0877 -0.0129
30534SOL    HW2 3581   9.934   9.528   5.602 -0.1593 -0.4628  0.4159
30535SOL     OW 3582   1.420   0.108   4.507  0.2521  0.1847  0.3188
30535SOL    HW1 3583   1.397   0.034   4.564 -1.1001  0.0704 -0.3318
30535SOL    HW2 3584   1.370   0.181   4.542 -0.2399  0.2199 -0.4441
30536SOL     OW 3585   9.603   7.106   3.518  0.0125 -0.0814  0.3505
30536SOL    HW1 3586   9.575   7.067   3.601 -0.6440 -2.1332 -0.7801
30536SOL    HW2 3587   9.635   7.032   3.466 -1.1822  0.8801 -1.8771
30537SOL     OW 3588   9.060   1.052   4.414 -0.5087 -0.2335  0.2947
30537SOL    HW1 3589   8.994   1.119   4.431  0.0759  0.2021  0.9322
30537SOL    HW2 3590   9.124   1.063   4.485 -0.0221 -0.9839 -0.0106
30538SOL     OW 3591   0.686   8.233   3.957 -0.2635  0.4846 -0.1648
30538SOL    HW1 3592   0.621   8.277   3.903  0.6659 -0.0242 -1.7364
30538SOL    HW2 3593   0.760   8.293   3.960 -0.0372  0.2035 -0.0381
30539SOL     OW 3594   6.892   7.328   8.527  0.4017  0.4346 -0.0539
30539SOL    HW1 3595   6.926   7.300   8.442  0.7790 -1.0953  0.5601
30539SOL    HW2 3596   6.873   7.421   8.516  2.4606  0.7860 -1.1794
30540SOL     OW 3597   4.985   5.442   1.953 -0.2519 -0.2780 -0.0322
30540SOL    HW1 3598   4.920   5.460   1.885  0.4048  1.3748 -0.2847
30540SOL    HW2 3599   5.052   5.389   1.909 -0.4442 -0.2770 -0.3299
30541SOL     OW 3600   3.038   3.395   8.813  0.3792 -0.9549  0.2368
30541SOL    HW1 3601   3.088   3.471   8.842  0.1532 -0.4809 -0.5580
30541SOL    HW2 3602   2.978   3.377   8.885 -1.0126  0.9454 -0.3515
30542SOL     OW 3603  10.078   5.963   8.393  0.5359 -0.5494 -0.0074
30542SOL    HW1 3604  10.026   5.888   8.364  2.3017 -1.4817 -0.9198
30542SOL    HW2 3605  10.070   6.027   8.322 -0.7594  0.0860  0.6583
30543SOL     OW 3606   0.074   5.641   0.075 -0.8121  0.0993 -0.2063
30543SOL    HW1 3607   0.164   5.651   0.045  0.2172 -0.4718  2.4201
30543SOL    HW2 3608   0.024   5.707   0.026  1.1277  0.8476 -1.2577
30544SOL     OW 3609   6.698   6.840   9.004  0.5436  0.3332  0.0688
30544SOL    HW1 3610   6.673   6.932   8.994 -0.2920  0.0763 -0.2527
30544SOL    HW2 3611   6.785   6.835   8.966  0.1060  0.7428 -1.0221
30545SOL     OW 3612   9.970   8.709   3.797  0.3427 -0.7628 -0.3455
30545SOL    HW1 3613   9.959   8.691   3.704  2.0120  2.1868 -1.2294
30545SOL    HW2 3614   9.882   8.695   3.834 -0.8899  0.0129 -2.7357
30546SOL     OW 3615   1.366   0.537   1.983 -0.5638  0.0789  0.6041
30546SOL    HW1 3616   1.284   0.586   1.971  0.9046  2.7481  0.6012
30546SOL    HW2 3617   1.346   0.471   2.049 -2.4144  1.4598  1.5112
30547SOL     OW 3618   8.533   1.941   0.955 -0.3813 -0.1812  0.1166
30547SOL    HW1 3619   8.500   1.851   0.959 -1.7048  0.3234  0.9584
30547SOL    HW2 3620   8.486   1.980   0.881 -0.2562 -0.0055  0.1315
30548SOL     OW 3621   0.509   7.886   4.183  0.9780  0.1091 -0.7668
30548SOL    HW1 3622   0.526   7.812   4.125  1.7686 -1.0710  0.8658
30548SOL    HW2 3623   0.572   7.875   4.255 -1.1988  0.3561  1.3161
30549SOL     OW 3624   0.732   2.167   3.349  0.6563 -0.1463 -0.6959
30549SOL    HW1 3625   0.784   2.087   3.350  0.6681 -0.1837  1.7004
30549SOL    HW2 3626   0.789   2.232   3.308  1.6527 -0.7731 -0.3414
30550SOL     OW 3627   0.465   2.397   0.341  0.3736  0.0952  0.0550
30550SOL    HW1 3628   0.386   2.450   0.352 -0.0632 -0.7420  1.2683
30550SOL    HW2 3629   0.486   2.367   0.430  2.4287  0.7993 -0.1407
30551SOL     OW 3630   2.847   5.009   9.673  0.0518 -0.3016  0.2872
30551SOL    HW1 3631   2.860   5.030   9.580  1.7496  0.2617  0.6075
30551SOL    HW2 3632   2.936   5.002   9.708 -0.5520 -1.1631  1.7445
30552SOL     OW 3633   6.591   9.539   3.621 -0.2088 -0.1581 -0.1798
30552SOL    HW1 3634   6.578   9.548   3.527  0.7294  2.4538 -0.1383
30552SOL    HW2 3635   6.660   9.474   3.630 -0.7694 -0.9304 -1.2188
30553SOL     OW 3636   9.441   9.040  10.279  0.0928  0.3463 -0.5245
30553SOL    HW1 3637   9.465   9.113  10.223  0.8921 -0.4468 -1.2453
30553SOL    HW2 3638   9.493   8.966  10.246 -2.2313 -1.0946 -1.1898
30554SOL     OW 3639   7.643   1.019   4.772  0.5101 -0.6654  0.5509
30554SOL    HW1 3640   7.568   1.013   4.830 -0.5452 -0.2310 -0.7214
30554SOL    HW2 3641   7.663   1.113   4.768 -1.3577 -0.2381 -2.0383
30555SOL     OW 3642   7.248   5.397   9.047  0.0317  0.3354  0.1085
30555SOL    HW1 3643   7.339   5.371   9.057  0.4355  2.1148  1.6410
30555SOL    HW2 3644   7.242   5.430   8.958  0.7529 -0.2130 -0.1550
30556SOL     OW 3645   2.108   2.945   6.272 -0.4509 -0.4169 -0.0280
30556SOL    HW1 3646   2.179   2.906   6.323  0.5836  1.6358  0.1885
30556SOL    HW2 3647   2.152   2.981   6.194 -1.7555 -1.9646 -1.5731
30557SOL     OW 3648   7.907   0.340   0.619  0.0688 -0.3171 -0.2221
30557SOL    HW1 3649   7.917   0.427   0.580  1.2475 -0.8767 -1.2340
30557SOL    HW2 3650   7.844   0.353   0.691  0.7863  1.5067  0.1287
30558SOL     OW 3651   8.004   1.542   7.738  0.1176  0.3802  0.5392
30558SOL    HW1 3652   8.074   1.487   7.773 -0.6356 -1.3403 -0.5597
30558SOL    HW2 3653   7.944   1.553   7.812  0.2789 -0.2747  0.7749
30559SOL     OW 3654   2.297   7.921   8.885  0.4703  0.0084  0.3650
30559SOL    HW1 3655   2.254   7.912   8.800 -0.6393 -0.4393  0.9475
30559SOL    HW2 3656   2.232   7.890   8.948  1.5801 -0.4875  1.3151
30560SOL     OW 3657   3.801   3.399   4.860 -0.0124 -0.1796 -0.6243
30560SOL    HW1 3658   3.733   3.341   4.895  0.1698 -0.0232  0.0125
30560SOL    HW2 3659   3.883   3.357   4.885  0.1526 -0.7892 -2.0919
30561SOL     OW 3660   7.599   0.842   3.149  0.4354 -0.0950 -0.0989
30561SOL    HW1 3661   7.593   0.747   3.140 -0.7905 -0.1001  0.6067
30561SOL    HW2 3662   7.691   0.861   3.131 -0.1223 -0.8333 -5.3340
30562SOL     OW 3663   7.513   3.578   6.832  0.2781 -0.1504 -0.1708
30562SOL    HW1 3664   7.465   3.529   6.766 -0.6301 -0.9572  1.0332
30562SOL    HW2 3665   7.458   3.656   6.849  0.1800 -0.2703  0.0737
30563SOL     OW 3666   3.129   1.075   8.143  0.3649  0.2250 -0.2322
30563SOL    HW1 3667   3.089   1.088   8.057 -0.5965 -0.7253  0.0442
30563SOL    HW2 3668   3.182   0.996   8.134 -0.1409 -0.1657  0.1737
30564SOL     OW 3669   4.422   8.864   1.701  0.6434  0.1964 -0.1864
30564SOL    HW1 3670   4.485   8.830   1.638  1.1504 -0.5965  0.7123
30564SOL    HW2 3671   4.347   8.804   1.695  0.6595  0.1669 -0.1063
30565SOL     OW 3672   8.784   0.305  10.251 -0.0422 -0.7620 -0.0103
30565SOL    HW1 3673   8.790   0.307  10.155  2.8890 -0.4523  0.0818
30565SOL    HW2 3674   8.734   0.383  10.273 -1.6451 -1.3792 -1.2977
30566SOL     OW 3675   3.916   9.171   3.643  0.4615  0.1810  0.2084
30566SOL    HW1 3676   3.862   9.173   3.722 -2.3123  0.9019 -1.5447
30566SOL    HW2 3677   3.859   9.135   3.576  2.3427  0.6081 -1.7365
30567SOL     OW 3678   1.959   4.679   9.666  0.3928 -0.1691 -0.0514
30567SOL    HW1 3679   2.027   4.613   9.680  0.3416 -0.5297 -1.3636
30567SOL    HW2 3680   1.952   4.724   9.749 -0.9892 -3.1285  1.6166
30568SOL     OW 3681   7.457   0.718   0.445  0.1145 -0.0998 -0.0635
30568SOL    HW1 3682   7.390   0.717   0.514  1.1584 -0.7787  0.9795
30568SOL    HW2 3683   7.489   0.808   0.445  0.3494 -0.1802  0.5833
30569SOL     OW 3684   1.787   0.978   6.802  0.0537 -0.4489 -0.2842
30569SOL    HW1 3685   1.761   1.022   6.721  0.1217 -0.5356 -0.3540
30569SOL    HW2 3686   1.866   0.930   6.778 -0.5997 -1.4527 -0.4831
30570SOL     OW 3687   6.277   9.739   4.187  0.1034 -0.4841 -0.0632
30570SOL    HW1 3688   6.276   9.661   4.131 -1.7091 -0.7037  0.2179
30570SOL    HW2 3689   6.239   9.808   4.133 -2.2049 -0.8313  0.9735
30571SOL     OW 3690   7.532   4.461   9.981  0.4655  0.6311  0.2734
30571SOL    HW1 3691   7.594   4.412   9.927 -0.8168 -0.6835 -0.0683
30571SOL    HW2 3692   7.566   4.453  10.070  1.3494  0.8294 -0.0424
30572SOL     OW 3693   0.839   8.169   2.672 -0.3520  0.5741  0.0885
30572SOL    HW1 3694   0.922   8.207   2.700  0.5751 -1.2117 -0.1378
30572SOL    HW2 3695   0.803   8.233   2.610  1.6852  0.6271 -1.1133
30573SOL     OW 3696   9.639   9.366   3.558 -0.3453 -0.3461 -0.6448
30573SOL    HW1 3697   9.683   9.437   3.605  0.0010 -0.9473 -0.0426
30573SOL    HW2 3698   9.631   9.398   3.468 -1.3964  0.9972 -0.1105
30574SOL     OW 3699   7.031   6.601   5.096  0.1761  0.1346 -0.4091
30574SOL    HW1 3700   6.951   6.652   5.110 -1.3682 -2.0463 -0.6737
30574SOL    HW2 3701   7.074   6.643   5.023 -1.3914  0.6859 -1.0563
30575SOL     OW 3702   0.395   8.699  10.265  0.2223 -0.5623 -0.4314
30575SOL    HW1 3703   0.463   8.632  10.264  1.0214  0.0762  2.2107
30575SOL    HW2 3704   0.316   8.655  10.235  0.9778 -2.3967  0.1650
30576SOL     OW 3705   0.894   0.763   5.941  0.4743  0.4783 -0.5954
30576SOL    HW1 3706   0.876   0.822   6.015  1.6673  1.0125 -0.7125
30576SOL    HW2 3707   0.964   0.706   5.973  1.1659  0.8709 -1.3917
30577SOL     OW 3708   8.035   8.840   5.981  0.1914 -0.3154 -0.1401
30577SOL    HW1 3709   8.097   8.880   5.920  1.6140 -3.0220 -0.5963
30577SOL    HW2 3710   8.049   8.888   6.063  1.6936  0.2498 -0.6864
30578SOL     OW 3711   2.764   0.879   3.245  0.2122 -0.0722  0.2066
30578SOL    HW1 3712   2.675   0.868   3.276  0.0445 -0.3767 -0.3671
30578SOL    HW2 3713   2.783   0.972   3.256 -0.6373  0.2481 -0.8770
30579SOL     OW 3714   0.560   0.330   4.712  0.7794 -0.1339  0.4217
30579SOL    HW1 3715   0.468   0.325   4.738  0.2507 -0.1773 -1.3227
30579SOL    HW2 3716   0.587   0.418   4.737 -0.2066  0.4360 -0.4449
30580SOL     OW 3717   9.132   1.753   7.535 -0.1124  0.0658  0.1091
30580SOL    HW1 3718   9.178   1.825   7.578  0.6710 -0.0966 -0.4441
30580SOL    HW2 3719   9.046   1.751   7.577 -1.1043  2.8937 -1.5171
30581SOL     OW 3720   3.185   9.698   0.775 -0.4391  0.4661  0.1275
30581SOL    HW1 3721   3.129   9.735   0.706 -0.6892  0.1972  0.1838
30581SOL    HW2 3722   3.127   9.640   0.824  0.4450 -1.8292 -1.3749
30582SOL     OW 3723   8.197   7.271   9.244  0.1201 -0.1916  0.4084
30582SOL    HW1 3724   8.248   7.352   9.254 -1.2476  0.9476 -1.2023
30582SOL    HW2 3725   8.263   7.202   9.237  1.3093  0.5963  2.8906
30583SOL     OW 3726   2.584  10.075   0.718  0.0100  0.1161  0.6041
30583SOL    HW1 3727   2.618  10.071   0.629 -1.7555  0.4258 -0.1376
30583SOL    HW2 3728   2.602   9.989   0.756  1.1553  0.1258  0.1048
30584SOL     OW 3729   7.985   8.399   0.044 -0.4281  0.3027 -0.1251
30584SOL    HW1 3730   7.984   8.382   0.138  1.6302 -0.2539 -0.1540
30584SOL    HW2 3731   7.903   8.446   0.027 -0.8259  0.4419  1.9287
30585SOL     OW 3732   9.359  10.380   8.952 -0.3932 -0.1239 -0.2126
30585SOL    HW1 3733   9.369  10.295   8.911  0.4402  0.1978 -0.7066
30585SOL    HW2 3734   9.445  10.422   8.943 -0.8518  0.8643 -0.2014
30586SOL     OW 3735   3.437   0.470   6.978  0.0463 -0.2258 -0.8354
30586SOL    HW1 3736   3.394   0.538   6.927  1.7143  1.5939  0.0696
30586SOL    HW2 3737   3.508   0.514   7.023 -0.7488 -1.9051  2.3839
30587SOL     OW 3738   1.310   0.707   8.158 -0.0575  0.1370  0.2026
30587SOL    HW1 3739   1.313   0.613   8.142  0.8482  0.5698 -2.6500
30587SOL    HW2 3740   1.391   0.741   8.121 -0.5561  2.1054  0.7697
30588SOL     OW 3741   3.627   5.404   5.861  0.1104  0.2561  0.3224
30588SOL    HW1 3742   3.639   5.432   5.771 -3.0804  1.4602  0.1535
30588SOL    HW2 3743   3.585   5.318   5.854 -2.4569  1.4258  0.5210
30589SOL     OW 3744   6.149   3.214   7.815 -0.0913  0.2886  0.2363
30589SOL    HW1 3745   6.141   3.260   7.732  0.8830  0.7272  0.3770
30589SOL    HW2 3746   6.059   3.205   7.846 -0.3327  1.6568 -0.0320
30590SOL     OW 3747   0.814   7.407   9.828 -0.3197 -0.1999 -0.2196
30590SOL    HW1 3748   0.775   7.343   9.886  0.2609 -0.9812 -0.6782
30590SOL    HW2 3749   0.810   7.368   9.741 -1.9866  1.3175 -0.8908
30591SOL     OW 3750   6.510   1.822   5.067 -0.1493 -0.5864  0.0389
30591SOL    HW1 3751   6.593   1.853   5.103 -1.0206  1.5474  0.3363
30591SOL    HW2 3752   6.524   1.728   5.053  2.2219 -0.3326  0.2767
30592SOL     OW 3753  10.001   3.060   0.903  0.0885 -0.2330 -0.3067
30592SOL    HW1 3754   9.922   3.052   0.849  0.1857 -1.8092 -0.2554
30592SOL    HW2 3755   9.995   3.148   0.940 -1.2423 -0.0319 -0.9227
30593SOL     OW 3756   9.265   3.143   8.382  0.2130 -0.1609  0.1874
30593SOL    HW1 3757   9.295   3.141   8.473  1.4673  0.7269 -0.1718
30593SOL    HW2 3758   9.320   3.209   8.340  1.1949 -2.0984 -1.7546
30594SOL     OW 3759   0.154   5.984   7.512 -0.4295 -0.5755 -0.2530
30594SOL    HW1 3760   0.105   5.993   7.430 -1.1251  1.6950  0.3347
30594SOL    HW2 3761   0.099   6.026   7.578  0.0906 -2.3689  1.4412
30595SOL     OW 3762   8.027   2.192   5.067  0.1432  0.2704  0.9853
30595SOL    HW1 3763   8.094   2.131   5.097  0.1335 -0.0504  0.3661
30595SOL    HW2 3764   7.983   2.146   4.995  0.3696  1.1409  0.2778
30596SOL     OW 3765   5.171   9.134   4.405 -0.6298 -0.6237 -0.3281
30596SOL    HW1 3766   5.109   9.184   4.457 -1.8166 -2.4623  0.1211
30596SOL    HW2 3767   5.165   9.045   4.439  1.0509 -1.2040 -1.3957
30597SOL     OW 3768   7.418   3.842   9.028  0.3221 -0.0991 -0.3344
30597SOL    HW1 3769   7.496   3.817   8.979  0.8284  0.4971  0.1406
30597SOL    HW2 3770   7.388   3.922   8.985  3.0930  2.8454  2.5732
30598SOL     OW 3771   6.326  10.129   9.424  0.4126 -0.5626  0.6865
30598SOL    HW1 3772   6.287  10.068   9.361  0.3219  0.8818 -0.7078
30598SOL    HW2 3773   6.418  10.101   9.430  0.5894 -0.3415 -0.6154
30599SOL     OW 3774   1.234   2.617   4.351 -0.0245  0.0862 -0.4364
30599SOL    HW1 3775   1.176   2.638   4.425  0.3784 -1.6724  0.4390
30599SOL    HW2 3776   1.317   2.657   4.374 -0.2975  0.7797 -0.6466
30600SOL     OW 3777   5.316   6.206   9.157  0.0102  0.0196 -0.1823
30600SOL    HW1 3778   5.409   6.217   9.140  0.1264 -1.8515 -0.9994
30600SOL    HW2 3779   5.288   6.290   9.195  1.8253  0.9044 -0.6966
30601SOL     OW 3780  10.037   2.292   4.480 -0.0947 -0.4229  0.4902
30601SOL    HW1 3781  10.118   2.267   4.523  0.8016  0.7885 -0.3919
30601SOL    HW2 3782  10.052   2.383   4.453 -1.0734 -0.7283 -1.2276
30602SOL     OW 3783   9.300   2.108   6.163  0.8153  0.2099  0.2754
30602SOL    HW1 3784   9.281   2.020   6.129  0.4663 -0.1282  1.3250
30602SOL    HW2 3785   9.378   2.097   6.217  2.0105  0.9543 -1.2342
30603SOL     OW 3786   9.040   6.214   0.130  0.0186 -0.2558  0.3525
30603SOL    HW1 3787   9.124   6.222   0.085 -0.1339 -0.5795  0.0084
30603SOL    HW2 3788   9.063   6.215   0.223  0.2385  1.5200  0.3042
30604SOL     OW 3789   2.724   3.206   8.663  0.1362 -0.5298 -0.6080
30604SOL    HW1 3790   2.706   3.112   8.667  0.1167 -0.5025 -0.0833
30604SOL    HW2 3791   2.792   3.214   8.596  0.9265 -1.0363  0.1152
30605SOL     OW 3792   7.724   3.766   8.462 -0.4749 -0.3792  0.3427
30605SOL    HW1 3793   7.684   3.681   8.479 -2.3394  0.0964 -1.3394
30605SOL    HW2 3794   7.780   3.752   8.386 -0.0841 -0.2774  0.6068
30606SOL     OW 3795   0.690   3.562   4.878  0.4899  0.0577 -0.1773
30606SOL    HW1 3796   0.736   3.485   4.910  0.7266  0.3882  0.2876
30606SOL    HW2 3797   0.607   3.528   4.845  1.5624 -0.7111 -2.1929
30607SOL     OW 3798   1.364   1.392   2.687  0.1281 -0.0542 -0.1586
30607SOL    HW1 3799   1.304   1.427   2.753 -0.4999  2.2297 -1.8213
30607SOL    HW2 3800   1.450   1.397   2.728 -0.3762  0.2318  0.8996
30608SOL     OW 3801   0.776   4.728   8.331  0.3211  0.2372  0.5931
30608SOL    HW1 3802   0.847   4.671   8.360  0.7206  0.5389  0.2271
30608SOL    HW2 3803   0.774   4.716   8.236  1.3992  1.9438  0.3159
30609SOL     OW 3804   1.343   8.354   3.259 -0.4923  0.2154  0.3522
30609SOL    HW1 3805   1.268   8.407   3.233 -1.1816 -0.6067  0.6189
30609SOL    HW2 3806   1.351   8.368   3.353  0.7374  1.5950  0.0759
30610SOL     OW 3807   7.080   0.372   5.301 -0.3948 -0.3490 -0.8106
30610SOL    HW1 3808   7.039   0.404   5.382 -0.2619  0.2982 -0.9950
30610SOL    HW2 3809   7.060   0.278   5.300 -0.1095 -0.4379  0.1497
30611SOL     OW 3810   3.840   2.743   6.964  0.9044 -0.4094 -0.0823
30611SOL    HW1 3811   3.765   2.708   7.012  0.2854  0.8531 -0.0874
30611SOL    HW2 3812   3.884   2.666   6.928  0.8603 -1.3373  1.7338
30612SOL     OW 3813   3.680   9.085   1.928  0.1800  0.6503 -0.2865
30612SOL    HW1 3814   3.594   9.114   1.898  1.0529  0.2678 -3.4665
30612SOL    HW2 3815   3.726   9.166   1.951 -0.3094  1.0145 -0.5783
30613SOL     OW 3816   1.563   1.364   1.166 -0.2544 -0.2878 -0.1141
30613SOL    HW1 3817   1.532   1.314   1.242  2.4777 -0.9079  0.7042
30613SOL    HW2 3818   1.569   1.454   1.198  0.1090 -0.4097  0.1742
30614SOL     OW 3819   3.693   0.419   9.823  0.3366  0.1489 -0.2692
30614SOL    HW1 3820   3.708   0.357   9.895  0.6838  0.5806  0.0371
30614SOL    HW2 3821   3.606   0.396   9.789  0.4440 -0.4753 -0.1307
30615SOL     OW 3822   9.362   7.156   7.418  0.0158 -0.2515 -0.1573
30615SOL    HW1 3823   9.431   7.160   7.352 -0.7058  0.5272 -0.8743
30615SOL    HW2 3824   9.347   7.247   7.443 -1.2910 -0.3316 -0.5910
30616SOL     OW 3825   2.469   0.759   6.419 -0.1796  0.4225  0.0835
30616SOL    HW1 3826   2.497   0.682   6.469  1.0526  1.9505  1.8943
30616SOL    HW2 3827   2.379   0.775   6.448 -0.3118 -0.1155 -0.0225
30617SOL     OW 3828   9.371   1.067   4.277 -0.1324  0.0436  0.0831
30617SOL    HW1 3829   9.288   1.022   4.261  0.3791 -1.1000  0.5477
30617SOL    HW2 3830   9.409   1.079   4.190  0.5241 -2.0221  0.0372
30618SOL     OW 3831   0.387   8.399   7.263 -0.0762  0.3404  0.7073
30618SOL    HW1 3832   0.436   8.476   7.293  1.4515 -0.9377  1.6098
30618SOL    HW2 3833   0.384   8.341   7.339  1.3321 -1.7305 -0.7362
30619SOL     OW 3834   2.982   8.318   9.078 -0.1358 -0.5889  0.0787
30619SOL    HW1 3835   2.916   8.324   9.009 -0.0143  0.1653  0.0146
30619SOL    HW2 3836   3.064   8.304   9.031 -0.2969 -1.9943  0.1834
30620SOL     OW 3837   7.999   0.203   1.612  0.1799 -1.3670  0.2802
30620SOL    HW1 3838   8.080   0.236   1.651  0.3282 -0.4221 -0.7793
30620SOL    HW2 3839   8.018   0.112   1.589  1.9053 -0.4252 -2.4143
30621SOL     OW 3840   5.031   4.093   8.646  0.3154 -0.4622  0.2056
30621SOL    HW1 3841   5.074   4.027   8.593 -0.1744 -1.7572  1.3543
30621SOL    HW2 3842   5.086   4.171   8.637  0.7030 -0.8885 -1.4666
30622SOL     OW 3843   8.310   7.500   5.870  0.3665  0.0703 -0.2049
30622SOL    HW1 3844   8.296   7.487   5.776  0.0841 -1.9853  0.0893
30622SOL    HW2 3845   8.231   7.545   5.900  0.1135  0.0491 -0.8182
30623SOL     OW 3846   0.021   3.060   1.713 -0.2236 -0.0898  0.3646
30623SOL    HW1 3847   0.100   3.012   1.736  0.3605  0.3433 -0.6747
30623SOL    HW2 3848  -0.026   3.004   1.651 -0.6340 -0.2606  0.8253
30624SOL     OW 3849   7.603   3.803   1.203  0.9659 -0.6743 -0.3938
30624SOL    HW1 3850   7.592   3.861   1.278  1.9180  1.2142 -1.6300
30624SOL    HW2 3851   7.694   3.776   1.206  0.4912 -2.3690  0.2777
30625SOL     OW 3852   8.739   0.254   7.104  0.0467  0.3540  0.0279
30625SOL    HW1 3853   8.661   0.229   7.054 -1.0589  0.6019  1.5652
30625SOL    HW2 3854   8.725   0.217   7.191  1.0276  1.5168  0.7148
30626SOL     OW 3855   1.240   0.748   3.038  0.1180 -0.3387  0.0876
30626SOL    HW1 3856   1.198   0.762   3.123  0.3833 -1.9513  0.5180
30626SOL    HW2 3857   1.329   0.781   3.051  0.5374 -1.6851  0.8682
30627SOL     OW 3858   4.340   4.524   2.911 -0.0949 -0.1381 -0.5549
30627SOL    HW1 3859   4.309   4.614   2.918 -0.3141 -0.2139 -0.5448
30627SOL    HW2 3860   4.428   4.532   2.873  1.0931  0.2723  2.0956
30628SOL     OW 3861   4.703   1.147  10.335  0.1151 -0.4364 -0.1678
30628SOL    HW1 3862   4.655   1.065  10.322 -0.4700  0.0252 -1.0135
30628SOL    HW2 3863   4.764   1.150  10.261 -2.5728  1.7554 -2.5469
30629SOL     OW 3864   2.494   2.512   4.457 -0.6730 -0.0205  1.0040
30629SOL    HW1 3865   2.513   2.490   4.548  2.0137 -0.5692  0.4000
30629SOL    HW2 3866   2.488   2.608   4.457  0.8905  0.1044  1.5328
30630SOL     OW 3867   3.226   6.545   4.786 -0.0421 -0.4379  0.0036
30630SOL    HW1 3868   3.274   6.475   4.830  0.7298  0.8992  1.3747
30630SOL    HW2 3869   3.190   6.599   4.856  1.5838  2.0100 -0.8680
30631SOL     OW 3870   4.479   8.341   2.296  0.2274 -0.4025  0.2947
30631SOL    HW1 3871   4.405   8.311   2.243  0.3022  0.5919 -0.3957
30631SOL    HW2 3872   4.550   8.280   2.276 -0.7351 -2.2077  1.9810
30632SOL     OW 3873   9.755   6.215   9.494  0.2832 -0.0280  0.5974
30632SOL    HW1 3874   9.685   6.176   9.441  0.4693 -1.3401  1.2808
30632SOL    HW2 3875   9.710   6.249   9.571  0.1930  0.6254  0.2602
30633SOL     OW 3876  10.357   9.258   5.801  0.5130  0.0107  0.6180
30633SOL    HW1 3877  10.347   9.349   5.831  2.0102  0.1401  0.8161
30633SOL    HW2 3878  10.444   9.256   5.761 -1.1572 -0.1917 -3.5979
30634SOL     OW 3879   7.489   8.613   9.464 -0.2542 -1.1305 -0.7886
30634SOL    HW1 3880   7.430   8.657   9.404  0.1546 -1.0572 -1.1410
30634SOL    HW2 3881   7.491   8.522   9.433 -0.1818 -1.1322 -0.7777
30635SOL     OW 3882   8.332   7.748   0.892  0.2819  0.5391  0.1289
30635SOL    HW1 3883   8.275   7.763   0.817  0.9739 -0.8848 -0.7216
30635SOL    HW2 3884   8.349   7.654   0.891 -0.8140  0.2092  2.9163
30636SOL     OW 3885   7.688   7.744   9.238 -1.0179  0.2088 -0.0324
30636SOL    HW1 3886   7.650   7.681   9.177  0.2674 -1.0948  0.4706
30636SOL    HW2 3887   7.613   7.794   9.271 -1.8502  0.2885 -1.8988
30637SOL     OW 3888   1.183   6.147   5.480 -0.4613  0.1952  0.4455
30637SOL    HW1 3889   1.173   6.185   5.567  0.6263  0.0200  0.6674
30637SOL    HW2 3890   1.122   6.073   5.479  0.0087 -0.2249  1.3287
30638SOL     OW 3891   5.950   5.058   9.120  0.2820 -0.1427 -0.9400
30638SOL    HW1 3892   6.003   5.121   9.168 -0.6097 -0.3376  0.3626
30638SOL    HW2 3893   5.866   5.102   9.108 -0.5697 -1.2575  0.5458
30639SOL     OW 3894   0.628   2.889   8.698  0.6146  0.0786  0.1293
30639SOL    HW1 3895   0.568   2.948   8.652  0.9532  0.4036  0.0932
30639SOL    HW2 3896   0.580   2.807   8.707  0.2204  0.2908 -0.0251
30640SOL     OW 3897  10.096   8.193   5.256  0.1061  0.2412  0.1951
30640SOL    HW1 3898  10.167   8.220   5.313 -0.5028  0.4717  0.8653
30640SOL    HW2 3899  10.074   8.272   5.206 -1.2704  0.8993  1.7244
30641SOL     OW 3900   2.248   7.822   4.250 -0.6920 -0.3923 -0.0415
30641SOL    HW1 3901   2.307   7.897   4.258 -1.7482  0.3530  1.1469
30641SOL    HW2 3902   2.213   7.828   4.161  0.1007 -0.1609 -0.3492
30642SOL     OW 3903   1.839   3.904  10.072 -0.1908  0.0117 -0.9104
30642SOL    HW1 3904   1.852   3.810  10.061 -0.7680  0.0546 -2.1227
30642SOL    HW2 3905   1.844   3.940   9.983 -0.4526  1.0542 -0.5171
30643SOL     OW 3906   9.883   2.602   6.659 -0.4550 -0.1848  0.1198
30643SOL    HW1 3907   9.874   2.583   6.566 -1.5738 -2.3702  0.5897
30643SOL    HW2 3908   9.804   2.565   6.698 -1.1110  2.6525  1.7264
30644SOL     OW 3909   8.396   8.896   4.858 -0.0562 -0.6168  0.3791
30644SOL    HW1 3910   8.459   8.844   4.908 -3.3821 -3.9406  1.5451
30644SOL    HW2 3911   8.407   8.864   4.768 -0.6827 -1.9667  0.7491
30645SOL     OW 3912   3.490   9.021   8.117  0.0815 -0.3315  0.1259
30645SOL    HW1 3913   3.409   9.070   8.103 -0.4150 -0.7734  1.3645
30645SOL    HW2 3914   3.560   9.083   8.093 -0.5974  0.0177 -1.0616
30646SOL     OW 3915   3.442   1.612   6.532  0.4913  0.3488 -0.5510
30646SOL    HW1 3916   3.508   1.681   6.540  0.1918  0.9017 -2.3824
30646SOL    HW2 3917   3.369   1.654   6.486 -0.5741 -0.6463  0.1630
30647SOL     OW 3918   2.471  10.078   5.754 -0.1244 -0.0039 -0.2828
30647SOL    HW1 3919   2.435  10.162   5.781 -0.5784 -0.5607  0.9225
30647SOL    HW2 3920   2.528  10.098   5.680  0.9047  1.5478  0.8774
30648SOL     OW 3921   1.637   0.995   2.758 -0.1781  0.0722 -0.7612
30648SOL    HW1 3922   1.619   0.937   2.684  1.6617 -0.4717 -0.8445
30648SOL    HW2 3923   1.730   1.018   2.748 -0.1061  0.6534  0.9149
30649SOL     OW 3924   0.083   1.625   9.042 -0.2103 -0.3275 -0.3138
30649SOL    HW1 3925   0.135   1.620   8.961 -0.9997 -0.9437 -0.7947
30649SOL    HW2 3926   0.124   1.560   9.100  0.3416  0.0967 -0.2190
30650SOL     OW 3927   6.605   4.385   5.372  0.3184  0.2619  0.5090
30650SOL    HW1 3928   6.566   4.324   5.434  0.8710 -0.2571  0.3561
30650SOL    HW2 3929   6.652   4.449   5.426  2.3464 -1.2417  0.6008
30651SOL     OW 3930   9.771   3.313   3.640 -0.6817 -0.5662 -0.6884
30651SOL    HW1 3931   9.733   3.357   3.716 -0.3692 -1.4820  0.0262
30651SOL    HW2 3932   9.858   3.351   3.630 -0.4815 -0.8836 -0.1854
30652SOL     OW 3933   8.998   6.717   2.031  0.5011  0.0390 -0.2831
30652SOL    HW1 3934   8.904   6.714   2.048  0.6318  1.4333  0.8429
30652SOL    HW2 3935   9.031   6.633   2.063 -0.2482 -0.1433  0.0167
30653SOL     OW 3936   5.015   3.926   6.615  0.2122  0.6475 -0.1101
30653SOL    HW1 3937   5.004   3.916   6.521 -0.9812 -0.8553  0.1596
30653SOL    HW2 3938   4.955   3.996   6.639 -1.3647 -0.6152 -0.1572
30654SOL     OW 3939   6.444   6.264   2.905 -0.2976 -0.2319  1.2396
30654SOL    HW1 3940   6.472   6.177   2.932 -1.0120  0.1083  3.2319
30654SOL    HW2 3941   6.455   6.318   2.982 -0.6360  1.2782  0.2696
30655SOL     OW 3942   8.689   7.247   0.120  0.5107  0.7039 -1.1072
30655SOL    HW1 3943   8.648   7.333   0.109  0.2675  0.9274  1.0409
30655SOL    HW2 3944   8.636   7.205   0.188  0.0197 -1.5748 -2.7998
30656SOL     OW 3945   8.606   5.875   9.133  0.2369 -0.2444  0.3100
30656SOL    HW1 3946   8.700   5.888   9.117  0.1611  0.5099  0.4445
30656SOL    HW2 3947   8.594   5.780   9.131  0.9492 -0.3312 -0.0172
30657SOL     OW 3948   9.954   2.437   1.681  0.0527  0.4074  0.1514
30657SOL    HW1 3949   9.939   2.417   1.774 -1.7826  0.4213 -0.1048
30657SOL    HW2 3950  10.011   2.366   1.651  0.5492  0.3136  1.2395
30658SOL     OW 3951   3.705   0.032   9.155  0.2709 -0.4656 -0.0348
30658SOL    HW1 3952   3.735   0.122   9.168  1.2378 -0.4273 -2.1211
30658SOL    HW2 3953   3.660   0.034   9.070 -1.1586 -1.6287  0.6601
30659SOL     OW 3954   4.656   1.738   2.936 -0.2845  0.3145  0.4648
30659SOL    HW1 3955   4.678   1.792   2.860 -1.3354  0.3122  0.1518
30659SOL    HW2 3956   4.562   1.723   2.929 -0.1205 -1.0580  0.8741
30660SOL     OW 3957   4.744   2.991   6.288  0.1856 -0.1565 -0.3157
30660SOL    HW1 3958   4.743   3.008   6.194  1.7241  0.2972 -0.2669
30660SOL    HW2 3959   4.802   2.916   6.299  0.3703  0.0727  0.3187
30661SOL     OW 3960   7.583   1.557   9.603 -0.5590 -0.6975  0.2038
30661SOL    HW1 3961   7.653   1.524   9.545 -0.3562  0.0719  0.0011
30661SOL    HW2 3962   7.615   1.539   9.691  0.4097  0.6129  0.1507
30662SOL     OW 3963   8.342   8.719   0.913 -0.3088  0.1525  0.2676
30662SOL    HW1 3964   8.414   8.753   0.860 -0.3440 -3.2830 -2.3520
30662SOL    HW2 3965   8.265   8.769   0.883  0.4388  1.6694  0.7923
30663SOL     OW 3966   9.442   6.503   2.226  0.5972 -0.2102 -0.1993
30663SOL    HW1 3967   9.347   6.493   2.219  0.4880 -0.2409  1.2032
30663SOL    HW2 3968   9.455   6.590   2.263  1.0633 -0.6352  0.6703
30664SOL     OW 3969   6.587  10.215   4.346 -0.0235  0.4106 -0.0419
30664SOL    HW1 3970   6.624  10.129   4.326  1.6267  0.2641  3.0798
30664SOL    HW2 3971   6.499  10.197   4.380  0.0026  0.0519 -0.1681
30665SOL     OW 3972  10.207   4.162   8.403  0.0225 -0.1676  0.2574
30665SOL    HW1 3973  10.284   4.119   8.366  0.6974  0.8444  0.4268
30665SOL    HW2 3974  10.157   4.192   8.327  0.6215  0.5550  0.1297
30666SOL     OW 3975   8.947   6.451   7.471 -0.3291  0.7942 -0.3435
30666SOL    HW1 3976   8.895   6.438   7.550 -0.7656 -0.9532 -0.8631
30666SOL    HW2 3977   8.937   6.544   7.450 -1.6045  0.9135  0.6845
30667SOL     OW 3978   0.209   4.987   7.264 -0.5040  0.0661 -0.0550
30667SOL    HW1 3979   0.146   5.039   7.314 -0.4034 -0.7138  0.9239
30667SOL    HW2 3980   0.286   5.043   7.256 -0.8310  0.5133 -0.0552
30668SOL     OW 3981   6.472   4.559   7.536  0.6728 -0.3711  0.1183
30668SOL    HW1 3982   6.554   4.510   7.544  1.5115  0.5515 -2.1135
30668SOL    HW2 3983   6.492   4.629   7.474 -1.4400  0.7287  0.6004
30669SOL     OW 3984   4.122  10.080   0.470 -0.4617 -0.4779  0.6304
30669SOL    HW1 3985   4.194  10.039   0.519  0.0671  0.8338  0.9954
30669SOL    HW2 3986   4.069  10.006   0.439  2.7256 -1.7554 -2.3951
30670SOL     OW 3987   8.558   4.830   0.131  0.1625 -0.1895 -0.0424
30670SOL    HW1 3988   8.504   4.866   0.201  0.6698  0.8630 -0.1810
30670SOL    HW2 3989   8.496   4.793   0.069 -0.3566  0.2437  0.2126
30671SOL     OW 3990   0.518   3.654   5.695 -0.1514 -0.1706  0.0669
30671SOL    HW1 3991   0.551   3.571   5.728  0.3082  0.4280  1.1610
30671SOL    HW2 3992   0.506   3.708   5.773  3.4729  2.2457 -0.8285
30672SOL     OW 3993   7.302   2.859   8.865  1.0303  0.0835  0.5357
30672SOL    HW1 3994   7.216   2.892   8.890  0.6227  0.7606 -1.5836
30672SOL    HW2 3995   7.305   2.770   8.900  0.0284  0.5095  1.7773
30673SOL     OW 3996   2.369   5.762   3.831  0.4662 -0.0017  0.3442
30673SOL    HW1 3997   2.373   5.668   3.849 -0.1837 -0.0967 -0.0041
30673SOL    HW2 3998   2.363   5.769   3.736  1.7953  0.4411  0.2648
30674SOL     OW 3999  10.148   8.798   7.681  0.4837  0.6226 -0.4162
30674SOL    HW1 4000  10.095   8.798   7.601  1.6011  0.2400 -1.1837
30674SOL    HW2 4001  10.113   8.870   7.733 -0.2294  0.9144 -1.2698
30675SOL     OW 4002   0.072   4.409   3.344  0.2370 -0.7043  0.1075
30675SOL    HW1 4003   0.018   4.348   3.394  1.4580 -1.9094  0.0257
30675SOL    HW2 4004   0.134   4.444   3.408 -0.3942  0.4082  0.1326
30676SOL     OW 4005   7.550   7.233   8.879  0.0572  0.3187 -0.1853
30676SOL    HW1 4006   7.477   7.292   8.898 -0.2836 -0.3859  0.7337
30676SOL    HW2 4007   7.606   7.238   8.957  0.3278 -0.1268 -0.3480
30677SOL     OW 4008   9.562   0.032   5.996 -0.1922 -0.2215  0.6432
30677SOL    HW1 4009   9.645   0.058   6.036 -0.7341 -1.1045  2.4818
30677SOL    HW2 4010   9.507   0.006   6.071 -1.6525 -0.9483 -0.6294
30678SOL     OW 4011   2.597   5.095   4.207 -0.1133  0.1619 -0.2676
30678SOL    HW1 4012   2.612   5.189   4.201  0.2221  0.0812 -0.7648
30678SOL    HW2 4013   2.684   5.057   4.221  0.0550 -0.2287 -2.1168
30679SOL     OW 4014   3.565   7.285   2.697  0.0307  0.1779  0.1200
30679SOL    HW1 4015   3.604   7.295   2.784 -0.6029 -1.5920  0.6537
30679SOL    HW2 4016   3.480   7.329   2.704  0.5085  1.1479 -0.0212
30680SOL     OW 4017   4.245   2.693   5.498  0.5362  0.1978 -0.0272
30680SOL    HW1 4018   4.211   2.616   5.453  0.4415  0.9485 -1.2662
30680SOL    HW2 4019   4.294   2.657   5.572  0.9629 -1.0687 -0.8931
30681SOL     OW 4020   8.537   9.501   6.296 -0.4022  0.0553  0.0127
30681SOL    HW1 4021   8.502   9.578   6.342  0.3922 -0.0106  0.7392
30681SOL    HW2 4022   8.496   9.427   6.339  0.4323 -0.0119  0.7014
30682SOL     OW 4023   8.089   6.032   6.382 -0.1999  0.2639 -0.4168
30682SOL    HW1 4024   8.064   6.006   6.471  0.5176 -1.4854 -0.6949
30682SOL    HW2 4025   8.160   6.095   6.396 -0.3462  0.2901  0.2552
30683SOL     OW 4026   5.351   5.791   1.502  0.1843 -0.4321  0.3768
30683SOL    HW1 4027   5.352   5.803   1.407 -1.6065  0.4119  0.4300
30683SOL    HW2 4028   5.287   5.720   1.516  0.6735 -0.7715  0.9421
30684SOL     OW 4029   1.785   3.278   6.538  0.2975 -0.0718 -1.0227
30684SOL    HW1 4030   1.844   3.203   6.530 -1.3465 -1.5297 -0.1154
30684SOL    HW2 4031   1.777   3.292   6.632 -0.7699  0.1065 -1.1328
30685SOL     OW 4032   9.821   6.793  10.232  0.2837 -0.1904 -0.0488
30685SOL    HW1 4033   9.783   6.718  10.186 -3.4254  0.1869  2.0487
30685SOL    HW2 4034   9.856   6.756  10.313 -0.1440  0.1353  0.2846
30686SOL     OW 4035   2.167   1.548  10.098 -0.0019  0.0791  0.1610
30686SOL    HW1 4036   2.206   1.632  10.074 -1.6235  1.1966  1.2521
30686SOL    HW2 4037   2.194   1.534  10.189 -0.4737 -0.1364  0.2710
30687SOL     OW 4038   0.464   6.913   6.022 -0.2430  0.2135  0.1549
30687SOL    HW1 4039   0.512   6.879   6.098  1.0316  2.6347  0.5413
30687SOL    HW2 4040   0.403   6.977   6.059 -1.5436 -0.5125 -0.6592
30688SOL     OW 4041   4.227   4.032   7.265 -0.0892 -0.1993  0.1111
30688SOL    HW1 4042   4.162   4.004   7.329 -0.8072  0.6614 -0.2240
30688SOL    HW2 4043   4.186   4.105   7.219  0.1410 -1.1901 -1.7815
30689SOL     OW 4044   6.917   6.165   5.600 -0.2421  0.4729  0.3600
30689SOL    HW1 4045   6.964   6.186   5.680  0.3044  1.3456 -0.1764
30689SOL    HW2 4046   6.862   6.090   5.624  1.3436 -0.5484  1.0324
30690SOL     OW 4047   3.897   3.250   2.690  0.1539  0.0010  0.0445
30690SOL    HW1 4048   3.816   3.226   2.735  0.4144 -0.6388  0.1835
30690SOL    HW2 4049   3.878   3.336   2.651 -0.5710 -0.1173  0.1147
30691SOL     OW 4050   9.171   0.926   9.065 -0.8083 -0.0730 -1.1893
30691SOL    HW1 4051   9.242   0.882   9.018  0.5270  0.1274  0.5062
30691SOL    HW2 4052   9.202   1.016   9.076  0.1054 -0.6242  2.0269
30692SOL     OW 4053   1.563   2.605  10.277  0.5399  0.3451  0.3137
30692SOL    HW1 4054   1.527   2.548  10.346 -1.1585 -0.8610 -1.4729
30692SOL    HW2 4055   1.560   2.552  10.198  1.0810  2.1868 -1.0076
30693SOL     OW 4056   3.709   7.761   1.957 -0.4104 -0.2477 -0.1053
30693SOL    HW1 4057   3.746   7.680   1.922 -2.9159 -0.7667 -1.7951
30693SOL    HW2 4058   3.758   7.831   1.913  0.8310 -0.8087  0.3251
30694SOL     OW 4059   1.027   4.835   1.908  0.1471 -0.1815 -0.2882
30694SOL    HW1 4060   0.996   4.853   1.997  0.8123 -0.5010  0.0176
30694SOL    HW2 4061   1.117   4.867   1.907  0.7043 -1.6474 -0.3184
30695SOL     OW 4062   3.572   1.188   8.714  0.0575  0.6499  0.2312
30695SOL    HW1 4063   3.503   1.184   8.647  0.8882 -1.3246 -0.5944
30695SOL    HW2 4064   3.535   1.243   8.783 -1.5216  1.3287 -1.0731
30696SOL     OW 4065   2.760   7.489   9.453 -0.3263  0.2690 -0.0746
30696SOL    HW1 4066   2.716   7.509   9.536  0.4581 -0.3355  0.4986
30696SOL    HW2 4067   2.844   7.450   9.479 -0.4893 -0.8593 -1.1406
30697SOL     OW 4068   5.819   7.778  10.094 -0.2642  0.5693  0.1075
30697SOL    HW1 4069   5.886   7.721  10.132 -0.6701  0.1848  0.2537
30697SOL    HW2 4070   5.799   7.738  10.009 -0.1925  0.7725 -0.0049
30698SOL     OW 4071   7.656   8.293   9.669  0.0541  0.5006 -0.4042
30698SOL    HW1 4072   7.653   8.238   9.590  1.2371  0.0982 -0.1809
30698SOL    HW2 4073   7.703   8.372   9.642 -0.8452  1.0232 -0.4810
30699SOL     OW 4074   2.658   6.590   4.698 -0.4177  0.0456  0.3244
30699SOL    HW1 4075   2.606   6.635   4.765 -0.8948  0.3102 -0.2118
30699SOL    HW2 4076   2.743   6.634   4.701 -0.9368  1.1394 -0.3196
30700SOL     OW 4077   5.748   5.223   4.416  0.2971  0.5404 -0.2012
30700SOL    HW1 4078   5.751   5.318   4.428  0.2510  0.5284 -0.0878
30700SOL    HW2 4079   5.666   5.207   4.370 -0.7703  0.3691  1.6551
30701SOL     OW 4080  10.128   6.332   9.678 -0.4744 -0.3591  0.2691
30701SOL    HW1 4081  10.113   6.243   9.711  0.0964 -1.3357 -1.9320
30701SOL    HW2 4082  10.210   6.359   9.719 -0.7050 -0.7864  1.0381
30702SOL     OW 4083   1.853   6.160   0.504  0.4151 -0.1992 -0.0636
30702SOL    HW1 4084   1.865   6.254   0.492 -2.9509  0.4847  0.8167
30702SOL    HW2 4085   1.809   6.131   0.424 -1.6488 -0.2500  1.0263
30703SOL     OW 4086   2.918   9.571   4.429  0.0178 -0.0784 -0.3570
30703SOL    HW1 4087   2.955   9.620   4.503  0.1250  1.4816 -1.4139
30703SOL    HW2 4088   2.942   9.622   4.352 -0.7237 -1.2947 -1.4203
30704SOL     OW 4089   7.669   5.824   8.399  0.4667  0.1289 -0.0107
30704SOL    HW1 4090   7.727   5.846   8.471 -0.2449  0.9045  0.3365
30704SOL    HW2 4091   7.582   5.817   8.438  0.0101  0.9318 -0.8403
30705SOL     OW 4092   8.675   6.014   5.144  0.3806 -0.2969 -0.2215
30705SOL    HW1 4093   8.680   6.078   5.215  2.2857 -0.8912  0.2405
30705SOL    HW2 4094   8.598   6.040   5.093  0.6636  1.9061  0.3847
30706SOL     OW 4095   4.050   5.119   1.191 -0.3183  0.0949 -0.1923
30706SOL    HW1 4096   3.973   5.172   1.211 -0.3045  0.4356 -0.9875
30706SOL    HW2 4097   4.110   5.133   1.264 -0.6839  0.4696  0.0338
30707SOL     OW 4098   5.672   1.960   7.711 -0.1846 -0.2818  0.2910
30707SOL    HW1 4099   5.645   1.924   7.627 -1.1215 -1.3131  1.0128
30707SOL    HW2 4100   5.661   2.055   7.701  1.9729 -0.1295 -1.5130
30708SOL     OW 4101   5.643   4.926   6.984 -0.5859  0.6110  0.3957
30708SOL    HW1 4102   5.635   4.979   7.063 -2.0495  1.0524 -0.0099
30708SOL    HW2 4103   5.552   4.905   6.959 -0.1649  0.3964 -1.1031
30709SOL     OW 4104  10.311   4.714   7.929 -0.5121 -0.6280  0.4580
30709SOL    HW1 4105  10.337   4.699   7.839  0.1109  0.0641  0.5200
30709SOL    HW2 4106  10.281   4.805   7.931  2.5394  0.4773  1.6058
30710SOL     OW 4107   0.786   6.123   7.993 -0.0054  0.2093 -0.1631
30710SOL    HW1 4108   0.851   6.064   7.957  1.2154  0.9848  0.6962
30710SOL    HW2 4109   0.702   6.083   7.969  0.7597 -1.7674  0.2492
30711SOL     OW 4110   3.221   8.278   0.849 -0.4491  0.4566  0.4973
30711SOL    HW1 4111   3.253   8.270   0.759  0.6450  0.0419  0.9035
30711SOL    HW2 4112   3.301   8.283   0.902 -1.0641 -0.6146  1.5581
30712SOL     OW 4113   7.018   9.850   9.684 -0.0376  0.0577 -0.3854
30712SOL    HW1 4114   7.087   9.914   9.700 -0.1883  0.2361 -0.4498
30712SOL    HW2 4115   7.036   9.779   9.746  0.4654 -0.1025 -0.7074
30713SOL     OW 4116   8.772   4.131   9.582  0.8336 -0.2153  0.1398
30713SOL    HW1 4117   8.713   4.206   9.575  0.7397 -0.2292  0.7551
30713SOL    HW2 4118   8.856   4.168   9.609  0.9653 -0.2601 -0.1977
30714SOL     OW 4119   4.893   5.505   4.719 -0.0048  0.4975 -0.2276
30714SOL    HW1 4120   4.959   5.491   4.651  0.9473  1.0815  0.5567
30714SOL    HW2 4121   4.823   5.554   4.675  0.2723  0.2570 -0.9553
30715SOL     OW 4122   8.418   9.176   9.439  0.1278  0.3771 -0.5087
30715SOL    HW1 4123   8.477   9.106   9.468  1.5859  0.9097 -1.9746
30715SOL    HW2 4124   8.446   9.253   9.488 -0.0016  0.4100 -0.4882
30716SOL     OW 4125   9.275   2.298   8.316 -0.3621 -0.0333  0.0691
30716SOL    HW1 4126   9.349   2.283   8.375 -0.3041  0.0507  0.0192
30716SOL    HW2 4127   9.200   2.259   8.361 -0.1622 -0.7303 -0.1918
30717SOL     OW 4128   7.714   9.657   7.659  0.4277  0.3622  0.0795
30717SOL    HW1 4129   7.791   9.713   7.651 -0.2915  1.6632  1.5770
30717SOL    HW2 4130   7.640   9.718   7.661 -0.4666 -0.6901  0.8376
30718SOL     OW 4131   0.864   7.130   6.923 -0.2387  0.2829  0.0922
30718SOL    HW1 4132   0.908   7.175   6.995 -0.9433  2.5281 -0.7619
30718SOL    HW2 4133   0.773   7.123   6.952 -0.1020 -0.8117  0.2868
30719SOL     OW 4134   0.622   4.326   8.309  0.0118  0.2408  0.2113
30719SOL    HW1 4135   0.628   4.247   8.256  2.5156  1.7326 -1.9849
30719SOL    HW2 4136   0.644   4.297   8.398  0.2489 -1.6236 -0.4109
30720SOL     OW 4137   8.363   8.547   3.921 -0.2187  0.1628 -0.4325
30720SOL    HW1 4138   8.456   8.569   3.916 -0.6776  2.1805 -0.9956
30720SOL    HW2 4139   8.349   8.484   3.851  1.1705 -2.1367  1.2403
30721SOL     OW 4140   1.160   9.062   2.663  0.0970 -0.1896  0.2095
30721SOL    HW1 4141   1.191   9.011   2.589  2.8262  0.0993  1.0316
30721SOL    HW2 4142   1.233   9.121   2.684 -0.3443 -0.5615  3.3598
30722SOL     OW 4143   4.955   5.547   7.733 -0.3624  0.0787 -0.0356
30722SOL    HW1 4144   4.962   5.580   7.644 -0.2349 -0.3359 -0.1819
30722SOL    HW2 4145   4.965   5.452   7.724 -1.5222 -0.0906  0.2806
30723SOL     OW 4146   2.254   9.647   9.452  0.3178 -0.0299 -0.2506
30723SOL    HW1 4147   2.297   9.601   9.525 -0.5220 -0.4475 -0.0167
30723SOL    HW2 4148   2.320   9.647   9.382  1.0641  0.2049  0.4308
30724SOL     OW 4149   4.752   4.006   8.366 -0.0937  0.5749 -0.3496
30724SOL    HW1 4150   4.838   4.024   8.327 -0.3546 -0.9135 -1.7054
30724SOL    HW2 4151   4.771   3.989   8.458  1.2574 -0.9622 -0.8664
30725SOL     OW 4152   1.937   2.675   2.852 -0.0661  0.0602  0.0312
30725SOL    HW1 4153   1.943   2.579   2.848 -0.4276 -0.0040  0.9428
30725SOL    HW2 4154   2.022   2.705   2.820 -0.5546 -0.5058 -1.9781
30726SOL     OW 4155   7.247   4.477  10.249 -0.3268  0.3682  0.4135
30726SOL    HW1 4156   7.192   4.425  10.307 -0.0911  1.0213  1.2418
30726SOL    HW2 4157   7.315   4.514  10.306  2.1742 -1.9068 -0.8230
30727SOL     OW 4158   2.936   3.585   5.725 -0.4203 -0.2974 -0.5733
30727SOL    HW1 4159   2.999   3.577   5.797 -0.0068 -0.6105 -0.9675
30727SOL    HW2 4160   2.990   3.602   5.648 -0.7234 -1.7432 -1.1192
30728SOL     OW 4161   3.950   6.374   6.636  0.3863  0.2368  0.4198
30728SOL    HW1 4162   4.009   6.353   6.563  2.8669  1.5044  1.9089
30728SOL    HW2 4163   3.945   6.293   6.686  0.2313 -0.1015 -0.1330
30729SOL     OW 4164   3.739   1.720   6.059  0.1903 -0.0101  0.6075
30729SOL    HW1 4165   3.731   1.626   6.046 -1.5702  0.2963 -1.0262
30729SOL    HW2 4166   3.669   1.742   6.121 -1.0937  0.5177 -0.9716
30730SOL     OW 4167   6.240  10.356  10.144  0.2899 -0.0310 -0.6852
30730SOL    HW1 4168   6.293  10.399  10.211  0.0227  0.2541 -0.6548
30730SOL    HW2 4169   6.247  10.413  10.068 -0.6885  0.4777 -0.4042
30731SOL     OW 4170   7.423   8.719   0.022 -0.0086  0.1365  0.8223
30731SOL    HW1 4171   7.333   8.710  -0.008  0.5258 -1.3696 -0.4629
30731SOL    HW2 4172   7.418   8.710   0.117 -1.1011 -0.9505  0.6722
30732SOL     OW 4173  10.376   2.460   0.644  0.0590 -0.0764  0.2789
30732SOL    HW1 4174  10.342   2.417   0.722  1.3642 -1.2867  0.2310
30732SOL    HW2 4175  10.407   2.388   0.589  1.2063  0.8685 -0.3562
30733SOL     OW 4176   4.048   2.611   6.655  0.0930  0.7230  0.6331
30733SOL    HW1 4177   4.049   2.585   6.747 -1.3343 -1.4658  0.1067
30733SOL    HW2 4178   4.097   2.694   6.653  0.5299  0.6205  3.2608
30734SOL     OW 4179   9.930   5.739   8.755 -0.6095  0.0334  0.4930
30734SOL    HW1 4180   9.895   5.813   8.705  0.8545  0.3147 -0.1571
30734SOL    HW2 4181   9.920   5.766   8.846  1.0655  1.6743  0.2734
30735SOL     OW 4182   9.778   2.809   5.321  0.2640 -0.4051  0.6380
30735SOL    HW1 4183   9.833   2.829   5.396  0.1068  2.0696  0.1682
30735SOL    HW2 4184   9.689   2.827   5.351  0.2570  1.2864 -0.2814
30736SOL     OW 4185   6.850   9.079   0.241 -1.0655  0.1468 -0.3665
30736SOL    HW1 4186   6.864   9.024   0.164  1.3461 -1.0265  0.8241
30736SOL    HW2 4187   6.915   9.149   0.233  0.2202 -0.8088  1.2751
30737SOL     OW 4188   4.929   6.320   0.020 -0.1258 -0.1112  0.6255
30737SOL    HW1 4189   4.890   6.232   0.014 -1.9427  0.6147  1.1800
30737SOL    HW2 4190   4.910   6.359  -0.065 -0.8821  0.3436  0.9966
30738SOL     OW 4191   4.622   3.337   4.164  0.2014 -0.1830 -0.2879
30738SOL    HW1 4192   4.563   3.272   4.127  0.2490 -0.3172 -0.1288
30738SOL    HW2 4193   4.695   3.342   4.102 -0.3342  0.5332 -0.8750
30739SOL     OW 4194   8.551   7.797   9.944  0.7228  0.3439 -0.1790
30739SOL    HW1 4195   8.547   7.890   9.922  0.5111  0.5471  0.6813
30739SOL    HW2 4196   8.572   7.754   9.861 -1.3323  0.9425 -1.0822
30740SOL     OW 4197   5.668   9.610   4.158 -0.3232  0.1284  0.2716
30740SOL    HW1 4198   5.705   9.658   4.084 -1.3319  0.7504  0.1466
30740SOL    HW2 4199   5.636   9.678   4.218  0.4735 -0.3633  1.2950
30741SOL     OW 4200   7.575  10.006   1.633  0.5446 -0.0276  0.1569
30741SOL    HW1 4201   7.588   9.947   1.559 -0.8832  0.9692 -0.9348
30741SOL    HW2 4202   7.497  10.057   1.610 -1.5947 -1.4572  3.4576
30742SOL     OW 4203  10.288   6.410   4.827  0.5479  0.0521  0.0714
30742SOL    HW1 4204  10.370   6.366   4.803  0.4629  0.0998 -0.3217
30742SOL    HW2 4205  10.241   6.420   4.744 -0.0612 -0.3779  0.3583
30743SOL     OW 4206   3.543  10.081   2.601 -0.6439 -0.6459 -0.3053
30743SOL    HW1 4207   3.509  10.071   2.512 -0.0061  1.6727 -0.8899
30743SOL    HW2 4208   3.612  10.014   2.607 -1.0895 -1.2287 -1.3437
30744SOL     OW 4209   3.802   0.193   3.761  0.3298 -0.1311  0.0442
30744SOL    HW1 4210   3.838   0.107   3.737  0.6370 -0.0653  0.2767
30744SOL    HW2 4211   3.791   0.190   3.856  1.7607  0.6249  0.2572
30745SOL     OW 4212   7.900   2.815   5.448 -0.4686  0.4976  0.3277
30745SOL    HW1 4213   7.812   2.825   5.482 -0.3907  0.3369  0.5848
30745SOL    HW2 4214   7.890   2.815   5.353 -0.9430 -1.0592  0.3421
30746SOL     OW 4215   1.642   9.936   6.122  0.1060 -0.6705 -0.1455
30746SOL    HW1 4216   1.599  10.008   6.075 -1.5357 -0.7784  1.0889
30746SOL    HW2 4217   1.622   9.953   6.214 -0.7146 -2.9073  0.1664
30747SOL     OW 4218   9.962   9.515   6.483 -0.7672  0.0408 -0.9935
30747SOL    HW1 4219   9.988   9.607   6.479 -2.5247  0.6438  0.3168
30747SOL    HW2 4220  10.032   9.472   6.533 -0.9630  1.1099  0.2489
30748SOL     OW 4221   1.449   5.989   3.590  0.2157 -0.0502  0.3732
30748SOL    HW1 4222   1.354   5.985   3.576  0.4919  0.0618 -1.8136
30748SOL    HW2 4223   1.475   5.898   3.604 -0.0090 -0.2811 -0.6546
30749SOL     OW 4224   9.744   0.850   8.915 -0.3607 -0.2073  0.3099
30749SOL    HW1 4225   9.713   0.849   8.824 -0.3767 -0.5526  0.3161
30749SOL    HW2 4226   9.741   0.942   8.940 -1.9705 -0.2739  0.5012
30750SOL     OW 4227   9.766   8.645   1.827  0.7682  0.2615  0.2212
30750SOL    HW1 4228   9.850   8.602   1.814  0.6619 -0.4314  1.5826
30750SOL    HW2 4229   9.789   8.733   1.857  1.0208  0.0633  0.6198
30751SOL     OW 4230   8.255   0.568   4.305 -0.6226  0.0899  0.7050
30751SOL    HW1 4231   8.244   0.498   4.369 -0.7254 -1.7093 -1.1690
30751SOL    HW2 4232   8.296   0.525   4.230 -1.0126  1.9785 -0.6590
30752SOL     OW 4233   0.012   4.128   5.713  0.0005  0.4912  0.1754
30752SOL    HW1 4234   0.082   4.135   5.648 -0.4296  0.9650 -0.2480
30752SOL    HW2 4235  -0.065   4.098   5.664 -0.9442  2.9937 -0.0263
30753SOL     OW 4236   3.633   6.147   7.729 -0.0115 -0.0032 -0.4372
30753SOL    HW1 4237   3.610   6.239   7.717  1.3694  0.3068 -0.8209
30753SOL    HW2 4238   3.728   6.144   7.724 -0.0588 -1.5768 -1.3138
30754SOL     OW 4239   4.450   4.728   6.738  0.4135 -0.3023 -0.0103
30754SOL    HW1 4240   4.503   4.807   6.742  0.3368 -0.2007 -0.8820
30754SOL    HW2 4241   4.397   4.730   6.817 -1.4141  1.8084 -1.2021
30755SOL     OW 4242   6.955   6.756   8.922 -0.3868  0.1200 -0.2244
30755SOL    HW1 4243   6.997   6.727   9.003 -0.1743  0.0504 -0.3558
30755SOL    HW2 4244   7.015   6.727   8.853 -0.1094  0.9649 -0.3572
30756SOL     OW 4245   6.429   7.191   6.349  0.4509  0.3409  0.0600
30756SOL    HW1 4246   6.485   7.240   6.409  1.0492  1.4463 -1.3549
30756SOL    HW2 4247   6.457   7.100   6.361 -1.0216  0.1493  3.0959
30757SOL     OW 4248   0.328   6.874   2.657 -0.2395 -0.7027  0.1645
30757SOL    HW1 4249   0.357   6.909   2.741 -0.1389 -0.9773  0.2473
30757SOL    HW2 4250   0.232   6.874   2.663 -0.2891  0.5875 -0.2691
30758SOL     OW 4251   4.203   1.743   5.169 -0.1442  0.1245  0.5392
30758SOL    HW1 4252   4.137   1.756   5.238 -0.0711 -0.4536  0.7211
30758SOL    HW2 4253   4.270   1.809   5.188 -1.3966  1.8017 -0.5743
30759SOL     OW 4254   1.587   2.483   2.364 -0.3340  0.3766 -0.1080
30759SOL    HW1 4255   1.655   2.511   2.426 -1.6151  1.9384  0.6532
30759SOL    HW2 4256   1.588   2.550   2.296  0.2518 -0.7054 -1.2220
30760SOL     OW 4257   5.818  10.054   4.216 -0.1951  0.7319 -0.5322
30760SOL    HW1 4258   5.727  10.083   4.203 -1.0507 -1.3498  0.2677
30760SOL    HW2 4259   5.831  10.059   4.311 -0.3291 -1.1663 -0.3725
30761SOL     OW 4260   1.993   1.554   8.061  0.1492 -0.3452  0.0289
30761SOL    HW1 4261   1.947   1.616   8.004  1.1977  0.1581 -0.3047
30761SOL    HW2 4262   2.007   1.477   8.007 -1.1307 -0.8784  0.4344
30762SOL     OW 4263   2.235   8.576   9.802  0.5815  0.1407  0.2347
30762SOL    HW1 4264   2.149   8.580   9.843  0.5735 -0.5036  0.2889
30762SOL    HW2 4265   2.274   8.662   9.819  0.2499  0.1691  0.8721
30763SOL     OW 4266   1.281   6.194  10.257 -0.1552 -0.4761  0.3757
30763SOL    HW1 4267   1.234   6.165  10.335  0.3706 -0.1615  0.8170
30763SOL    HW2 4268   1.212   6.219  10.195 -0.5723  0.4267  1.1836
30764SOL     OW 4269   2.784   9.968   7.867  0.1106 -0.3898 -0.1797
30764SOL    HW1 4270   2.697   9.963   7.907  0.0802 -1.0264 -0.3096
30764SOL    HW2 4271   2.773   9.926   7.782  0.5951 -0.6673 -0.1093
30765SOL     OW 4272   1.707   3.698   8.590  0.5238  0.0484  0.1610
30765SOL    HW1 4273   1.665   3.689   8.676  0.5524  2.6741  0.5543
30765SOL    HW2 4274   1.697   3.612   8.549 -3.3549 -0.1370  1.0732
30766SOL     OW 4275   1.007  10.059   7.731  0.3978  0.0397 -1.1136
30766SOL    HW1 4276   1.002  10.032   7.639  0.0110 -1.8754 -0.5746
30766SOL    HW2 4277   0.916  10.071   7.758  0.4653 -0.2799 -0.7410
30767SOL     OW 4278   1.271   1.305   6.332 -0.8390  0.1532  0.1944
30767SOL    HW1 4279   1.208   1.336   6.267  1.0370  2.5047 -0.6172
30767SOL    HW2 4280   1.315   1.232   6.289 -0.7567  0.6144 -0.5215
30768SOL     OW 4281   4.731   7.550   6.005  0.8852 -0.3164  0.0243
30768SOL    HW1 4282   4.816   7.509   6.018  1.6722  1.0891 -0.4456
30768SOL    HW2 4283   4.728   7.621   6.070  0.8565  0.7674 -1.1144
30769SOL     OW 4284   6.032   8.271   3.262 -0.0394 -0.1806  0.4735
30769SOL    HW1 4285   5.936   8.266   3.256 -0.1683  2.1747 -0.2829
30769SOL    HW2 4286   6.056   8.348   3.211  2.4223 -1.4737 -0.5170
30770SOL     OW 4287   8.386   1.877   2.210  0.0670 -0.4652 -0.2330
30770SOL    HW1 4288   8.419   1.940   2.146  0.5591 -0.3781  0.1013
30770SOL    HW2 4289   8.465   1.837   2.247 -0.2238 -0.7774  0.0577
30771SOL     OW 4290   8.287   6.245   6.219  0.1707 -0.8262 -0.7090
30771SOL    HW1 4291   8.376   6.281   6.222  0.2338 -1.0425  0.5604
30771SOL    HW2 4292   8.256   6.250   6.309 -0.6207 -1.9705 -0.8983
30772SOL     OW 4293   1.942   9.879   1.377  0.2904 -0.0293  0.2742
30772SOL    HW1 4294   2.034   9.902   1.366  0.1370  0.7316  0.5099
30772SOL    HW2 4295   1.923   9.819   1.305 -0.0329  2.8564 -2.2628
30773SOL     OW 4296   8.510  10.127   8.394 -0.1732 -0.0735 -0.0422
30773SOL    HW1 4297   8.587  10.152   8.446 -0.6966  0.4962  0.4795
30773SOL    HW2 4298   8.454  10.080   8.456 -0.7155  0.4383 -0.1428
30774SOL     OW 4299   0.525   6.112   4.015  0.0161  0.5862 -0.4162
30774SOL    HW1 4300   0.578   6.064   4.079  1.6958  0.9902 -1.4273
30774SOL    HW2 4301   0.498   6.047   3.951 -0.7256  0.3846  0.0858
30775SOL     OW 4302   6.521   3.149   8.191  0.2261 -0.6736 -0.2874
30775SOL    HW1 4303   6.457   3.125   8.124  0.3599  1.8793 -1.4582
30775SOL    HW2 4304   6.470   3.198   8.255  0.4634 -1.3880  0.4591
30776SOL     OW 4305   0.810   9.512   8.287  0.1451  0.2167  0.2998
30776SOL    HW1 4306   0.905   9.511   8.272 -0.0353  0.6322 -1.0385
30776SOL    HW2 4307   0.797   9.581   8.352  0.8437 -0.5651  1.3112
30777SOL     OW 4308   7.244   9.869   2.639 -0.3523  0.4824  0.7612
30777SOL    HW1 4309   7.159   9.860   2.683  0.3503 -0.3881  2.0015
30777SOL    HW2 4310   7.282   9.782   2.643 -0.1274  0.4339 -1.3992
30778SOL     OW 4311   0.458   5.560   4.532 -0.2493  0.2738 -0.4620
30778SOL    HW1 4312   0.397   5.487   4.542  1.5192 -1.0526  1.3618
30778SOL    HW2 4313   0.408   5.636   4.560 -2.3038 -0.0163 -2.8862
30779SOL     OW 4314   2.626   1.891   2.243  0.0085 -0.0597 -0.1200
30779SOL    HW1 4315   2.683   1.954   2.287 -0.1646 -0.6344  0.9536
30779SOL    HW2 4316   2.566   1.945   2.192  0.5023  0.6047 -0.0101
30780SOL     OW 4317   1.005   4.899   0.393  0.3976  0.0179  0.7779
30780SOL    HW1 4318   0.995   4.942   0.308  1.3272 -1.8498 -0.3521
30780SOL    HW2 4319   1.099   4.886   0.402  0.1704 -1.6313  1.1026
30781SOL     OW 4320   2.726   1.679   1.456  0.1889 -0.1104  0.9214
30781SOL    HW1 4321   2.641   1.647   1.488 -0.4301 -0.3723 -0.8982
30781SOL    HW2 4322   2.788   1.611   1.484 -0.2946 -0.2615  1.6647
30782SOL     OW 4323  10.287   4.403  10.092  0.2910 -0.3403  0.6453
30782SOL    HW1 4324  10.326   4.371  10.011 -0.8567  2.6690 -1.2495
30782SOL    HW2 4325  10.335   4.482  10.113 -1.1010  0.3374  1.4298
30783SOL     OW 4326   4.313   2.681   8.828  1.1526 -0.1513  0.0521
30783SOL    HW1 4327   4.264   2.680   8.910 -0.8198  1.1513 -1.0344
30783SOL    HW2 4328   4.395   2.727   8.850  0.1178  1.3119  1.0399
30784SOL     OW 4329   5.620   4.922   6.489  0.2629 -0.0797 -0.3214
30784SOL    HW1 4330   5.641   4.918   6.582  0.5594  0.0840 -0.3812
30784SOL    HW2 4331   5.705   4.921   6.445  0.1583  0.6442 -0.5618
30785SOL     OW 4332   0.715   0.113   1.028 -0.0192 -0.0737  0.1048
30785SOL    HW1 4333   0.681   0.124   1.117 -0.9618  0.8064 -0.3418
30785SOL    HW2 4334   0.661   0.171   0.975  2.8267  2.2948 -0.4983
30786SOL     OW 4335   2.669   7.183   9.717  0.2353  0.1067  0.3146
30786SOL    HW1 4336   2.610   7.124   9.671  1.5362 -1.0534  0.0552
30786SOL    HW2 4337   2.636   7.271   9.698  0.3411 -0.3546 -2.2978
30787SOL     OW 4338   2.297   1.183   1.302 -0.0165  0.0636 -0.3395
30787SOL    HW1 4339   2.257   1.110   1.256 -2.2876  0.4343  0.9136
30787SOL    HW2 4340   2.325   1.243   1.232  1.2125 -1.5992 -1.3473
30788SOL     OW 4341   3.396   8.548   0.631 -0.3820  0.2845  0.9637
30788SOL    HW1 4342   3.328   8.487   0.603 -0.4405  0.6651  0.2582
30788SOL    HW2 4343   3.381   8.627   0.580  0.9101  0.1967  0.4059
30789SOL     OW 4344   1.769   3.780   5.556 -0.6935  0.1313 -0.1504
30789SOL    HW1 4345   1.676   3.762   5.565 -1.0099  1.5795 -0.2689
30789SOL    HW2 4346   1.796   3.811   5.643 -1.2119  3.2913 -0.9996
30790SOL     OW 4347   9.606   6.566   5.718  0.5493  0.2746  0.1641
30790SOL    HW1 4348   9.537   6.536   5.778  2.4058 -2.4369  1.1586
30790SOL    HW2 4349   9.609   6.499   5.650 -0.7518  2.7397 -2.4966
30791SOL     OW 4350   6.894   7.997   8.224  0.6509  0.0971  0.0787
30791SOL    HW1 4351   6.807   8.037   8.217  0.0119 -0.9855  1.3248
30791SOL    HW2 4352   6.878   7.914   8.269  2.3909  0.0670  0.7135
30792SOL     OW 4353   8.329   7.294   0.620  0.0064 -0.1891  0.7295
30792SOL    HW1 4354   8.349   7.209   0.580 -1.4167 -0.2292  0.0279
30792SOL    HW2 4355   8.414   7.338   0.627  0.5291 -0.9120 -0.6554
30793SOL     OW 4356   3.058   8.699   5.721 -0.7807 -0.8359 -0.2108
30793SOL    HW1 4357   3.002   8.705   5.799  0.8901 -1.2913  1.0787
30793SOL    HW2 4358   3.126   8.764   5.736 -0.2214 -1.1937 -1.1290
30794SOL     OW 4359   5.560   7.596   5.005 -0.4664 -0.1933 -0.4594
30794SOL    HW1 4360   5.537   7.643   5.085 -0.9819 -0.4189 -0.4777
30794SOL    HW2 4361   5.579   7.507   5.034  0.0384 -0.1012 -0.4943
30795SOL     OW 4362   7.910   0.165   0.374  0.6030  0.0313  0.3865
30795SOL    HW1 4363   7.901   0.219   0.452 -2.5630 -0.5041  0.5223
30795SOL    HW2 4364   7.843   0.198   0.314  1.1240 -1.3290 -1.0089
30796SOL     OW 4365   9.289   5.955   7.558  0.3308  0.0573  0.3957
30796SOL    HW1 4366   9.303   5.906   7.478  2.3642 -0.4848  1.0091
30796SOL    HW2 4367   9.242   5.894   7.616  0.5431 -0.2314  0.2660
30797SOL     OW 4368   7.674   9.872   8.724 -0.1104  0.0143 -0.3866
30797SOL    HW1 4369   7.699   9.959   8.692  0.0521 -0.0343 -0.3936
30797SOL    HW2 4370   7.713   9.811   8.661 -0.1333 -0.0680 -0.3212
30798SOL     OW 4371   8.205   0.335   8.797  0.1142 -0.1551  0.1622
30798SOL    HW1 4372   8.190   0.251   8.753  0.7078 -0.9783  1.4594
30798SOL    HW2 4373   8.301   0.340   8.807  0.0762  0.6258  0.2043
30799SOL     OW 4374   1.047   8.036   5.118  0.9667  0.0033  0.0041
30799SOL    HW1 4375   1.107   8.013   5.189  2.2089  0.8654 -0.7296
30799SOL    HW2 4376   1.093   8.106   5.070 -0.7365  0.8555 -0.4421
30800SOL     OW 4377   7.494   9.747   8.892 -0.1718  0.1546 -0.1299
30800SOL    HW1 4378   7.521   9.744   8.984  0.7178  2.5083 -0.2637
30800SOL    HW2 4379   7.568   9.787   8.846 -0.2632 -1.6968 -2.0592
30801SOL     OW 4380   8.462   2.767  10.347  0.1289 -0.0247  0.0253
30801SOL    HW1 4381   8.527   2.698  10.366 -1.1407 -1.1502  0.4770
30801SOL    HW2 4382   8.420   2.738  10.266 -0.4151  0.2059  0.2209
30802SOL     OW 4383   8.219   1.918   6.826  0.9195 -0.0948  0.8667
30802SOL    HW1 4384   8.181   1.987   6.881  0.1223 -1.4784  2.1320
30802SOL    HW2 4385   8.170   1.840   6.849  2.7318 -1.3921  0.5142
30803SOL     OW 4386   3.327   6.960   5.733  0.3926 -0.2573  0.2430
30803SOL    HW1 4387   3.249   6.974   5.787  0.1332  0.4635 -0.3045
30803SOL    HW2 4388   3.387   7.031   5.758 -0.1120  0.6829 -1.0774
30804SOL     OW 4389   9.953   2.332   8.812  0.4478  0.5517  0.2058
30804SOL    HW1 4390   9.923   2.343   8.722 -0.7045  2.1209  0.7293
30804SOL    HW2 4391   9.890   2.271   8.851 -0.4739  1.7020  0.5598
30805SOL     OW 4392   7.531   3.690   8.178 -0.1681 -0.4266 -0.0357
30805SOL    HW1 4393   7.565   3.646   8.256  0.9961 -0.5383 -0.5827
30805SOL    HW2 4394   7.544   3.783   8.196  0.4545 -0.4685 -0.2416
30806SOL     OW 4395   0.555   7.399   9.681 -0.2908  0.0325  0.2505
30806SOL    HW1 4396   0.612   7.440   9.617  0.9393  0.6334  1.6585
30806SOL    HW2 4397   0.468   7.430   9.659  0.1202  0.3677 -1.0026
30807SOL     OW 4398   3.158   5.017   8.270 -0.1634 -0.2335  0.0660
30807SOL    HW1 4399   3.131   5.100   8.310 -0.8756 -0.6419  0.4453
30807SOL    HW2 4400   3.195   5.043   8.185 -0.6326  0.4529  0.0560
30808SOL     OW 4401   2.780  10.255   9.940 -0.5006 -0.2316 -0.2317
30808SOL    HW1 4402   2.754  10.163   9.941 -1.4125  0.0183  0.5115
30808SOL    HW2 4403   2.724  10.295   9.874  1.2234 -0.5449 -1.9657
30809SOL     OW 4404   8.114   8.917   7.195 -0.6329  0.4146  0.2472
30809SOL    HW1 4405   8.159   8.922   7.110  1.1907 -0.7472  1.0730
30809SOL    HW2 4406   8.069   9.001   7.204 -0.2962  0.8334 -1.5454
30810SOL     OW 4407   1.632   2.097   7.130 -0.0392  0.6456 -0.3807
30810SOL    HW1 4408   1.587   2.035   7.188  0.4173  0.7776  0.1165
30810SOL    HW2 4409   1.678   2.156   7.189  1.6765 -0.1393 -0.8803
30811SOL     OW 4410   1.423   2.617   1.694  0.2621  0.4053  0.2157
30811SOL    HW1 4411   1.413   2.687   1.758  0.7072  1.1773 -0.5339
30811SOL    HW2 4412   1.336   2.579   1.686  0.2250  0.2132  1.3563
30812SOL     OW 4413   8.696   0.339   4.098 -0.0758  0.0079 -0.0948
30812SOL    HW1 4414   8.644   0.352   4.178 -0.8831  0.8910 -0.7372
30812SOL    HW2 4415   8.631   0.334   4.028  0.6805  0.7385 -0.8755
30813SOL     OW 4416   0.961   9.761   9.078  0.1972 -0.3681 -0.1474
30813SOL    HW1 4417   0.886   9.775   9.135 -1.2090  1.0800 -2.1845
30813SOL    HW2 4418   0.984   9.849   9.047  1.3883 -1.0124 -1.1829
30814SOL     OW 4419   3.566   2.949   3.235 -0.0651 -0.2756  0.0279
30814SOL    HW1 4420   3.525   3.018   3.183 -0.2699 -0.2073  0.2750
30814SOL    HW2 4421   3.501   2.879   3.237 -0.5564  0.1915  1.1840
30815SOL     OW 4422   3.913   7.440   7.090  0.6094  0.3291  0.3078
30815SOL    HW1 4423   3.930   7.421   7.182  0.5585  1.3343  0.5375
30815SOL    HW2 4424   3.889   7.355   7.052 -0.3123  0.0622  1.4284
30816SOL     OW 4425   9.969   5.024   4.920  0.3214 -0.0061 -0.4130
30816SOL    HW1 4426   9.996   4.937   4.947  0.1857  0.8117  2.6844
30816SOL    HW2 4427  10.050   5.066   4.891  1.1255  0.0028  1.6850
30817SOL     OW 4428   1.802   7.192   0.700  0.3217 -0.5780  0.6292
30817SOL    HW1 4429   1.766   7.152   0.621  1.2320 -2.9134  1.3265
30817SOL    HW2 4430   1.725   7.218   0.751 -0.3039  1.5741 -1.2026
30818SOL     OW 4431   9.046   8.043   9.057  0.0091 -0.3207  0.1107
30818SOL    HW1 4432   9.076   8.039   9.147 -0.3142  1.4324  0.3262
30818SOL    HW2 4433   9.074   8.128   9.025 -0.3486 -0.6831 -1.2853
30819SOL     OW 4434   1.418   0.518   9.545  0.0208 -0.2100 -0.1924
30819SOL    HW1 4435   1.437   0.610   9.564  1.0493 -0.2439 -0.9511
30819SOL    HW2 4436   1.382   0.484   9.627  1.8074  0.2934  0.8558
30820SOL     OW 4437   2.735   4.148   1.786  0.0245 -0.2162  0.0695
30820SOL    HW1 4438   2.749   4.066   1.739 -0.9027 -0.2520 -0.1790
30820SOL    HW2 4439   2.642   4.167   1.774  0.0908  0.5562  0.6403
30821SOL     OW 4440   1.590   9.306   4.333  0.0567  0.9652  0.0514
30821SOL    HW1 4441   1.539   9.233   4.367 -1.6477  1.4797 -1.2430
30821SOL    HW2 4442   1.651   9.328   4.404  1.2879 -2.2238  0.1573
30822SOL     OW 4443   4.698   0.752   0.680 -0.1327  0.1604 -0.3565
30822SOL    HW1 4444   4.669   0.673   0.726 -1.5688  1.2338  0.6608
30822SOL    HW2 4445   4.625   0.774   0.622  0.2375  0.7709 -0.6029
30823SOL     OW 4446   7.009   5.079   7.714 -0.2905  0.7002 -0.7133
30823SOL    HW1 4447   6.974   5.042   7.795 -0.2128 -1.1831 -1.4726
30823SOL    HW2 4448   7.096   5.110   7.737  0.5462 -1.6061 -0.4227
30824SOL     OW 4449   7.405   4.324   2.874 -0.1008  0.7798 -0.2863
30824SOL    HW1 4450   7.311   4.330   2.857 -0.4659 -0.8265  0.9880
30824SOL    HW2 4451   7.433   4.416   2.881 -2.3041  1.3556  2.9397
30825SOL     OW 4452   7.788   7.249   0.641 -0.1641 -0.6104 -0.3263
30825SOL    HW1 4453   7.825   7.295   0.566 -0.6689  1.8179  0.7938
30825SOL    HW2 4454   7.698   7.282   0.647 -0.0601 -0.5360  1.4599
30826SOL     OW 4455   4.853   4.408   3.187 -0.3214  0.3898 -0.3843
30826SOL    HW1 4456   4.903   4.461   3.124  1.4838 -0.7464  0.0268
30826SOL    HW2 4457   4.910   4.402   3.264 -1.9569  0.6771  0.9001
30827SOL     OW 4458  10.262   7.065   5.238 -0.1983 -0.0479  0.0270
30827SOL    HW1 4459  10.303   6.996   5.185 -1.7598 -1.8278  0.9833
30827SOL    HW2 4460  10.186   7.092   5.186  0.5277  1.1442 -0.4388
30828SOL     OW 4461   0.936   4.061  10.223  0.2096 -0.0795 -0.2397
30828SOL    HW1 4462   0.976   4.069  10.309 -1.0824  1.3100  0.2725
30828SOL    HW2 4463   0.849   4.025  10.239  0.5510 -1.4128 -1.1652
30829SOL     OW 4464   3.937   1.231   2.714 -0.0308 -0.0063  0.4306
30829SOL    HW1 4465   3.955   1.140   2.692 -0.1052 -0.3272  1.6444
30829SOL    HW2 4466   3.893   1.228   2.799 -0.3955  1.1404  0.3126
30830SOL     OW 4467   3.033   1.834   8.261 -0.2959 -0.2075  0.1316
30830SOL    HW1 4468   2.943   1.818   8.287  0.0169 -1.5392  0.4591
30830SOL    HW2 4469   3.079   1.752   8.282  1.3879  1.0604  1.7478
30831SOL     OW 4470   9.507   9.160   6.481  0.5104  0.3228 -0.9268
30831SOL    HW1 4471   9.501   9.078   6.431 -1.3742  0.1640 -0.5366
30831SOL    HW2 4472   9.430   9.210   6.453 -0.4652  0.3590  1.5474
30832SOL     OW 4473   2.814   9.720   1.227 -0.4880 -0.0129  0.3456
30832SOL    HW1 4474   2.835   9.644   1.281  0.7647  0.5162  0.6442
30832SOL    HW2 4475   2.858   9.793   1.270 -0.6650  0.6742 -0.6035
30833SOL     OW 4476   0.836  10.317   6.467 -0.2806 -0.0340 -0.5139
30833SOL    HW1 4477   0.776  10.305   6.540 -0.1638  1.6598 -0.0963
30833SOL    HW2 4478   0.897  10.386   6.496  2.5095 -2.3012 -0.5579
30834SOL     OW 4479   5.286   9.099   3.007  0.0369 -0.5886  0.2001
30834SOL    HW1 4480   5.256   9.099   3.098 -1.8616  1.0982 -0.3624
30834SOL    HW2 4481   5.348   9.172   3.003 -0.0608 -0.5144  0.0748
30835SOL     OW 4482   0.612   1.314   5.668 -0.3040 -0.2159 -0.3686
30835SOL    HW1 4483   0.667   1.393   5.664  1.4267 -1.3341  0.1213
30835SOL    HW2 4484   0.531   1.339   5.625  1.1109  1.1228 -2.4776
30836SOL     OW 4485   8.985   7.216   7.360 -0.5341  0.0645 -0.5904
30836SOL    HW1 4486   9.047   7.249   7.294  0.3473  0.8926  0.5933
30836SOL    HW2 4487   9.020   7.130   7.385 -0.8594 -0.2425 -1.1837
30837SOL     OW 4488   2.958   5.847   4.168  0.4618 -0.3927  0.0306
30837SOL    HW1 4489   3.050   5.868   4.152  1.0393 -2.7850 -0.1678
30837SOL    HW2 4490   2.921   5.832   4.081  0.7006 -2.3715  0.2290
30838SOL     OW 4491   4.171   0.264   8.428  0.3008  0.6010  0.1822
30838SOL    HW1 4492   4.218   0.280   8.509 -0.6092 -1.1488  1.1146
30838SOL    HW2 4493   4.147   0.171   8.432 -0.8457  0.7791 -1.5073
30839SOL     OW 4494   8.574   5.433   8.691  0.1459  0.1961  0.9376
30839SOL    HW1 4495   8.558   5.490   8.766  0.3518  1.9113 -0.2645
30839SOL    HW2 4496   8.648   5.474   8.645 -0.1103 -0.6823 -0.3096
30840SOL     OW 4497   6.277   4.206   0.305 -0.0115  0.2829  0.7953
30840SOL    HW1 4498   6.369   4.192   0.282 -0.3292  1.3539 -1.3434
30840SOL    HW2 4499   6.233   4.127   0.274 -0.2395  1.1606 -1.3003
30841SOL     OW 4500   2.775   1.352  10.007  0.5024 -0.0319 -0.1216
30841SOL    HW1 4501   2.809   1.342  10.096  2.4257  0.2445 -0.7863
30841SOL    HW2 4502   2.734   1.267   9.987  3.0807 -1.3550 -0.1693
30842SOL     OW 4503   0.442   0.156   6.443 -0.2466  0.2027 -0.2505
30842SOL    HW1 4504   0.473   0.245   6.456  0.2519  0.2050 -1.3007
30842SOL    HW2 4505   0.449   0.115   6.529 -1.4740  1.4615  0.4710
30843SOL     OW 4506   7.250   8.276   9.496  0.1173  0.3222 -0.0866
30843SOL    HW1 4507   7.283   8.186   9.498  0.9612  0.5937 -1.0212
30843SOL    HW2 4508   7.328   8.331   9.502 -0.4705  1.0240  1.6699
30844SOL     OW 4509   8.207   8.047   6.024  0.3799 -0.6677  0.0156
30844SOL    HW1 4510   8.270   8.099   6.075  1.3210 -0.7575 -0.9997
30844SOL    HW2 4511   8.122   8.087   6.043  0.9454  0.5616  0.1119
30845SOL     OW 4512   6.876   7.922   8.785  0.5948  0.3949 -0.7035
30845SOL    HW1 4513   6.901   7.833   8.810  0.5693  0.5819  0.0225
30845SOL    HW2 4514   6.936   7.945   8.715  1.1423  0.1080 -0.3345
30846SOL     OW 4515   9.511   8.790   1.507 -0.0479 -0.0310 -0.6159
30846SOL    HW1 4516   9.490   8.745   1.589 -0.3451  0.1309 -0.6029
30846SOL    HW2 4517   9.514   8.882   1.531  1.0136 -0.0723 -0.5439
30847SOL     OW 4518   1.511   4.275   9.343 -0.0714  0.2394 -0.6614
30847SOL    HW1 4519   1.601   4.305   9.357 -0.5098  0.6989  1.4243
30847SOL    HW2 4520   1.489   4.227   9.423 -2.5470  2.3171  0.0398
30848SOL     OW 4521   2.287   0.049   1.060 -0.1282  0.4772 -0.0155
30848SOL    HW1 4522   2.306  -0.021   0.998  0.6923  1.1514 -0.5487
30848SOL    HW2 4523   2.362   0.049   1.120 -0.5233  0.3609  0.4832
30849SOL     OW 4524   2.485   6.984   9.029  0.7125  0.0352 -0.3389
30849SOL    HW1 4525   2.443   6.899   9.013 -0.7000  0.7377 -0.5052
30849SOL    HW2 4526   2.414   7.041   9.057  1.2869  1.6720 -2.0369
30850SOL     OW 4527   2.502   1.837   2.513 -0.0725  0.1139 -0.5499
30850SOL    HW1 4528   2.502   1.846   2.417  1.4062 -0.4516 -0.6301
30850SOL    HW2 4529   2.541   1.918   2.544  1.0699 -0.4172 -0.5448
30851SOL     OW 4530   6.231   5.117   7.671 -0.3046  0.5542  0.6376
30851SOL    HW1 4531   6.286   5.147   7.744  0.4076  0.0524  0.3205
30851SOL    HW2 4532   6.177   5.049   7.710 -0.6310  0.9738  0.9280
30852SOL     OW 4533   0.345   4.752   3.386  0.2253 -0.0735 -0.0924
30852SOL    HW1 4534   0.270   4.738   3.327  1.1975 -3.1371 -0.7798
30852SOL    HW2 4535   0.419   4.768   3.328  0.8373 -1.2430  0.3130
30853SOL     OW 4536   1.282   6.935   1.643 -0.3077  0.2023  0.3446
30853SOL    HW1 4537   1.252   7.014   1.598  0.1404 -0.4007 -1.0676
30853SOL    HW2 4538   1.363   6.961   1.686  0.7742  0.1223 -1.5456
30854SOL     OW 4539   8.653   0.241   4.817  0.0258  0.2940  0.0487
30854SOL    HW1 4540   8.696   0.318   4.779 -0.4956  0.6975  0.2614
30854SOL    HW2 4541   8.680   0.168   4.761  0.7224  0.5950 -0.0097
30855SOL     OW 4542   9.006   5.917   6.028 -0.8370  0.5683  0.2557
30855SOL    HW1 4543   9.080   5.929   6.087  0.9113 -1.3794 -1.3844
30855SOL    HW2 4544   8.932   5.899   6.086  0.0376  2.0244  1.9179
30856SOL     OW 4545   2.819   9.784   9.572 -0.6376 -0.5855  0.1054
30856SOL    HW1 4546   2.741   9.747   9.531  0.5623 -1.4478 -1.5837
30856SOL    HW2 4547   2.860   9.709   9.617 -0.5020 -0.2732  0.5067
30857SOL     OW 4548   1.253   9.044   4.845  0.4032  0.2668  0.3455
30857SOL    HW1 4549   1.228   9.093   4.923 -1.3784 -1.4202  0.9144
30857SOL    HW2 4550   1.218   9.095   4.772  0.5468  0.9575  0.7486
30858SOL     OW 4551   3.699   7.720   7.218 -0.1937 -0.0620 -0.5059
30858SOL    HW1 4552   3.684   7.792   7.156  0.5187 -0.1536 -0.7923
30858SOL    HW2 4553   3.616   7.673   7.221 -0.7238  0.8683 -0.1912
30859SOL     OW 4554   3.677   5.676   0.942 -0.1906 -0.4668 -0.0549
30859SOL    HW1 4555   3.601   5.634   0.983  0.3188 -0.8332  0.5412
30859SOL    HW2 4556   3.640   5.742   0.885 -0.9380  0.0386  0.9801
30860SOL     OW 4557   0.961   6.006   4.799 -0.6766  0.1645 -0.6169
30860SOL    HW1 4558   0.940   5.974   4.712 -0.2621  0.8931 -0.9949
30860SOL    HW2 4559   0.882   6.053   4.827 -0.8997 -0.2769 -0.4888
30861SOL     OW 4560   9.226   9.154   9.397  0.0107  0.4360 -0.3741
30861SOL    HW1 4561   9.304   9.194   9.436  0.3085 -1.7942  1.5105
30861SOL    HW2 4562   9.249   9.142   9.304  1.4642  0.8311 -0.0854
30862SOL     OW 4563   5.053   0.405   6.321 -0.2028  0.0401  0.8412
30862SOL    HW1 4564   5.002   0.455   6.257 -0.5828 -0.7990  0.4761
30862SOL    HW2 4565   5.065   0.319   6.280  1.6236  0.2368  0.8522
30863SOL     OW 4566  10.152   2.227   5.353  0.4109  0.5244 -0.4390
30863SOL    HW1 4567  10.121   2.256   5.267 -0.5461  0.9766  0.0406
30863SOL    HW2 4568  10.246   2.245   5.352  0.0687  2.5873 -0.6274
30864SOL     OW 4569   1.054   9.677   7.266 -0.7459  0.5110 -0.2815
30864SOL    HW1 4570   1.061   9.625   7.186 -2.4167  0.5601 -0.4899
30864SOL    HW2 4571   0.991   9.630   7.320  0.1060  0.6624  0.8809
30865SOL     OW 4572   6.703   4.417   3.497 -0.0960 -0.7151  0.7651
30865SOL    HW1 4573   6.787   4.390   3.461  0.2693  0.6312  0.5616
30865SOL    HW2 4574   6.713   4.409   3.592  0.3623 -0.3225  0.7545
30866SOL     OW 4575   8.083   8.930   6.231 -0.3463 -0.1372  0.0122
30866SOL    HW1 4576   8.177   8.947   6.235  0.1613 -1.3527 -3.4148
30866SOL    HW2 4577   8.065   8.872   6.305  1.5912  0.0523  0.6772
30867SOL     OW 4578   4.978   5.179   4.134 -0.4413  0.0247  0.1822
30867SOL    HW1 4579   5.073   5.165   4.138 -0.5173 -0.9127 -0.7919
30867SOL    HW2 4580   4.944   5.137   4.213 -0.1427 -0.6008 -0.0172
30868SOL     OW 4581   5.717   5.664   8.855  0.2546  0.6174  0.7841
30868SOL    HW1 4582   5.692   5.741   8.804  0.7443 -0.0737 -0.5344
30868SOL    HW2 4583   5.675   5.677   8.940  1.1554  2.8421  0.9693
30869SOL     OW 4584   1.944   3.038  10.263  0.6068 -0.2160 -0.0470
30869SOL    HW1 4585   1.884   3.101  10.222  2.1860  0.8919 -0.7873
30869SOL    HW2 4586   1.895   2.956  10.265  0.1051 -0.1764 -3.5052
30870SOL     OW 4587   4.222   3.643   3.728  0.4953 -0.5217 -0.3110
30870SOL    HW1 4588   4.231   3.614   3.638  0.4213  0.8142 -0.7645
30870SOL    HW2 4589   4.269   3.726   3.732 -0.9091  0.2749  0.4595
30871SOL     OW 4590   1.322   8.920   2.883 -0.5828  0.5035 -0.5757
30871SOL    HW1 4591   1.348   8.996   2.830  1.7509 -0.1599 -0.4941
30871SOL    HW2 4592   1.248   8.951   2.934 -0.2667  2.4564 -1.2062
30872SOL     OW 4593   4.298   7.045   4.925  0.0032 -0.0111  0.3625
30872SOL    HW1 4594   4.280   7.007   5.011  0.6045 -0.4619  0.2975
30872SOL    HW2 4595   4.264   6.981   4.863 -1.3241  0.7632  0.2491
30873SOL     OW 4596   3.658   7.699   5.341  0.3377 -0.4144  0.6635
30873SOL    HW1 4597   3.578   7.738   5.375  0.3863 -1.0013  1.4817
30873SOL    HW2 4598   3.706   7.773   5.302 -1.5644 -0.3938 -1.8549
30874SOL     OW 4599   7.126   2.384  10.004 -0.1647 -0.1743 -0.4957
30874SOL    HW1 4600   7.173   2.337  10.072 -0.0269  1.6656  0.7482
30874SOL    HW2 4601   7.074   2.316   9.960 -0.1687 -1.4417  1.3519
30875SOL     OW 4602   3.302   7.461   0.796 -0.2953  0.8431 -0.0462
30875SOL    HW1 4603   3.211   7.480   0.820  0.2796  1.7326  1.6485
30875SOL    HW2 4604   3.297   7.383   0.742 -1.9911  0.1647  0.9994
30876SOL     OW 4605   1.723   1.458   9.685 -0.5085 -0.4362  0.8620
30876SOL    HW1 4606   1.758   1.492   9.767 -1.3747  0.6613  0.8098
30876SOL    HW2 4607   1.783   1.492   9.618  0.9867 -2.4499  1.0956
30877SOL     OW 4608   2.662   3.449   4.594 -0.1067  0.1705 -0.1306
30877SOL    HW1 4609   2.643   3.361   4.625 -1.4903  1.2391  2.3066
30877SOL    HW2 4610   2.592   3.468   4.532 -0.7257  0.1105  0.5414
30878SOL     OW 4611   9.835   4.349   4.316  0.0481 -0.4762  0.4989
30878SOL    HW1 4612   9.836   4.419   4.250 -0.8542  0.4047  1.3862
30878SOL    HW2 4613   9.923   4.312   4.313  0.9172  1.4219  0.7562
30879SOL     OW 4614   0.054   4.161   4.940  0.5854  0.0769  0.0321
30879SOL    HW1 4615  -0.019   4.199   4.989  0.3177  0.4670 -0.6456
30879SOL    HW2 4616   0.012   4.118   4.865  0.9809 -0.5458  0.1606
30880SOL     OW 4617   4.414   0.065   5.443  0.4143 -0.7834 -0.4079
30880SOL    HW1 4618   4.346   0.015   5.488  1.5140 -0.0727  2.2660
30880SOL    HW2 4619   4.487   0.004   5.435  0.1945 -0.9288 -1.3375
30881SOL     OW 4620   6.859   0.268   4.994  0.4783 -0.0471 -0.0887
30881SOL    HW1 4621   6.774   0.313   4.996 -0.0919 -1.0283  2.6982
30881SOL    HW2 4622   6.850   0.203   4.924 -0.7567  0.4217 -0.3985
30882SOL     OW 4623   6.638   5.595   9.251  1.0161  0.3847 -0.7463
30882SOL    HW1 4624   6.722   5.642   9.259  1.3129  0.1718 -2.2487
30882SOL    HW2 4625   6.578   5.643   9.308  2.1667  0.5130  0.4024
30883SOL     OW 4626   2.806   2.283   3.484 -0.0455  0.2964 -0.4576
30883SOL    HW1 4627   2.712   2.280   3.463 -0.1700 -2.3147  0.0329
30883SOL    HW2 4628   2.808   2.307   3.577 -0.3262 -0.6820 -0.1860
30884SOL     OW 4629   3.321   5.829   9.101  0.0337  0.2145  0.1096
30884SOL    HW1 4630   3.256   5.846   9.033  0.5694  0.6101 -0.3063
30884SOL    HW2 4631   3.405   5.846   9.059  0.4804 -1.3546  0.3359
30885SOL     OW 4632   8.557   7.389   8.304  0.3540  0.0156 -0.1986
30885SOL    HW1 4633   8.570   7.358   8.394 -0.7568  0.1393  0.0142
30885SOL    HW2 4634   8.465   7.370   8.284  0.5417  0.1254 -1.2583
30886SOL     OW 4635   7.824   1.785   9.437  0.0898 -0.0949 -0.2421
30886SOL    HW1 4636   7.873   1.819   9.361  2.1043  1.9651  1.8117
30886SOL    HW2 4637   7.754   1.849   9.451 -0.7309 -0.8613 -0.7426
30887SOL     OW 4638   7.414  10.219   9.749  0.2997 -0.1861 -0.2362
30887SOL    HW1 4639   7.375  10.298   9.714  2.2791  0.3278 -1.4419
30887SOL    HW2 4640   7.506  10.241   9.762  0.7896 -2.1142 -0.0534
30888SOL     OW 4641  10.017   4.437   9.950 -0.6149 -0.3383  0.0375
30888SOL    HW1 4642  10.104   4.445   9.988 -1.2064  0.0460  1.3484
30888SOL    HW2 4643  10.028   4.375   9.877  0.7431 -0.2734  0.1685
30889SOL     OW 4644   0.652   5.525   7.260 -0.4326  0.0217  0.3531
30889SOL    HW1 4645   0.649   5.549   7.352  0.4382 -0.9994  0.6667
30889SOL    HW2 4646   0.733   5.565   7.228  0.2354 -1.1707  0.5068
30890SOL     OW 4647   1.017   7.290   1.040  0.1432  0.0528  0.4557
30890SOL    HW1 4648   1.007   7.381   1.068  1.5672  0.0909  0.9249
30890SOL    HW2 4649   0.960   7.282   0.964  0.1375  1.3909  0.2935
30891SOL     OW 4650   5.632   2.088   9.240  0.7321  0.0173  0.0585
30891SOL    HW1 4651   5.706   2.144   9.219  0.8665  0.0073  0.4996
30891SOL    HW2 4652   5.672   2.003   9.260  0.6311  0.1155  0.6756
30892SOL     OW 4653   5.431   3.733   5.406 -0.0579 -0.1258 -0.0586
30892SOL    HW1 4654   5.524   3.732   5.386 -0.4964  1.7470 -2.7383
30892SOL    HW2 4655   5.397   3.808   5.358 -2.9401 -0.5948  1.0303
30893SOL     OW 4656   8.589   2.692   7.176 -0.2567 -0.0873 -0.2766
30893SOL    HW1 4657   8.500   2.680   7.142 -0.1035  1.8313 -1.5170
30893SOL    HW2 4658   8.628   2.759   7.119  1.5070  0.1650  1.1189
30894SOL     OW 4659   1.991   9.205  10.228  0.8636 -0.3597 -0.7023
30894SOL    HW1 4660   2.073   9.254  10.222  0.4835  0.1269 -2.6443
30894SOL    HW2 4661   2.010   9.122  10.184  0.6469 -0.7354 -0.0924
30895SOL     OW 4662   6.415   6.739   8.116 -0.2933  0.0672 -0.2231
30895SOL    HW1 4663   6.388   6.675   8.050  0.3503  0.5892 -1.0055
30895SOL    HW2 4664   6.332   6.771   8.153 -0.6425 -0.6395 -0.3712
30896SOL     OW 4665   4.659   1.511   5.551 -0.0189  0.0289 -0.5350
30896SOL    HW1 4666   4.668   1.429   5.599  1.5635  0.2945 -0.3194
30896SOL    HW2 4667   4.643   1.485   5.460  1.4586 -0.5479 -0.6472
30897SOL     OW 4668   9.916   4.331   6.020 -0.0262  0.3477  0.1068
30897SOL    HW1 4669   9.980   4.359   6.085 -0.4832 -0.2546  0.8322
30897SOL    HW2 4670   9.838   4.383   6.039 -1.1195 -1.7773  1.9160
30898SOL     OW 4671   3.861   1.075   0.234 -0.2313 -0.6195  0.7834
30898SOL    HW1 4672   3.946   1.097   0.196 -0.7978 -2.0065 -1.4827
30898SOL    HW2 4673   3.881   1.044   0.322  1.9420 -3.1643 -0.4848
30899SOL     OW 4674   4.148   2.504   8.028 -0.1537  0.4041 -0.0430
30899SOL    HW1 4675   4.177   2.516   7.938 -0.3337  1.1305 -0.0140
30899SOL    HW2 4676   4.056   2.476   8.020 -0.0817  0.1736 -0.0861
30900SOL     OW 4677   3.058   8.752   4.429 -0.1689 -0.2794  0.1734
30900SOL    HW1 4678   3.030   8.660   4.431  0.2872 -0.4516 -0.8989
30900SOL    HW2 4679   3.127   8.758   4.495  1.3010 -1.2359 -1.2131
30901SOL     OW 4680   6.449  10.383   2.314 -0.3219  0.1719  0.4367
30901SOL    HW1 4681   6.370  10.418   2.272  0.1171 -0.3973 -0.9254
30901SOL    HW2 4682   6.517  10.447   2.293  0.0348 -0.4288 -0.2667
30902SOL     OW 4683   6.125   2.614   0.464 -0.2401 -0.1144 -0.3966
30902SOL    HW1 4684   6.054   2.661   0.421  0.1439  0.3054 -0.5795
30902SOL    HW2 4685   6.081   2.545   0.514 -0.7713  0.1174 -0.5349
30903SOL     OW 4686   6.579   2.117   1.279 -0.1914  0.5958 -0.0457
30903SOL    HW1 4687   6.642   2.055   1.243 -0.5280 -1.3395  2.3998
30903SOL    HW2 4688   6.494   2.076   1.264 -0.4807  0.8028  0.9796
30904SOL     OW 4689   2.897   4.322   7.966  0.2218 -0.9169  0.0422
30904SOL    HW1 4690   2.925   4.338   8.056  1.4700  0.6966 -0.5925
30904SOL    HW2 4691   2.808   4.356   7.962  0.8967  0.9633  0.1685
30905SOL     OW 4692   1.722   7.522   8.062  0.2306 -0.0867  0.3267
30905SOL    HW1 4693   1.767   7.588   8.114  0.2543 -0.3945  0.6999
30905SOL    HW2 4694   1.757   7.439   8.093  0.1548 -0.2780 -0.0973
30906SOL     OW 4695   7.410   8.893   7.444 -0.2473 -0.0389 -0.0666
30906SOL    HW1 4696   7.342   8.832   7.418 -1.6247  1.3538  0.1562
30906SOL    HW2 4697   7.426   8.873   7.536 -0.9366  0.1457  0.0970
30907SOL     OW 4698  10.273   9.632   6.484  0.0279 -0.0384  0.4634
30907SOL    HW1 4699  10.214   9.694   6.442  1.2023 -0.0373 -1.3008
30907SOL    HW2 4700  10.300   9.674   6.566 -0.7007  0.9053  0.2223
30908SOL     OW 4701   9.241   2.019   0.748 -0.3627 -0.2036 -0.2862
30908SOL    HW1 4702   9.265   1.990   0.836 -0.2404 -0.9023 -0.5416
30908SOL    HW2 4703   9.216   2.111   0.759 -2.0063 -0.7452  0.7737
30909SOL     OW 4704   2.437   2.038   0.858 -0.1607 -0.4186  0.3417
30909SOL    HW1 4705   2.380   2.108   0.891 -2.0927 -0.9699 -1.6067
30909SOL    HW2 4706   2.513   2.084   0.823 -1.4247  0.8097 -0.9628
30910SOL     OW 4707   3.021   6.079   1.179 -0.0145 -0.1326  0.2111
30910SOL    HW1 4708   2.951   6.015   1.189 -0.1031  0.1252  1.2980
30910SOL    HW2 4709   3.094   6.029   1.142 -1.0789 -0.1859 -1.9922
30911SOL     OW 4710   9.034   8.550   4.664  0.1495 -0.8651 -0.3718
30911SOL    HW1 4711   9.071   8.462   4.672 -2.0292 -1.7609  0.8651
30911SOL    HW2 4712   9.075   8.600   4.734 -1.2129 -1.9601  1.2772
30912SOL     OW 4713  10.296   7.771  10.342 -0.3699  0.3318 -0.4950
30912SOL    HW1 4714  10.339   7.711  10.280  1.4393 -1.0494  1.9316
30912SOL    HW2 4715  10.348   7.851  10.336  1.7450 -0.8085  1.2861
30913SOL     OW 4716   6.424   2.352   8.809  0.8229 -0.0649  0.4468
30913SOL    HW1 4717   6.382   2.266   8.804  2.2046 -0.8719  1.8623
30913SOL    HW2 4718   6.404   2.394   8.725 -1.4637 -0.9985  0.4624
30914SOL     OW 4719   8.122   8.464   2.867 -0.2265  0.7340  0.6927
30914SOL    HW1 4720   8.088   8.382   2.831  2.2820 -0.0243 -0.1808
30914SOL    HW2 4721   8.099   8.530   2.802  0.6152  0.0997 -0.2779
30915SOL     OW 4722   7.874   8.157   0.422 -0.3576 -0.2953  0.4392
30915SOL    HW1 4723   7.893   8.237   0.374  1.2341 -1.7161 -1.4954
30915SOL    HW2 4724   7.783   8.138   0.402 -0.4793  0.5436  0.1505
30916SOL     OW 4725   0.566   8.363   4.209 -0.3009  0.1665 -0.0586
30916SOL    HW1 4726   0.582   8.296   4.143 -0.1136 -1.3807  1.4738
30916SOL    HW2 4727   0.649   8.410   4.215 -0.7473  1.2657 -1.8721
30917SOL     OW 4728  10.325   9.765   4.566 -0.0804 -0.5072  0.2841
30917SOL    HW1 4729  10.401   9.742   4.512 -0.3782 -2.5386  0.6756
30917SOL    HW2 4730  10.288   9.842   4.522  0.0985 -1.6569 -2.0464
30918SOL     OW 4731   7.863   8.500   5.717 -0.2272 -0.1532  1.0073
30918SOL    HW1 4732   7.885   8.466   5.630  1.3081 -0.0910  1.3437
30918SOL    HW2 4733   7.861   8.595   5.706  0.5168 -0.1124  1.1312
30919SOL     OW 4734   2.820   9.260   1.837  0.4770  0.5030 -0.3203
30919SOL    HW1 4735   2.863   9.212   1.907 -0.0286  1.8277  0.9731
30919SOL    HW2 4736   2.759   9.198   1.798 -0.3375  0.1163  1.4560
30920SOL     OW 4737   8.888   0.375   6.900 -0.0801 -0.2064  0.1590
30920SOL    HW1 4738   8.979   0.373   6.871  0.0157 -1.0677  0.4743
30920SOL    HW2 4739   8.889   0.329   6.985 -0.6234  0.7549  0.7065
30921SOL     OW 4740   5.742   0.176   2.705  0.3835 -0.2188 -0.2878
30921SOL    HW1 4741   5.812   0.147   2.764  0.0221 -0.1409  0.1885
30921SOL    HW2 4742   5.715   0.096   2.659  0.2601 -0.3999  0.0951
30922SOL     OW 4743   0.356   0.916   8.257 -0.4862 -0.0629 -0.0689
30922SOL    HW1 4744   0.341   0.987   8.195 -1.3985 -1.1141 -1.1110
30922SOL    HW2 4745   0.271   0.903   8.300  0.1701  0.7624  1.5710
30923SOL     OW 4746   2.184   6.532   6.865  0.2853 -0.1396 -0.2748
30923SOL    HW1 4747   2.179   6.465   6.798 -0.3299 -0.1078 -0.2626
30923SOL    HW2 4748   2.094   6.546   6.892  0.4211  0.6045 -0.1903
30924SOL     OW 4749   9.149   0.146   1.947 -0.2348  0.2416 -0.3482
30924SOL    HW1 4750   9.149   0.227   1.997  0.5456 -0.3377  0.6177
30924SOL    HW2 4751   9.057   0.120   1.944 -0.3326  0.4758  0.4716
30925SOL     OW 4752   6.931   9.740   9.330  0.3686 -0.1625 -0.6787
30925SOL    HW1 4753   6.975   9.760   9.413 -0.6782  0.1997 -0.1851
30925SOL    HW2 4754   6.966   9.656   9.303 -1.1600 -1.6154  1.5152
30926SOL     OW 4755   9.932   2.888   2.969  0.2504  0.0031  0.9418
30926SOL    HW1 4756   9.870   2.865   2.900  0.1407  0.4689  0.8842
30926SOL    HW2 4757   9.886   2.868   3.050  0.1820 -0.0455  0.8913
30927SOL     OW 4758   4.033   5.788  10.196  0.2598  0.6374  0.4367
30927SOL    HW1 4759   3.964   5.728  10.168  1.5054 -1.5755  1.7946
30927SOL    HW2 4760   3.986   5.866  10.227 -1.5695 -0.4488  0.5329
30928SOL     OW 4761   4.263   8.810   6.799  0.2811  0.8741 -0.0461
30928SOL    HW1 4762   4.315   8.885   6.771  0.5744  1.0499  0.9622
30928SOL    HW2 4763   4.181   8.848   6.829  0.3374  0.7648  0.2427
30929SOL     OW 4764   5.010   5.364   2.675 -0.0206 -0.0071 -0.4628
30929SOL    HW1 4765   5.060   5.421   2.733  0.3084  0.8035 -1.5119
30929SOL    HW2 4766   4.919   5.376   2.701  0.1565  0.0295  0.1504
30930SOL     OW 4767   7.074  10.286   1.062 -0.3456 -1.0351  0.0989
30930SOL    HW1 4768   7.057  10.277   0.969 -0.5818 -0.7113  0.1089
30930SOL    HW2 4769   7.160  10.246   1.075 -0.8364 -2.1998 -0.0443
30931SOL     OW 4770   0.097   8.790   6.250  0.1361 -0.0199  0.1189
30931SOL    HW1 4771   0.050   8.870   6.227  0.8419  0.7892  1.3392
30931SOL    HW2 4772   0.065   8.769   6.338  0.8078 -0.4190  0.2702
30932SOL     OW 4773   6.869   0.126   4.718  0.7349  0.0694  0.1957
30932SOL    HW1 4774   6.829   0.206   4.685  0.2507  0.6758  2.1357
30932SOL    HW2 4775   6.954   0.154   4.751  1.8746 -0.8060 -1.8353
30933SOL     OW 4776   8.400   6.271   9.449  0.1740  0.2485 -0.0079
30933SOL    HW1 4777   8.483   6.314   9.429  0.7141 -0.9452 -0.4286
30933SOL    HW2 4778   8.407   6.185   9.408 -1.1880  0.0451  0.1471
30934SOL     OW 4779   1.893   7.014   9.365 -0.6361 -0.3950 -0.1864
30934SOL    HW1 4780   1.814   6.975   9.328 -0.1725 -1.7857  0.2164
30934SOL    HW2 4781   1.951   7.025   9.290 -0.2788 -1.7671 -0.1486
30935SOL     OW 4782   1.096   4.010   1.453 -0.5688  0.2890  0.5644
30935SOL    HW1 4783   1.035   4.058   1.396 -0.4992  0.0369  0.2754
30935SOL    HW2 4784   1.173   3.996   1.398  0.8439  2.8806  1.6931
30936SOL     OW 4785   8.166   1.354   4.392 -0.3016 -0.8420  0.0094
30936SOL    HW1 4786   8.164   1.420   4.461 -1.0451 -2.1124  1.2429
30936SOL    HW2 4787   8.151   1.404   4.311  1.0038  0.7255  0.6860
30937SOL     OW 4788   3.376   2.817   6.948 -0.6343 -0.5996  0.6017
30937SOL    HW1 4789   3.418   2.735   6.922 -1.1304 -0.8777  0.6593
30937SOL    HW2 4790   3.434   2.886   6.914 -0.8856 -0.9639 -0.6033
30938SOL     OW 4791   3.611   3.214   6.602  0.1491  0.4766  0.5417
30938SOL    HW1 4792   3.655   3.240   6.683  3.0185 -0.2048 -0.6758
30938SOL    HW2 4793   3.667   3.145   6.565 -1.1706  0.5943 -1.9086
30939SOL     OW 4794   9.960   3.565   6.156 -0.2882  0.6337  0.2014
30939SOL    HW1 4795   9.969   3.621   6.079 -0.0318 -1.5188 -1.4565
30939SOL    HW2 4796   9.895   3.609   6.211  0.1730  2.6783 -0.8213
30940SOL     OW 4797   8.986   7.823   3.173 -0.4437  0.0846 -0.0613
30940SOL    HW1 4798   9.078   7.813   3.147 -0.5730  0.2673 -0.5987
30940SOL    HW2 4799   8.944   7.862   3.097 -0.5408  2.0012  0.9239
30941SOL     OW 4800   9.370   5.152   5.872  0.4065  0.2501  0.2321
30941SOL    HW1 4801   9.419   5.185   5.948  2.0813 -0.1494 -0.6285
30941SOL    HW2 4802   9.329   5.230   5.834  1.7471  0.8892  0.0307
30942SOL     OW 4803   4.648   7.969   6.519 -0.1885  0.0070 -0.5023
30942SOL    HW1 4804   4.725   7.950   6.573 -0.6129 -1.3298 -0.3221
30942SOL    HW2 4805   4.658   7.911   6.443 -0.3740  0.7651 -1.1200
30943SOL     OW 4806   2.997   9.501   2.559 -0.4411  0.0655 -0.2060
30943SOL    HW1 4807   3.083   9.462   2.545  0.5291  1.2849  1.8494
30943SOL    HW2 4808   2.944   9.432   2.599  0.0519 -0.2677 -0.1341
30944SOL     OW 4809   0.505   3.192   3.465  0.1834  0.9138 -0.0109
30944SOL    HW1 4810   0.552   3.121   3.420  0.0699  0.7573  0.1135
30944SOL    HW2 4811   0.515   3.171   3.558  0.4452  1.2541  0.0406
30945SOL     OW 4812   3.183   6.369   8.598  0.0271 -0.2911  0.0137
30945SOL    HW1 4813   3.204   6.445   8.545  1.1501 -1.5577 -1.4423
30945SOL    HW2 4814   3.089   6.377   8.617  0.0300  1.1741 -0.5360
30946SOL     OW 4815   3.352   5.202   8.978 -0.1969  0.0524  0.0106
30946SOL    HW1 4816   3.364   5.138   9.048 -0.2542  1.2205  1.1139
30946SOL    HW2 4817   3.288   5.264   9.012 -1.0087  0.0949 -1.4831
30947SOL     OW 4818   8.974   8.345   9.660  0.0321  0.0359 -0.2156
30947SOL    HW1 4819   8.965   8.435   9.629 -1.1985 -0.1618 -0.4803
30947SOL    HW2 4820   8.890   8.326   9.702  1.0835 -0.2281  1.8873
30948SOL     OW 4821   7.450   9.175   0.680  0.3628 -0.1362 -0.2117
30948SOL    HW1 4822   7.395   9.109   0.638  0.8460 -0.6805 -0.0032
30948SOL    HW2 4823   7.391   9.247   0.700 -0.1818 -0.5315 -0.3907
30949SOL     OW 4824   3.312   1.970   6.749 -0.5476  0.3063 -0.1404
30949SOL    HW1 4825   3.273   1.957   6.662 -1.5432  0.7692  0.2241
30949SOL    HW2 4826   3.405   1.987   6.731 -0.5060 -0.6907 -1.0373
30950SOL     OW 4827   5.357   1.603   0.080 -0.1983  0.1525  0.2691
30950SOL    HW1 4828   5.372   1.671   0.014 -1.1225 -0.2889 -0.4175
30950SOL    HW2 4829   5.297   1.542   0.038 -0.3470 -0.4459  1.3239
30951SOL     OW 4830   9.651   5.272   2.624 -0.2467 -0.1924 -0.0011
30951SOL    HW1 4831   9.653   5.267   2.720 -1.0789 -1.0073 -0.0118
30951SOL    HW2 4832   9.742   5.265   2.598 -0.0627 -0.5809  0.7122
30952SOL     OW 4833   9.345   5.515   2.277  0.3915  0.5710  0.3607
30952SOL    HW1 4834   9.378   5.465   2.352  1.3512  1.1371  0.3370
30952SOL    HW2 4835   9.411   5.502   2.209  0.9984  2.3414  0.5474
30953SOL     OW 4836   1.304   4.289   0.218  0.2977  0.1518  0.1378
30953SOL    HW1 4837   1.244   4.362   0.233 -0.5164 -0.3253 -0.6620
30953SOL    HW2 4838   1.312   4.284   0.123  0.0549 -1.0035  0.1591
30954SOL     OW 4839   6.700   9.908   5.399 -0.5502  0.8589 -0.0829
30954SOL    HW1 4840   6.766   9.965   5.360 -0.1696  0.6514  0.2484
30954SOL    HW2 4841   6.748   9.828   5.423 -1.0074  0.5343 -0.2279
30955SOL     OW 4842   7.875   2.564   4.218  0.1769 -0.5732 -0.2394
30955SOL    HW1 4843   7.893   2.538   4.308  0.1791 -0.7005 -0.2758
30955SOL    HW2 4844   7.801   2.509   4.191  0.4093 -0.7948 -0.4336
30956SOL     OW 4845   1.902   3.382  10.317 -0.6120 -0.5853  0.4077
30956SOL    HW1 4846   1.887   3.362  10.409  2.3003 -0.3143  1.0342
30956SOL    HW2 4847   1.844   3.322  10.270 -0.7034 -2.1796  2.4050
30957SOL     OW 4848   4.804   9.924   6.116 -0.1294 -0.3296  0.3896
30957SOL    HW1 4849   4.884   9.903   6.068 -0.6063  0.5034 -0.8097
30957SOL    HW2 4850   4.805   9.864   6.191  2.2574  0.5611  1.1459
30958SOL     OW 4851   9.387   8.472   2.638  0.0420  0.5482  0.1318
30958SOL    HW1 4852   9.443   8.403   2.603  1.5844  2.0362 -0.4833
30958SOL    HW2 4853   9.405   8.472   2.732  1.0182  0.9261 -0.0439
30959SOL     OW 4854   1.804   8.420   9.828 -0.8196 -0.1547  0.5237
30959SOL    HW1 4855   1.725   8.397   9.877 -2.2832  1.8522 -0.7078
30959SOL    HW2 4856   1.774   8.429   9.738  0.3450  2.5468  0.3143
30960SOL     OW 4857   4.934   6.428   6.366 -0.2244  0.0012 -0.7347
30960SOL    HW1 4858   4.917   6.334   6.371 -0.3786  0.0139 -1.0061
30960SOL    HW2 4859   4.931   6.458   6.457  1.1395 -0.4829 -0.4961
30961SOL     OW 4860   5.393   3.141   4.559  0.2412  0.2024 -0.5002
30961SOL    HW1 4861   5.385   3.046   4.572 -0.0136  0.3156  0.2134
30961SOL    HW2 4862   5.456   3.168   4.625 -0.7509  0.7318  0.2656
30962SOL     OW 4863   4.955   4.951   8.443  0.2973  0.2348 -0.7043
30962SOL    HW1 4864   4.940   4.915   8.356 -0.2824 -1.1962 -0.0457
30962SOL    HW2 4865   4.882   5.012   8.457  0.3666  0.4290 -1.1877
30963SOL     OW 4866   2.864   0.488   4.415 -0.0519 -0.0651  0.6936
30963SOL    HW1 4867   2.911   0.570   4.431 -0.5187 -0.4250  5.1684
30963SOL    HW2 4868   2.933   0.425   4.396  0.9514  0.3015  2.8407
30964SOL     OW 4869  10.258   2.477   3.818  0.8531  0.0733 -0.5625
30964SOL    HW1 4870  10.173   2.448   3.850  1.4784 -2.3892 -0.9255
30964SOL    HW2 4871  10.267   2.566   3.851 -2.1005  0.6618 -1.0137
30965SOL     OW 4872   1.299   0.343   7.345  0.4999  0.3738 -0.2612
30965SOL    HW1 4873   1.374   0.299   7.386 -0.0018  0.0814  0.3481
30965SOL    HW2 4874   1.275   0.287   7.271  1.2326  0.7623 -0.8175
30966SOL     OW 4875   0.863   2.524   7.429  0.4658 -0.2195 -0.3914
30966SOL    HW1 4876   0.901   2.602   7.388  0.3670  0.0068 -0.0539
30966SOL    HW2 4877   0.770   2.529   7.409  0.0555  1.0132  1.6361
30967SOL     OW 4878   0.223   5.026   8.684  0.2207  0.6035  0.3084
30967SOL    HW1 4879   0.204   5.095   8.621  0.1389  0.2737 -0.0324
30967SOL    HW2 4880   0.246   4.950   8.631  0.2558  0.3509  0.6759
30968SOL     OW 4881   8.593   9.636   7.744  0.0379  0.1113 -0.0809
30968SOL    HW1 4882   8.599   9.635   7.839 -1.0816  3.0442  0.1402
30968SOL    HW2 4883   8.684   9.627   7.714  0.5461  0.3577  1.3137
30969SOL     OW 4884   2.445  10.181   1.349  0.1174  0.0643  0.3653
30969SOL    HW1 4885   2.354  10.154   1.333  0.3792 -0.5916 -0.0964
30969SOL    HW2 4886   2.444  10.219   1.436 -0.6187  0.1320  0.3361
30970SOL     OW 4887   4.968   9.332   4.474 -0.4609  0.6758  0.2049
30970SOL    HW1 4888   5.039   9.382   4.515 -0.1846 -0.2981  0.9624
30970SOL    HW2 4889   4.925   9.394   4.415  0.0289  1.7160  0.9228
30971SOL     OW 4890   2.009   9.563   2.816  0.0034  0.6035 -0.7309
30971SOL    HW1 4891   1.996   9.554   2.721  2.2819 -2.0956 -0.9054
30971SOL    HW2 4892   2.099   9.593   2.826  0.1171 -0.0835  0.5678
30972SOL     OW 4893   3.051   7.550   4.145 -0.2859  0.4948 -0.0281
30972SOL    HW1 4894   3.015   7.491   4.078 -0.4160 -0.0165  0.4837
30972SOL    HW2 4895   3.053   7.636   4.103 -0.5672  0.2178 -0.6177
30973SOL     OW 4896   3.023   9.874   4.001 -0.0795  0.0965 -0.0908
30973SOL    HW1 4897   3.085   9.831   3.941 -0.9859 -2.1381  0.4829
30973SOL    HW2 4898   3.039   9.832   4.085 -3.2465 -1.5961 -0.1960
30974SOL     OW 4899   8.395   6.602   6.578  0.4972 -0.2190 -0.2492
30974SOL    HW1 4900   8.354   6.686   6.557  1.2175 -0.4021 -2.7665
30974SOL    HW2 4901   8.322   6.545   6.604  0.0174  1.1659  1.6529
30975SOL     OW 4902   5.319   8.727   1.140 -0.2262  0.3820 -0.2221
30975SOL    HW1 4903   5.358   8.644   1.114 -0.4593  0.3574 -0.4929
30975SOL    HW2 4904   5.390   8.773   1.186 -0.3409 -0.2921  0.6335
30976SOL     OW 4905   4.477   9.895   9.781  0.4334  0.3485  0.4204
30976SOL    HW1 4906   4.559   9.918   9.825  1.0617 -1.1066  0.0955
30976SOL    HW2 4907   4.471   9.957   9.708  1.2411  0.4882  0.4594
30977SOL     OW 4908   0.794   7.430   6.385  0.9660 -0.0418 -0.4382
30977SOL    HW1 4909   0.846   7.383   6.319  0.0621 -0.7346 -0.6886
30977SOL    HW2 4910   0.830   7.518   6.386  1.0754 -0.0498 -1.7849
30978SOL     OW 4911   1.941   3.057   7.526  0.0445  0.3753 -0.1092
30978SOL    HW1 4912   1.852   3.042   7.558 -0.1873 -0.1571 -0.9615
30978SOL    HW2 4913   1.992   3.072   7.605 -0.6874  0.0519  0.4424
30979SOL     OW 4914   0.877   0.994   1.941 -0.2888  0.2962  0.2740
30979SOL    HW1 4915   0.827   0.919   1.971  1.2984 -0.0060  2.4078
30979SOL    HW2 4916   0.941   0.958   1.879  0.1338 -0.0659  0.9051
30980SOL     OW 4917   0.281   1.595   4.987  0.2977  0.3206 -0.0955
30980SOL    HW1 4918   0.214   1.535   4.954  2.3217 -1.9396 -0.3510
30980SOL    HW2 4919   0.283   1.665   4.922 -0.2117 -0.7757 -1.3664
30981SOL     OW 4920   0.341   5.360   7.442 -0.4670 -0.0413 -0.4529
30981SOL    HW1 4921   0.425   5.406   7.437 -0.2352 -0.2461  1.0192
30981SOL    HW2 4922   0.328   5.345   7.536 -1.3535 -1.4801 -0.7793
30982SOL     OW 4923   6.502   5.086   1.882  0.3277 -0.4574  0.2690
30982SOL    HW1 4924   6.418   5.051   1.853  0.7916 -1.6231  0.2726
30982SOL    HW2 4925   6.564   5.058   1.815  0.9102 -0.6351  0.8724
30983SOL     OW 4926   1.476   2.039   2.857 -0.1321  0.1905 -0.1985
30983SOL    HW1 4927   1.520   2.102   2.914 -0.2957 -0.2437  0.4165
30983SOL    HW2 4928   1.412   2.092   2.808 -1.5390  0.2616  1.6119
30984SOL     OW 4929   9.812   2.538   2.969  0.3920 -0.3120  0.9401
30984SOL    HW1 4930   9.770   2.493   3.043 -0.4570  1.4933  1.6080
30984SOL    HW2 4931   9.739   2.562   2.911  0.9600 -0.8600 -0.0340
30985SOL     OW 4932   7.364   0.853   5.933  0.3638 -0.4865  0.1682
30985SOL    HW1 4933   7.385   0.774   5.982  2.8426 -0.1024 -0.1253
30985SOL    HW2 4934   7.325   0.822   5.851 -0.4921 -1.2783  0.8604
30986SOL     OW 4935   5.161   0.754   3.292 -0.0267 -0.2564  0.0509
30986SOL    HW1 4936   5.219   0.763   3.368  0.2462 -0.6385 -0.1072
30986SOL    HW2 4937   5.163   0.840   3.251  1.7738 -0.6986 -0.8987
30987SOL     OW 4938   4.874   2.059   6.484  0.1072  0.0717 -0.1958
30987SOL    HW1 4939   4.894   2.151   6.497  0.2398  0.3210 -1.8796
30987SOL    HW2 4940   4.781   2.051   6.502 -0.2944  0.9259 -1.7149
30988SOL     OW 4941   2.501   8.628   1.454 -0.4439  0.5351  0.8293
30988SOL    HW1 4942   2.583   8.580   1.462 -0.1093  0.4705 -1.8556
30988SOL    HW2 4943   2.455   8.584   1.382 -2.6264  0.8789  1.9579
30989SOL     OW 4944   8.155   6.316   8.029 -0.8654  0.3892 -0.3984
30989SOL    HW1 4945   8.095   6.243   8.045 -0.4003  0.4697  2.2398
30989SOL    HW2 4946   8.242   6.275   8.028 -0.7951  0.5471 -1.9761
30990SOL     OW 4947   1.011   8.115   9.343  0.4679  0.1665 -0.1607
30990SOL    HW1 4948   1.077   8.046   9.346  1.2726  0.9629  1.0939
30990SOL    HW2 4949   1.055   8.192   9.376 -0.7124  1.0563 -0.5846
30991SOL     OW 4950   3.482   3.219   4.478 -0.2825  1.0327  0.0562
30991SOL    HW1 4951   3.495   3.276   4.402 -2.3447  0.9206 -0.4352
30991SOL    HW2 4952   3.445   3.139   4.441 -1.9875  1.2444  1.2282
30992SOL     OW 4953   4.721   8.797   5.852  0.1446 -0.0420  0.3029
30992SOL    HW1 4954   4.650   8.736   5.871 -1.0219  0.0180 -3.1899
30992SOL    HW2 4955   4.677   8.879   5.830  1.5838  1.4102  2.3943
30993SOL     OW 4956   0.349   6.356   5.461 -0.5733 -0.5414 -0.6023
30993SOL    HW1 4957   0.295   6.292   5.416 -0.7329 -1.4897  0.8676
30993SOL    HW2 4958   0.293   6.433   5.469 -1.3848 -1.1725  0.0118
30994SOL     OW 4959   4.643   5.173   0.165  0.5342  0.3606 -0.4853
30994SOL    HW1 4960   4.664   5.227   0.241 -0.5650  0.1777 -0.0370
30994SOL    HW2 4961   4.723   5.123   0.149  1.3643  1.6783 -0.5448
30995SOL     OW 4962  10.244   5.865   6.154 -0.6032  0.5241 -0.0711
30995SOL    HW1 4963  10.206   5.898   6.236  1.0100 -1.2427  1.4879
30995SOL    HW2 4964  10.299   5.937   6.123 -0.4663  0.8834  0.9474
30996SOL     OW 4965   9.400   6.581   9.784 -0.4615  0.2002 -0.1659
30996SOL    HW1 4966   9.403   6.486   9.791 -1.2433  0.1636 -0.2672
30996SOL    HW2 4967   9.491   6.609   9.797 -0.1669 -0.5788 -0.5330
30997SOL     OW 4968   3.499   2.892   2.028 -0.0655  0.0685 -0.4025
30997SOL    HW1 4969   3.450   2.962   2.072  0.7317 -0.6665  1.7707
30997SOL    HW2 4970   3.561   2.938   1.971 -0.1799  1.1103  0.2906
30998SOL     OW 4971   5.153   4.285   3.497 -0.2353  0.2253  0.0725
30998SOL    HW1 4972   5.139   4.231   3.575 -2.0904  0.4632 -0.0635
30998SOL    HW2 4973   5.245   4.310   3.502  0.0343 -0.9193  1.4394
30999SOL     OW 4974   1.207   3.656   9.697 -0.3108  0.2167 -0.9776
30999SOL    HW1 4975   1.227   3.646   9.603  0.0826 -1.4259 -0.7498
30999SOL    HW2 4976   1.113   3.674   9.700 -0.4289 -0.2391 -1.6716
31000SOL     OW 4977   3.964   5.853   7.990 -0.5210  0.2147 -0.2488
31000SOL    HW1 4978   3.970   5.933   7.938 -0.1551  1.2498  1.3180
31000SOL    HW2 4979   3.870   5.837   8.001 -0.5922  0.5594 -0.3724
31001SOL     OW 4980   4.406   5.393   3.006 -0.0720 -0.7257 -0.0990
31001SOL    HW1 4981   4.405   5.315   2.950 -2.0639 -1.2472  0.5668
31001SOL    HW2 4982   4.478   5.378   3.067  1.2240 -0.8070 -1.6114
31002SOL     OW 4983   9.832   0.286   1.640  0.2329 -0.0065  0.9253
31002SOL    HW1 4984   9.826   0.304   1.734  3.0730  1.8543  0.8712
31002SOL    HW2 4985   9.791   0.361   1.598 -2.3902 -1.5228  0.5582
31003SOL     OW 4986  10.179   8.335   8.897  0.0981 -0.4413 -0.0655
31003SOL    HW1 4987  10.189   8.404   8.962  0.2251  0.3976 -0.9558
31003SOL    HW2 4988  10.264   8.292   8.894  0.8732  1.0915 -1.3980
31004SOL     OW 4989   6.460   8.711   6.676  0.1344 -0.1329 -0.5192
31004SOL    HW1 4990   6.376   8.752   6.652  1.0167  0.9630 -1.9095
31004SOL    HW2 4991   6.525   8.762   6.628  1.4875 -1.8588 -0.5765
31005SOL     OW 4992   2.566   3.890   0.582 -0.0178  0.4213 -0.4500
31005SOL    HW1 4993   2.559   3.918   0.491 -0.0491  0.4052 -0.4526
31005SOL    HW2 4994   2.660   3.875   0.595  0.0334  0.8182 -0.3615
31006SOL     OW 4995   0.415   2.600   6.861  0.4346 -0.0562 -0.0494
31006SOL    HW1 4996   0.423   2.686   6.903  0.4170  0.2140 -0.5958
31006SOL    HW2 4997   0.342   2.558   6.906 -0.9654  1.0402 -1.1782
31007SOL     OW 4998   9.245   5.464   9.985 -0.5013  0.1218 -0.0024
31007SOL    HW1 4999   9.217   5.434  10.072 -0.7267 -0.8730 -0.4058
31007SOL    HW2 5000   9.320   5.408   9.964 -0.2834  0.5385 -0.3331
31008SOL     OW 5001   3.481   5.675   1.975  0.2320 -0.0674 -0.0023
31008SOL    HW1 5002   3.491   5.709   1.886  0.6019  0.7734  0.3503
31008SOL    HW2 5003   3.386   5.664   1.985  0.2500 -1.3606 -0.9106
31009SOL     OW 5004   5.316   8.852  10.334  0.3253 -0.6305  0.3211
31009SOL    HW1 5005   5.381   8.913  10.300 -1.4127  0.9905 -0.2746
31009SOL    HW2 5006   5.316   8.779  10.272  0.3127  0.2215 -0.7067
31010SOL     OW 5007   4.969   0.172   3.901  0.2078 -0.3796  0.3669
31010SOL    HW1 5008   5.040   0.234   3.886 -0.9405  1.2784  1.3898
31010SOL    HW2 5009   4.948   0.181   3.994 -1.9053 -0.1318 -0.0777
31011SOL     OW 5010   0.281   2.517  10.262 -0.9116 -0.5429 -0.2095
31011SOL    HW1 5011   0.227   2.439  10.252 -0.9153 -0.6784  0.7578
31011SOL    HW2 5012   0.244   2.580  10.200 -0.7148 -1.3976 -1.2198
31012SOL     OW 5013   4.428   1.897   5.227 -0.6416 -0.2863 -0.4668
31012SOL    HW1 5014   4.478   1.906   5.308 -3.0052 -1.7838  1.2985
31012SOL    HW2 5015   4.488   1.855   5.166  1.8516  2.6592 -0.2708
31013SOL     OW 5016   7.061   4.500   1.897  0.1745  0.1737 -0.5350
31013SOL    HW1 5017   7.143   4.546   1.878 -0.0248  0.4225 -0.7945
31013SOL    HW2 5018   6.995   4.547   1.847 -0.0678 -0.2612 -0.6264
31014SOL     OW 5019   3.211   1.195   7.608  0.0625 -0.3478 -0.0781
31014SOL    HW1 5020   3.224   1.170   7.700 -0.7141  0.2400  0.2045
31014SOL    HW2 5021   3.170   1.118   7.568  1.0471 -0.8726 -0.1214
31015SOL     OW 5022   6.334   6.453   6.101 -0.3621 -1.0440 -0.7978
31015SOL    HW1 5023   6.421   6.489   6.118 -1.2593  1.7978 -1.5487
31015SOL    HW2 5024   6.282   6.481   6.176 -0.9288 -1.5949 -0.9819
31016SOL     OW 5025   3.715   8.037   0.407  0.4029 -0.0329 -0.2432
31016SOL    HW1 5026   3.793   8.029   0.351  1.4080  0.4452  1.0207
31016SOL    HW2 5027   3.711   7.953   0.453 -0.1780 -0.2655 -0.6966
31017SOL     OW 5028   2.152   1.771   7.507 -0.0578 -0.0332 -0.8546
31017SOL    HW1 5029   2.188   1.793   7.421  1.5295 -0.8667 -0.4359
31017SOL    HW2 5030   2.200   1.693   7.535 -1.0163 -0.1829  0.5076
31018SOL     OW 5031   2.098   8.456   3.035  0.2549 -1.1651  0.2887
31018SOL    HW1 5032   2.162   8.493   3.095  0.9294 -1.7048 -0.0874
31018SOL    HW2 5033   2.114   8.362   3.038  0.4578 -1.1852 -0.9044
31019SOL     OW 5034   5.074   0.366   5.910  0.2308  0.5336 -0.4755
31019SOL    HW1 5035   5.088   0.362   6.005  0.8171  0.1866 -0.5716
31019SOL    HW2 5036   5.126   0.441   5.882 -1.4457  1.8358 -0.2809
31020SOL     OW 5037   2.593   2.501   7.070 -0.6876 -0.4877  0.3501
31020SOL    HW1 5038   2.534   2.550   7.013 -0.2071  0.3262  0.5283
31020SOL    HW2 5039   2.542   2.484   7.149 -0.3374  1.2616  0.9960
31021SOL     OW 5040   0.422   7.366  10.101 -0.2035 -0.1083 -0.1130
31021SOL    HW1 5041   0.397   7.308  10.173  0.2729 -0.5508 -0.2942
31021SOL    HW2 5042   0.343   7.376  10.049  0.0284 -1.6889 -0.8199
31022SOL     OW 5043   1.666   1.771   0.150 -0.2071 -0.1632  0.0525
31022SOL    HW1 5044   1.589   1.791   0.203 -0.2169  1.2288 -0.4511
31022SOL    HW2 5045   1.651   1.681   0.119 -1.7523  0.1553 -0.2307
31023SOL     OW 5046   1.872   6.119   1.458 -0.2954  0.2647 -0.1176
31023SOL    HW1 5047   1.845   6.031   1.433  0.6516  0.3727 -1.6556
31023SOL    HW2 5048   1.908   6.157   1.378  2.2738  0.9115  1.2295
31024SOL     OW 5049   2.779   7.893   3.781  0.4067  0.4241  0.0711
31024SOL    HW1 5050   2.868   7.889   3.816  0.3446  0.7860  0.2825
31024SOL    HW2 5051   2.779   7.831   3.708  0.2817 -1.0213  1.2494
31025SOL     OW 5052   4.893  10.155  10.223  0.0521 -0.4019  0.2261
31025SOL    HW1 5053   4.815  10.151  10.167  0.2570 -0.5620 -0.0506
31025SOL    HW2 5054   4.893  10.245  10.256  0.5494  0.0505 -0.9458
31026SOL     OW 5055   7.647   3.882   9.299 -0.1462 -0.2812 -0.4295
31026SOL    HW1 5056   7.670   3.968   9.264 -3.1589  0.3315 -1.2067
31026SOL    HW2 5057   7.664   3.821   9.228  1.7830 -0.3648  0.0479
31027SOL     OW 5058   0.084   7.828   7.883 -0.4658  0.1386 -0.1985
31027SOL    HW1 5059   0.102   7.811   7.975  1.5298  1.7340 -0.2373
31027SOL    HW2 5060  -0.011   7.844   7.879 -0.8001 -1.2833  1.3096
31028SOL     OW 5061   2.180   0.955   2.924  0.6069  0.1517  0.4763
31028SOL    HW1 5062   2.221   1.041   2.931 -1.2785  1.2383 -0.9247
31028SOL    HW2 5063   2.213   0.919   2.841  0.0357  0.3117  0.1739
31029SOL     OW 5064   9.162   7.767   9.645  0.1126 -0.1865  0.6417
31029SOL    HW1 5065   9.095   7.828   9.678  0.7174  0.0090  1.5437
31029SOL    HW2 5066   9.115   7.713   9.581 -0.1096  2.1501 -1.2980
31030SOL     OW 5067   9.502   6.085   8.082  0.0325 -0.4375 -0.0351
31030SOL    HW1 5068   9.537   6.123   8.163  0.9124 -1.9832  0.3519
31030SOL    HW2 5069   9.453   6.156   8.042  0.4849  0.6922  1.3164
31031SOL     OW 5070   4.993   0.895   3.540  0.0619  0.3321 -0.4944
31031SOL    HW1 5071   5.033   0.929   3.460  0.1597 -0.2582 -0.7049
31031SOL    HW2 5072   4.907   0.863   3.512 -0.3146  1.0473 -0.1611
31032SOL     OW 5073   7.081   0.793   2.648  0.0194  0.4191 -0.1173
31032SOL    HW1 5074   7.058   0.715   2.596 -0.8712  0.0258  0.8174
31032SOL    HW2 5075   7.102   0.758   2.735  0.7443  1.1340  0.0042
31033SOL     OW 5076   0.270   0.003   6.268  0.4437 -0.5623 -0.2976
31033SOL    HW1 5077   0.349  -0.003   6.322  0.0040  0.0126  0.4276
31033SOL    HW2 5078   0.236   0.091   6.286  0.5538 -0.1708 -1.8953
31034SOL     OW 5079   0.651   9.013   5.725 -0.3697  0.2270  0.5325
31034SOL    HW1 5080   0.650   8.966   5.642 -0.2131  1.7636 -0.3650
31034SOL    HW2 5081   0.742   9.007   5.754  0.2156  1.9755 -0.7898
31035SOL     OW 5082   4.883   0.205   2.600 -0.0436 -0.1612  0.5409
31035SOL    HW1 5083   4.934   0.271   2.646 -0.8017  0.4986  0.4465
31035SOL    HW2 5084   4.854   0.249   2.520 -0.9317 -0.4588  0.6906
31036SOL     OW 5085   9.272  10.070   5.962  0.1676  0.1327  0.0151
31036SOL    HW1 5086   9.213  10.006   5.923  1.1244 -0.2693 -0.8140
31036SOL    HW2 5087   9.357  10.027   5.962  0.1698 -0.0349  2.9494
31037SOL     OW 5088   2.446   9.651   5.433 -0.0262  0.4368 -0.1232
31037SOL    HW1 5089   2.412   9.699   5.509  0.3054  1.2166 -0.4572
31037SOL    HW2 5090   2.451   9.560   5.463 -3.9335 -0.0598 -0.5611
31038SOL     OW 5091   7.906   0.068   8.551 -0.4412  0.2021  0.1205
31038SOL    HW1 5092   7.907   0.160   8.527  0.1614  1.0154  2.8675
31038SOL    HW2 5093   7.821   0.055   8.593  0.1588  0.0052  1.3099
31039SOL     OW 5094   6.220   0.444   5.974 -0.2588  0.3004 -0.3464
31039SOL    HW1 5095   6.260   0.530   5.972  0.9232 -0.1952  0.4220
31039SOL    HW2 5096   6.206   0.426   6.067  1.1128 -1.0249 -0.3645
31040SOL     OW 5097   7.059   9.481   5.633  0.4794  0.3536 -0.0468
31040SOL    HW1 5098   6.998   9.407   5.629  0.7872  0.1463 -2.0980
31040SOL    HW2 5099   7.061   9.506   5.725  2.2369 -3.7173  1.2292
31041SOL     OW 5100   4.358  10.035   5.037  0.3958 -0.0014  0.5405
31041SOL    HW1 5101   4.322   9.953   5.004  2.3845 -0.4984 -0.5358
31041SOL    HW2 5102   4.421  10.008   5.104  1.6324  0.5873 -0.3669
31042SOL     OW 5103   6.341   9.360   1.944  0.3537 -0.3625 -0.3496
31042SOL    HW1 5104   6.299   9.397   2.022  1.3662  0.8656 -0.3656
31042SOL    HW2 5105   6.288   9.282   1.923  0.0428 -0.6990  1.5288
31043SOL     OW 5106   2.977   8.505   7.973  0.1398  0.2998 -0.0512
31043SOL    HW1 5107   2.962   8.539   7.885  2.1331  1.0188 -0.1449
31043SOL    HW2 5108   3.070   8.485   7.976 -0.2004 -1.3323  1.3632
31044SOL     OW 5109   5.136   2.635   5.391  0.0030  0.3218  0.2494
31044SOL    HW1 5110   5.075   2.562   5.374  1.8216 -1.0928 -0.5021
31044SOL    HW2 5111   5.214   2.593   5.427  0.4827  2.1182  1.3950
31045SOL     OW 5112   7.168   0.561   6.097  0.5223 -0.8227  1.0950
31045SOL    HW1 5113   7.102   0.620   6.061 -0.2040 -1.4905  1.2977
31045SOL    HW2 5114   7.242   0.618   6.120  0.0087 -0.0606  0.8776
31046SOL     OW 5115   2.261   3.081   7.225 -0.0905 -0.0971 -0.0105
31046SOL    HW1 5116   2.337   3.092   7.168 -1.0100 -1.9665 -1.7253
31046SOL    HW2 5117   2.193   3.134   7.184 -1.0155 -2.1456 -1.2889
31047SOL     OW 5118  10.190   6.290   6.404  0.1986  0.1990 -0.1616
31047SOL    HW1 5119  10.146   6.238   6.471 -0.6589  0.2581 -0.6659
31047SOL    HW2 5120  10.283   6.274   6.419  0.0419  0.4919  1.2579
31048SOL     OW 5121   2.254   4.976   7.017  0.2468  0.5833 -0.4741
31048SOL    HW1 5122   2.230   5.069   7.008  0.2640  0.5695 -0.6705
31048SOL    HW2 5123   2.350   4.976   7.014  0.2337  0.4164 -2.0341
31049SOL     OW 5124   8.239   1.631   1.834  0.3290 -0.0438  0.0469
31049SOL    HW1 5125   8.173   1.622   1.766  0.9092 -1.3542 -0.3784
31049SOL    HW2 5126   8.220   1.561   1.897  1.0213 -0.1420  0.1619
31050SOL     OW 5127   1.109   6.296   0.621 -0.4442  0.5790  0.5277
31050SOL    HW1 5128   1.095   6.201   0.619  0.4035  0.4526 -1.1695
31050SOL    HW2 5129   1.043   6.331   0.562 -0.9836  1.1130  1.4207
31051SOL     OW 5130   2.420   2.157   8.620  0.9903 -0.0706  0.4883
31051SOL    HW1 5131   2.468   2.194   8.695  2.3099 -0.7685  0.0171
31051SOL    HW2 5132   2.395   2.234   8.568 -0.9397  0.5294  2.1611
31052SOL     OW 5133   7.333   6.833   6.823 -0.2850 -0.4099  0.2449
31052SOL    HW1 5134   7.422   6.830   6.786 -2.2681  0.4922 -5.5637
31052SOL    HW2 5135   7.314   6.742   6.846  1.1910 -1.1030 -1.0999
31053SOL     OW 5136   4.351   7.243   2.409  0.1499 -0.0946 -0.3454
31053SOL    HW1 5137   4.438   7.225   2.372  0.7444  1.9220 -0.0541
31053SOL    HW2 5138   4.295   7.255   2.333  0.5942  0.6237 -0.5672
31054SOL     OW 5139   3.372   8.981   1.800  0.8174 -0.4505 -0.9557
31054SOL    HW1 5140   3.314   8.917   1.757 -2.6796  0.8483  1.3581
31054SOL    HW2 5141   3.378   9.053   1.738 -0.6798 -0.3411 -1.0114
31055SOL     OW 5142   1.210   4.425   9.009  0.1733 -0.3512  0.4214
31055SOL    HW1 5143   1.218   4.443   9.102 -2.7686  1.8077  0.4034
31055SOL    HW2 5144   1.270   4.487   8.967  1.0885 -0.9479  0.8237
31056SOL     OW 5145   0.836   4.792   4.411  0.2878  0.5261 -0.4145
31056SOL    HW1 5146   0.773   4.751   4.470  0.2272  1.2833  0.0631
31056SOL    HW2 5147   0.792   4.793   4.326  0.6468 -1.1996 -0.6679
31057SOL     OW 5148   4.983  10.069   4.961 -0.0582 -0.5438 -0.1090
31057SOL    HW1 5149   5.022  10.009   5.024  1.4723  0.4446 -0.0687
31057SOL    HW2 5150   5.057  10.103   4.911 -0.9637  0.7326 -0.6346
31058SOL     OW 5151   9.558   1.227   6.247  0.7348  0.4475 -1.0575
31058SOL    HW1 5152   9.600   1.298   6.199  2.1513  0.4986  0.1805
31058SOL    HW2 5153   9.578   1.246   6.339  0.7321 -1.2904 -0.6735
31059SOL     OW 5154   4.056   4.450   1.217  0.2328 -0.2811 -0.5810
31059SOL    HW1 5155   3.970   4.431   1.255  0.7151 -0.6856  0.3418
31059SOL    HW2 5156   4.118   4.405   1.275  1.1710  1.2243 -0.3685
31060SOL     OW 5157   3.211   4.152   4.056 -0.0807 -0.1079 -0.0790
31060SOL    HW1 5158   3.165   4.076   4.023  0.8687 -0.6705 -0.1584
31060SOL    HW2 5159   3.248   4.124   4.140 -1.2424  0.8504  0.7977
31061SOL     OW 5160   6.136   1.002   4.026 -0.0010 -0.5204 -0.2204
31061SOL    HW1 5161   6.086   0.920   4.034  0.9166 -0.9704  1.1997
31061SOL    HW2 5162   6.081   1.068   4.068 -0.0330 -0.7478  0.1035
31062SOL     OW 5163   7.065   7.873   6.778 -0.8968  0.5758  0.5071
31062SOL    HW1 5164   7.109   7.923   6.846 -1.1936 -0.3082  1.3792
31062SOL    HW2 5165   7.130   7.864   6.709 -0.6570  1.6619  0.5734
31063SOL     OW 5166   7.431   2.132   0.091 -0.4278 -0.4440  0.2505
31063SOL    HW1 5167   7.477   2.215   0.080 -0.4250 -0.7248 -2.6462
31063SOL    HW2 5168   7.496   2.066   0.069 -1.3559 -1.0068 -0.8757
31064SOL     OW 5169   4.798   0.182   9.471  0.6080  0.0900 -0.3356
31064SOL    HW1 5170   4.803   0.206   9.564 -0.0650  1.0400 -0.5353
31064SOL    HW2 5171   4.705   0.186   9.450  0.9076  1.9634 -1.5687
31065SOL     OW 5172   5.610   3.760   2.961  0.1270 -0.0188 -0.5800
31065SOL    HW1 5173   5.676   3.829   2.953 -0.0464  0.0722 -1.2626
31065SOL    HW2 5174   5.536   3.803   3.004  0.7773 -0.3172  0.9307
31066SOL     OW 5175   1.831   3.241   1.041  0.4046 -0.4358  0.0448
31066SOL    HW1 5176   1.875   3.164   1.005  1.4009 -0.4774  1.2755
31066SOL    HW2 5177   1.742   3.212   1.058 -0.0029 -0.5309 -1.9317
31067SOL     OW 5178   3.576   7.063   8.461 -0.0797 -0.2322  0.0260
31067SOL    HW1 5179   3.494   7.066   8.509 -0.7148 -0.3598 -1.0227
31067SOL    HW2 5180   3.588   6.970   8.441  0.2087 -0.1863 -0.0189
31068SOL     OW 5181   2.418   7.838   6.155  0.1412 -0.5863  0.7208
31068SOL    HW1 5182   2.345   7.899   6.140  1.6466  0.7104 -2.0345
31068SOL    HW2 5183   2.399   7.763   6.098  0.0295 -1.1578  1.4896
31069SOL     OW 5184   5.798   0.891   2.143  0.4852 -0.0915  0.2745
31069SOL    HW1 5185   5.726   0.858   2.197 -1.3895  0.7062 -1.6363
31069SOL    HW2 5186   5.866   0.823   2.151 -1.4116 -2.1212  0.1794
31070SOL     OW 5187   3.336   3.149   6.627  0.3038 -0.0413  0.0662
31070SOL    HW1 5188   3.411   3.208   6.618  0.2205 -0.0537 -0.8246
31070SOL    HW2 5189   3.361   3.071   6.578 -0.2819 -0.0505 -0.2269
31071SOL     OW 5190   6.877   1.766   5.009 -0.2864  0.3391 -0.3301
31071SOL    HW1 5191   6.815   1.818   5.059 -0.5530 -0.2250 -0.0683
31071SOL    HW2 5192   6.843   1.677   5.013  1.6373 -0.4142  1.6538
31072SOL     OW 5193   2.507   9.438   1.319  0.5306 -0.7685 -0.4764
31072SOL    HW1 5194   2.476   9.375   1.254 -0.6258 -0.7335  0.0305
31072SOL    HW2 5195   2.449   9.426   1.394  0.1204  1.0892 -0.4568
31073SOL     OW 5196   9.020   9.787   6.021  0.3798 -0.8297 -0.3278
31073SOL    HW1 5197   8.996   9.875   5.992 -2.8028 -1.5684 -0.2587
31073SOL    HW2 5198   9.060   9.801   6.107 -1.8413  0.4781  0.5729
31074SOL     OW 5199   6.867   7.069   6.253  0.3665 -0.3334  0.2683
31074SOL    HW1 5200   6.859   6.993   6.195  3.0243 -0.3134 -0.2832
31074SOL    HW2 5201   6.923   7.038   6.324  0.0751  0.6465  0.9347
31075SOL     OW 5202   0.850   9.047   3.493 -0.0169  0.1698  0.5054
31075SOL    HW1 5203   0.903   9.057   3.572 -0.3660 -1.2363  0.9455
31075SOL    HW2 5204   0.910   9.011   3.428  0.4621  2.0110 -0.1443
31076SOL     OW 5205   0.993   9.357   9.238 -0.2181 -0.2194 -0.1969
31076SOL    HW1 5206   0.908   9.328   9.271 -0.9482  1.0270 -0.9465
31076SOL    HW2 5207   1.003   9.446   9.271  0.7500 -0.3023 -0.2248
31077SOL     OW 5208   0.476   4.978   5.705  0.4493 -0.1702  0.2427
31077SOL    HW1 5209   0.454   4.899   5.655  1.1089  0.0942 -0.4726
31077SOL    HW2 5210   0.562   5.005   5.672  0.1125  1.0081  0.2803
31078SOL     OW 5211   8.869   4.478   3.103 -0.1266 -0.4233  0.1177
31078SOL    HW1 5212   8.807   4.487   3.030  0.0964  0.9451  0.0759
31078SOL    HW2 5213   8.818   4.502   3.181  0.4372  1.0879  0.0365
31079SOL     OW 5214   8.564   4.698   6.192  0.1093  0.9104 -0.1476
31079SOL    HW1 5215   8.550   4.779   6.143 -1.4614 -0.0799 -1.4547
31079SOL    HW2 5216   8.647   4.664   6.158 -0.5278  0.6766 -1.5549
31080SOL     OW 5217  10.171   5.388   7.049  0.0577  0.1018 -0.2241
31080SOL    HW1 5218  10.154   5.350   7.136 -1.8779 -0.0275 -0.6163
31080SOL    HW2 5219  10.174   5.482   7.064 -1.2130  0.1485 -0.1122
31081SOL     OW 5220   4.688   2.290   8.617  0.2970  0.4706 -0.2172
31081SOL    HW1 5221   4.595   2.267   8.611  0.5372 -0.5804 -0.1064
31081SOL    HW2 5222   4.704   2.346   8.541 -0.6980  1.6679  0.4256
31082SOL     OW 5223   3.742   3.266   3.887 -0.4669 -0.5172  0.0107
31082SOL    HW1 5224   3.736   3.350   3.933 -0.8925 -0.6231  0.1460
31082SOL    HW2 5225   3.657   3.224   3.901  1.0066 -2.8815  3.6308
31083SOL     OW 5226   4.014   1.526   8.131 -0.0456  0.3760 -0.2217
31083SOL    HW1 5227   3.922   1.519   8.157  0.3230  1.7699  1.6737
31083SOL    HW2 5228   4.058   1.564   8.207  1.9680  0.5301 -1.3779
31084SOL     OW 5229   9.793   8.969   0.484  0.3769 -0.2607 -0.2665
31084SOL    HW1 5230   9.831   9.045   0.440 -0.4857 -0.0468 -0.6541
31084SOL    HW2 5231   9.707   8.998   0.513  0.0515 -1.0732 -0.3815
31085SOL     OW 5232   8.892   6.996   1.939  0.6463 -0.0211  0.2905
31085SOL    HW1 5233   8.873   7.020   2.030  1.3627 -0.0122  0.4442
31085SOL    HW2 5234   8.844   6.914   1.926 -2.1887  1.6191 -0.3858
31086SOL     OW 5235   9.809   7.069   2.782  0.2745  0.1226  0.3449
31086SOL    HW1 5236   9.736   7.092   2.724 -0.6851  1.5412  2.0144
31086SOL    HW2 5237   9.885   7.113   2.743  0.7022 -2.5898 -2.2637
31087SOL     OW 5238   5.989   8.114   3.853  0.2166  0.1454  0.1423
31087SOL    HW1 5239   6.061   8.101   3.792 -0.6951  3.5488 -1.9327
31087SOL    HW2 5240   5.922   8.159   3.802 -0.7463  2.9957  3.4893
31088SOL     OW 5241   9.153   6.748  10.283 -0.9153  0.3403 -0.3157
31088SOL    HW1 5242   9.142   6.788  10.197 -0.7683  0.3223 -0.3442
31088SOL    HW2 5243   9.132   6.656  10.269 -0.0651  0.1707 -0.5254
31089SOL     OW 5244   8.075   9.076   1.503 -0.0613  0.0255 -0.1773
31089SOL    HW1 5245   7.999   9.081   1.562 -0.1324 -0.0961 -0.2580
31089SOL    HW2 5246   8.151   9.074   1.561 -0.1207  0.1688 -0.0967
31090SOL     OW 5247   2.037   9.560   1.512  0.5259 -0.0973  0.4975
31090SOL    HW1 5248   1.967   9.534   1.452 -0.4224 -0.2175  1.6209
31090SOL    HW2 5249   2.054   9.481   1.563 -0.7619  0.7565  2.3744
31091SOL     OW 5250   2.677   8.058   3.510 -0.4471 -0.3002  0.6028
31091SOL    HW1 5251   2.749   8.042   3.571  1.6015 -1.3933 -1.8711
31091SOL    HW2 5252   2.659   7.972   3.472 -3.0683 -0.0222  1.0566
31092SOL     OW 5253   4.083   8.424   7.642 -0.1171 -0.3897 -0.2067
31092SOL    HW1 5254   4.151   8.391   7.701 -0.6769  0.4094  0.9232
31092SOL    HW2 5255   4.131   8.473   7.575  0.4392  0.2755  0.6556
31093SOL     OW 5256   4.384   5.516   5.968 -0.3566  0.3695 -0.2812
31093SOL    HW1 5257   4.459   5.456   5.971 -0.7095 -0.0481  1.8650
31093SOL    HW2 5258   4.315   5.471   6.015 -1.5662  1.2949 -1.1132
31094SOL     OW 5259   7.273   1.980  10.329 -0.6339  0.2165  0.7850
31094SOL    HW1 5260   7.199   1.944  10.377 -0.8646  1.4623  1.4153
31094SOL    HW2 5261   7.321   2.032  10.393 -0.5425  1.3337 -0.1426
31095SOL     OW 5262   9.389   9.718   0.200 -0.2146  0.0780  0.1013
31095SOL    HW1 5263   9.295   9.701   0.198 -1.0900  3.6598  1.8482
31095SOL    HW2 5264   9.422   9.657   0.267 -1.1680 -1.4325 -0.7363
31096SOL     OW 5265   5.009   4.526   6.421 -0.4901 -0.2347  0.2114
31096SOL    HW1 5266   5.089   4.573   6.399  0.6718 -1.3137  1.8970
31096SOL    HW2 5267   4.981   4.562   6.505  0.9958 -2.9990  2.0803
31097SOL     OW 5268   5.593   4.064   6.072  0.2054  0.5407  0.1597
31097SOL    HW1 5269   5.604   3.989   6.013  0.5813  0.4829  0.3031
31097SOL    HW2 5270   5.501   4.089   6.061 -0.4048 -1.0278  1.4208
31098SOL     OW 5271   5.730   2.011   4.467  0.4773  0.0597  0.3826
31098SOL    HW1 5272   5.686   1.952   4.528  0.2253  0.1406  0.2842
31098SOL    HW2 5273   5.823   1.989   4.474  0.4565  0.1051  0.8282
31099SOL     OW 5274   9.598   5.829   8.858 -0.0953 -0.0380 -1.0519
31099SOL    HW1 5275   9.682   5.807   8.898  0.7211  1.1127 -2.0107
31099SOL    HW2 5276   9.616   5.910   8.809 -1.7168  0.1203 -1.4506
31100SOL     OW 5277   7.246  10.078   6.149 -0.0552  0.2742  0.0109
31100SOL    HW1 5278   7.341  10.076   6.152 -0.0914 -0.0916  1.0795
31100SOL    HW2 5279   7.219  10.109   6.235 -0.9939 -3.2363  1.1388
31101SOL     OW 5280   0.705   3.437   3.793  0.2539 -0.4616 -0.0351
31101SOL    HW1 5281   0.762   3.385   3.736  1.4747  1.3966 -0.5918
31101SOL    HW2 5282   0.628   3.455   3.739 -0.2739 -1.8081  0.2335
31102SOL     OW 5283   0.553   1.839   1.646  0.6209  0.3636 -0.2359
31102SOL    HW1 5284   0.582   1.823   1.736  1.4059  2.0143 -0.1571
31102SOL    HW2 5285   0.502   1.761   1.624  0.6800 -0.2355  1.5143
31103SOL     OW 5286   1.894   6.753   5.249 -0.0742  0.4534 -0.0502
31103SOL    HW1 5287   1.930   6.805   5.178  1.1194 -1.7642 -1.1965
31103SOL    HW2 5288   1.929   6.792   5.329 -0.1452  2.0233 -0.7495
31104SOL     OW 5289   9.360   9.674   2.107  0.1775 -0.2613  0.3770
31104SOL    HW1 5290   9.341   9.697   2.016  1.8168 -0.6049 -0.0918
31104SOL    HW2 5291   9.452   9.698   2.119  0.2479 -1.0772  1.6628
31105SOL     OW 5292   0.844   3.152   2.805 -0.1867 -0.0001  0.1513
31105SOL    HW1 5293   0.797   3.070   2.817 -0.4366 -0.0430 -1.0376
31105SOL    HW2 5294   0.794   3.216   2.856 -0.4191 -0.4247  0.4643
31106SOL     OW 5295   4.085   3.908   5.895 -0.4067  1.0049 -0.3340
31106SOL    HW1 5296   4.121   3.928   5.982 -2.5174 -2.0314  1.4280
31106SOL    HW2 5297   4.006   3.961   5.889 -0.0935  1.4544 -0.5857
31107SOL     OW 5298   2.379   1.588   9.022 -0.3722 -0.1167  0.3042
31107SOL    HW1 5299   2.358   1.670   9.066 -1.5915  0.2046 -0.8391
31107SOL    HW2 5300   2.380   1.610   8.929  0.3339 -1.1783  0.0405
31108SOL     OW 5301   0.390   0.771   1.194  0.6026  0.2990  0.3692
31108SOL    HW1 5302   0.350   0.781   1.280 -0.4333 -0.7333  0.0399
31108SOL    HW2 5303   0.436   0.688   1.198  0.0580 -0.0413 -0.2466
31109SOL     OW 5304   7.214   4.398   5.623  0.1980 -0.0979 -0.1162
31109SOL    HW1 5305   7.243   4.463   5.687  1.3223  0.0947 -0.7800
31109SOL    HW2 5306   7.183   4.325   5.675  0.1672  0.4455  0.6482
31110SOL     OW 5307   2.171   7.887   3.957  0.3616 -0.3806 -0.2491
31110SOL    HW1 5308   2.186   7.867   3.864  0.7584 -0.6846 -0.1224
31110SOL    HW2 5309   2.216   7.970   3.971  0.6481 -0.5379 -0.2322
31111SOL     OW 5310   6.071   6.573   3.824  0.0505  0.0563  0.1803
31111SOL    HW1 5311   6.166   6.580   3.809 -0.0775  2.2523  0.0576
31111SOL    HW2 5312   6.038   6.526   3.747  1.1748 -2.2459  1.0005
31112SOL     OW 5313   7.244   5.157  10.055 -0.1314  0.0811 -0.1150
31112SOL    HW1 5314   7.236   5.102  10.133  0.0464  0.7405  0.3706
31112SOL    HW2 5315   7.273   5.097   9.986  0.1684 -0.4086  0.4370
31113SOL     OW 5316   3.229   3.654   3.633  0.4827  0.1654  0.0802
31113SOL    HW1 5317   3.139   3.633   3.610 -0.4773  1.8766  1.9295
31113SOL    HW2 5318   3.275   3.570   3.628 -1.1862 -0.7602 -0.8636
31114SOL     OW 5319   2.238   2.815  10.285  0.0107 -0.0120  0.7764
31114SOL    HW1 5320   2.313   2.764  10.252 -0.3877  0.1788 -0.4790
31114SOL    HW2 5321   2.174   2.811  10.214  0.0836  2.4804  0.4646
31115SOL     OW 5322   4.313   4.178   8.989  0.1013 -0.1577  0.0584
31115SOL    HW1 5323   4.229   4.137   9.009  1.4685 -2.4178  1.6322
31115SOL    HW2 5324   4.337   4.144   8.903  0.6945 -1.8734  0.8668
31116SOL     OW 5325   9.475   0.278   6.670  0.2779 -0.5897  0.3561
31116SOL    HW1 5326   9.549   0.319   6.714  1.6428 -2.8806  0.3625
31116SOL    HW2 5327   9.426   0.351   6.632  1.4851  1.1324  1.9077
31117SOL     OW 5328   6.114   7.481   1.057  0.0272 -0.4080  0.3331
31117SOL    HW1 5329   6.032   7.523   1.084  0.3007 -1.1411  2.4871
31117SOL    HW2 5330   6.088   7.417   0.991 -1.0578 -0.1865  0.5325
31118SOL     OW 5331   1.189   8.347   5.038 -0.5486 -0.3625 -0.7648
31118SOL    HW1 5332   1.211   8.327   5.129 -0.6044  0.9187 -0.4399
31118SOL    HW2 5333   1.252   8.297   4.987  0.4192 -0.0033  0.0345
31119SOL     OW 5334   3.062   1.003   7.448 -0.2350 -0.2144 -0.3397
31119SOL    HW1 5335   3.014   0.960   7.519 -0.3447 -1.3715 -1.0831
31119SOL    HW2 5336   3.009   1.080   7.427 -2.1357 -1.7155 -1.4815
31120SOL     OW 5337   5.588   7.638   8.680  0.3331  0.1497 -0.0280
31120SOL    HW1 5338   5.553   7.598   8.600  0.8451 -0.1176 -0.1189
31120SOL    HW2 5339   5.513   7.641   8.740 -0.0603  0.3713 -0.5211
31121SOL     OW 5340  10.272   7.900   6.157  0.1817 -0.7246  0.3725
31121SOL    HW1 5341  10.338   7.830   6.164 -0.2985 -1.2323 -0.0819
31121SOL    HW2 5342  10.199   7.859   6.110  0.7300  0.6565 -1.8653
31122SOL     OW 5343   2.151   3.857   8.745 -0.0131 -0.2337 -0.9933
31122SOL    HW1 5344   2.205   3.855   8.667  0.9997  0.6840 -0.3429
31122SOL    HW2 5345   2.070   3.900   8.717  0.1280 -0.3808 -1.6475
31123SOL     OW 5346   1.278   8.057   2.666 -0.8372  0.5476 -0.1825
31123SOL    HW1 5347   1.202   8.114   2.672 -1.8288 -0.6446 -0.9516
31123SOL    HW2 5348   1.270   7.999   2.742 -0.4125  0.7338  0.0081
31124SOL     OW 5349   7.310   2.259   4.281  0.1248  0.0163  0.6538
31124SOL    HW1 5350   7.330   2.221   4.366  1.0089 -2.3927 -0.5256
31124SOL    HW2 5351   7.266   2.188   4.233  0.9362  0.8019 -1.3551
31125SOL     OW 5352   8.664   7.828   8.317 -0.3064  0.4505  0.4494
31125SOL    HW1 5353   8.606   7.779   8.376  0.4144 -0.1775  0.6545
31125SOL    HW2 5354   8.707   7.893   8.374 -0.8395  0.9533  0.2863
31126SOL     OW 5355   1.679  10.074   3.501  0.1301 -0.1337 -0.4418
31126SOL    HW1 5356   1.690  10.124   3.420  0.5308 -1.0980 -1.0106
31126SOL    HW2 5357   1.751  10.103   3.557  0.4739 -0.2020 -0.8392
31127SOL     OW 5358   2.435   6.560   0.352  0.0353 -0.1953  0.4222
31127SOL    HW1 5359   2.354   6.536   0.397 -0.2959  1.2054  0.6174
31127SOL    HW2 5360   2.408   6.575   0.261 -0.0572  0.8367  0.6049
31128SOL     OW 5361   6.071   7.807   0.966 -0.1195  0.4899 -0.4564
31128SOL    HW1 5362   6.135   7.879   0.965  0.8872 -0.3743 -0.1127
31128SOL    HW2 5363   6.110   7.740   0.909 -1.0524  0.2075 -0.7797
31129SOL     OW 5364   0.185   4.982  10.103 -0.3564  0.3758 -0.1534
31129SOL    HW1 5365   0.232   4.924  10.162  0.8979  2.3810  0.9053
31129SOL    HW2 5366   0.181   5.066  10.149  0.0666  1.8402 -2.5948
31130SOL     OW 5367   8.067   3.540   8.121  0.1185  0.1047 -0.3064
31130SOL    HW1 5368   8.061   3.446   8.109 -0.9005  0.2456 -1.0128
31130SOL    HW2 5369   8.147   3.553   8.172  0.6211 -1.0811 -0.7698
31131SOL     OW 5370   4.583   0.370   7.089  0.0329  0.2043  0.6226
31131SOL    HW1 5371   4.499   0.398   7.053 -0.5868  0.9661  2.5415
31131SOL    HW2 5372   4.593   0.280   7.058  0.9197  1.5356 -3.6640
31132SOL     OW 5373   7.452   2.941   6.599  0.4628 -0.1642 -0.1450
31132SOL    HW1 5374   7.467   3.015   6.657  0.7726  0.5721 -1.1342
31132SOL    HW2 5375   7.518   2.876   6.625  1.6000  0.7552 -0.6494
31133SOL     OW 5376   7.728   4.325   1.416 -0.4842 -0.3655  0.3823
31133SOL    HW1 5377   7.692   4.312   1.328  0.6032 -0.3136 -0.0850
31133SOL    HW2 5378   7.652   4.344   1.470 -1.1953 -0.5871 -0.5118
31134SOL     OW 5379   3.947  10.368   0.068  0.2606  0.0680  0.7481
31134SOL    HW1 5380   3.908  10.283   0.089 -0.3838  0.6181  1.8751
31134SOL    HW2 5381   3.887  10.407   0.005  0.9169 -0.5827 -0.2992
31135SOL     OW 5382   4.630   6.572   2.117 -0.3584  0.1112 -0.0063
31135SOL    HW1 5383   4.676   6.656   2.127 -1.2231  0.4629  1.3018
31135SOL    HW2 5384   4.562   6.589   2.052 -0.6518  0.4957  0.3917
31136SOL     OW 5385   2.712   2.238   3.008 -0.1191  0.0514 -0.1483
31136SOL    HW1 5386   2.704   2.206   3.098  1.0450 -0.5000 -0.2128
31136SOL    HW2 5387   2.668   2.171   2.955 -0.1204 -0.0260 -0.0503
31137SOL     OW 5388   5.262   0.795   2.975  0.1221 -0.5280  0.0364
31137SOL    HW1 5389   5.212   0.864   3.018  0.6926 -0.2769  0.3188
31137SOL    HW2 5390   5.337   0.781   3.032  0.0665 -1.3159 -0.0736
31138SOL     OW 5391   6.493   2.808   2.752  0.4815  0.6249  0.1351
31138SOL    HW1 5392   6.420   2.859   2.716  1.3257  0.8015 -1.4507
31138SOL    HW2 5393   6.549   2.873   2.795  2.1593  1.3886 -2.8822
31139SOL     OW 5394   6.412   0.995   7.862 -0.0804 -0.0857 -0.7339
31139SOL    HW1 5395   6.437   1.083   7.833 -0.7395 -0.5135 -2.7372
31139SOL    HW2 5396   6.496   0.954   7.886  0.3673  0.7000 -0.9034
31140SOL     OW 5397   7.289   2.252   5.650 -0.5402  0.1994 -0.5402
31140SOL    HW1 5398   7.341   2.320   5.693 -2.2133  1.2321 -0.0977
31140SOL    HW2 5399   7.335   2.171   5.673  0.5015  1.0058  0.3943
31141SOL     OW 5400   3.605   7.913   4.488  0.4974  0.4932  0.3028
31141SOL    HW1 5401   3.698   7.895   4.476  0.3123 -0.2263 -0.1400
31141SOL    HW2 5402   3.584   7.875   4.573  0.0124 -1.9880 -0.8090
31142SOL     OW 5403   4.584   2.763   9.200  0.4541  0.1770  0.0426
31142SOL    HW1 5404   4.583   2.707   9.278  0.8011  1.8984  1.3464
31142SOL    HW2 5405   4.511   2.823   9.213  1.0931  1.0878 -0.4902
31143SOL     OW 5406   0.965   3.792   0.836 -0.5930 -0.0308 -0.3729
31143SOL    HW1 5407   0.932   3.872   0.795 -1.2319 -0.8218 -1.4369
31143SOL    HW2 5408   1.055   3.784   0.805 -0.8342 -0.2265 -1.0230
31144SOL     OW 5409   3.615   3.561   3.054  0.4712 -0.0282 -0.0659
31144SOL    HW1 5410   3.576   3.482   3.090 -1.1418  0.2630 -1.0346
31144SOL    HW2 5411   3.559   3.582   2.978  1.3191  1.5912 -0.2833
31145SOL     OW 5412   6.667   0.018   4.984 -0.2910 -0.1772 -0.3767
31145SOL    HW1 5413   6.736  -0.035   5.023  0.4526  0.4330 -0.8361
31145SOL    HW2 5414   6.681   0.011   4.890 -1.4822 -0.8608 -0.5223
31146SOL     OW 5415   7.549   0.600   9.470  0.0173  0.5576  0.0832
31146SOL    HW1 5416   7.587   0.514   9.487 -1.3004 -0.0651  0.0311
31146SOL    HW2 5417   7.612   0.662   9.506  0.5737 -0.4612  0.9213
31147SOL     OW 5418   9.744   6.836   8.589 -0.5320 -0.1751 -0.3249
31147SOL    HW1 5419   9.722   6.915   8.538 -1.1443 -1.0237 -1.4153
31147SOL    HW2 5420   9.692   6.845   8.669 -0.5661  0.5406 -0.4154
31148SOL     OW 5421   0.499   1.854   9.085  0.2830 -0.6618 -0.5360
31148SOL    HW1 5422   0.452   1.883   9.163  0.5122 -0.7919 -0.3490
31148SOL    HW2 5423   0.591   1.871   9.104  0.6150 -2.9563  0.2323
31149SOL     OW 5424   9.842   4.769   8.313 -0.1625  0.2805  0.6448
31149SOL    HW1 5425   9.764   4.768   8.257 -0.4952  1.0274  1.0864
31149SOL    HW2 5426   9.826   4.838   8.377  0.4897 -0.1366  1.2822
31150SOL     OW 5427   3.041   2.411   8.031  0.1322  0.6516  0.3587
31150SOL    HW1 5428   3.011   2.326   8.060 -2.7995  0.2692 -3.0572
31150SOL    HW2 5429   3.120   2.393   7.979 -1.1512 -0.2606 -1.3608
31151SOL     OW 5430   8.894   5.639   4.745 -0.0805  0.2044 -0.0987
31151SOL    HW1 5431   8.818   5.638   4.687  0.4564 -0.2367 -0.8131
31151SOL    HW2 5432   8.920   5.731   4.748  0.0433  0.1923 -0.7647
31152SOL     OW 5433   1.645   2.523   4.726 -0.0384  0.5808 -0.0839
31152SOL    HW1 5434   1.730   2.567   4.730  0.5258 -0.5764  1.9044
31152SOL    HW2 5435   1.586   2.582   4.772 -0.3688  1.3954 -1.4842
31153SOL     OW 5436   5.159   3.230   7.669  0.6988 -0.9009  0.2590
31153SOL    HW1 5437   5.090   3.230   7.603  0.5254  0.9534  0.3973
31153SOL    HW2 5438   5.175   3.137   7.687  0.0382 -1.4205 -1.6258
31154SOL     OW 5439   3.405   7.989   3.771  0.2648  0.4633 -0.2674
31154SOL    HW1 5440   3.479   8.036   3.732  0.2292  0.7327 -0.0058
31154SOL    HW2 5441   3.345   7.975   3.698 -0.3833  2.0678 -0.0859
31155SOL     OW 5442   4.118   2.138   9.230 -0.2355 -0.2459  0.0771
31155SOL    HW1 5443   4.193   2.083   9.206 -0.3327  0.1124 -1.1173
31155SOL    HW2 5444   4.155   2.225   9.241 -0.6363  0.1940 -1.7699
31156SOL     OW 5445   0.010   6.177   5.600  0.2619 -0.2373 -0.1533
31156SOL    HW1 5446  -0.073   6.149   5.561  0.0626  1.3532 -0.9274
31156SOL    HW2 5447   0.004   6.147   5.691 -0.5293 -1.4049 -0.5615
31157SOL     OW 5448  10.054   7.960   8.762  0.2751  0.2674 -0.4123
31157SOL    HW1 5449  10.035   7.871   8.732 -0.3789  0.6997 -1.3207
31157SOL    HW2 5450  10.119   7.948   8.831 -0.3414 -0.9701 -0.0106
31158SOL     OW 5451   9.409   4.600   0.809  0.4207  0.1087 -0.7971
31158SOL    HW1 5452   9.428   4.648   0.890 -0.4431 -1.4126  0.3744
31158SOL    HW2 5453   9.428   4.509   0.831  0.3073 -0.3190 -2.3827
31159SOL     OW 5454   7.115  10.029   7.154  0.1721  0.0086  0.5036
31159SOL    HW1 5455   7.187  10.020   7.092 -0.6950 -0.5970 -0.4429
31159SOL    HW2 5456   7.038  10.041   7.099 -0.3655  1.4661  1.5074
31160SOL     OW 5457   5.570   0.594   8.436  0.2800 -0.1407 -0.5374
31160SOL    HW1 5458   5.539   0.659   8.499  1.0154 -1.9083  1.7697
31160SOL    HW2 5459   5.662   0.581   8.458  0.1249 -2.0376 -0.8677
31161SOL     OW 5460   2.494   7.895   8.050  0.1909 -0.1168 -0.9657
31161SOL    HW1 5461   2.483   7.978   8.096 -1.5660 -0.0895 -1.3849
31161SOL    HW2 5462   2.568   7.853   8.094 -0.3063  0.6856  0.7207
31162SOL     OW 5463   9.502   6.787   0.503 -0.2124  0.4496  0.2511
31162SOL    HW1 5464   9.509   6.804   0.409 -0.8241  1.1822  0.3302
31162SOL    HW2 5465   9.567   6.720   0.520  0.4140  0.8338 -0.5706
31163SOL     OW 5466   0.831  10.007   3.002 -0.3406 -0.3854 -0.1007
31163SOL    HW1 5467   0.748   9.975   2.966 -0.0578 -1.1334 -0.0966
31163SOL    HW2 5468   0.817  10.010   3.096  0.5486 -3.3654  0.2320
31164SOL     OW 5469   1.735   4.697   5.784  0.1367  0.2881  0.6766
31164SOL    HW1 5470   1.797   4.646   5.733  0.3586 -0.1755  1.4151
31164SOL    HW2 5471   1.659   4.640   5.793  0.0632  0.4056  0.8004
31165SOL     OW 5472   5.083   5.814   8.824  0.1722 -0.0185  0.1737
31165SOL    HW1 5473   5.136   5.852   8.895 -0.5050 -0.4751  0.9515
31165SOL    HW2 5474   5.102   5.867   8.748  2.1953 -0.5228  0.2801
31166SOL     OW 5475   5.943   9.684   0.824  0.0809  0.0604 -0.4926
31166SOL    HW1 5476   5.904   9.605   0.788 -1.7324  1.0230 -0.7663
31166SOL    HW2 5477   5.987   9.726   0.750  1.5299 -0.9177 -0.2299
31167SOL     OW 5478   5.755   3.819   8.152 -0.1402  0.1959 -0.4108
31167SOL    HW1 5479   5.796   3.905   8.142 -2.3133  1.4549  0.8670
31167SOL    HW2 5480   5.709   3.804   8.069  0.9712 -0.2002 -0.9808
31168SOL     OW 5481   3.294  10.139   5.738  0.1741 -0.3885  1.1803
31168SOL    HW1 5482   3.248  10.189   5.804 -1.1785 -0.4162  0.2989
31168SOL    HW2 5483   3.225  10.093   5.690  1.1333 -0.6441 -0.0109
31169SOL     OW 5484   1.403   0.156   4.136 -0.2897  0.2237  0.0950
31169SOL    HW1 5485   1.456   0.226   4.173 -1.5297  0.4389  1.5820
31169SOL    HW2 5486   1.313   0.177   4.162 -1.0163 -0.6176 -1.5316
31170SOL     OW 5487   4.199   0.125   1.740  0.4066 -0.3773 -0.0392
31170SOL    HW1 5488   4.157   0.093   1.660  1.6843 -1.0732 -0.4528
31170SOL    HW2 5489   4.217   0.217   1.723  1.1278 -0.6429 -0.7552
31171SOL     OW 5490   0.329   5.796   9.955 -0.4150  0.1088  0.3271
31171SOL    HW1 5491   0.315   5.846  10.036  0.2625  0.3859  0.2866
31171SOL    HW2 5492   0.419   5.817   9.931 -0.8536  0.6260 -0.9113
31172SOL     OW 5493   9.705   9.730   9.658  0.3276 -0.4428 -0.4796
31172SOL    HW1 5494   9.653   9.707   9.736 -0.0465 -2.2027 -1.2125
31172SOL    HW2 5495   9.645   9.782   9.605  0.9531  1.8088  0.8708
31173SOL     OW 5496   0.025   5.542   2.575  0.4693 -0.6486  0.4326
31173SOL    HW1 5497   0.051   5.619   2.525 -2.2599 -0.3552 -0.7153
31173SOL    HW2 5498   0.015   5.573   2.665 -0.4369  0.3224  0.0132
31174SOL     OW 5499   2.482   9.307   6.154 -0.7202 -0.0890  0.2687
31174SOL    HW1 5500   2.391   9.278   6.159 -1.3587  0.5940 -3.6134
31174SOL    HW2 5501   2.477   9.402   6.149  0.4152  0.0818  1.7298
31175SOL     OW 5502   2.329   3.366   9.447  0.4219 -0.8086  0.0230
31175SOL    HW1 5503   2.335   3.435   9.381  2.0238 -0.9207  0.0020
31175SOL    HW2 5504   2.333   3.284   9.398 -0.7639 -0.9324  0.1034
31176SOL     OW 5505   7.027   9.707   0.248 -0.1679 -0.0234  0.4196
31176SOL    HW1 5506   6.976   9.627   0.257 -1.1570  0.7668  2.5530
31176SOL    HW2 5507   6.963   9.776   0.232  0.5657  0.5017 -0.3410
31177SOL     OW 5508   1.836   0.550   8.711  0.0498 -0.2289 -0.6920
31177SOL    HW1 5509   1.870   0.630   8.672 -1.3415  1.2379  0.9196
31177SOL    HW2 5510   1.765   0.523   8.653 -0.8985  0.9682 -0.1189
31178SOL     OW 5511  10.054   0.991   9.126 -0.1366 -0.3617  0.4442
31178SOL    HW1 5512  10.052   0.921   9.190 -2.0575 -0.8644 -0.0880
31178SOL    HW2 5513   9.977   1.044   9.147 -0.2897 -0.0275 -0.8752
31179SOL     OW 5514   1.206   8.457  10.188 -0.3269 -0.4800 -0.6300
31179SOL    HW1 5515   1.215   8.428  10.098  1.0141 -2.3215  0.0256
31179SOL    HW2 5516   1.285   8.509  10.205 -1.2211  1.0224 -0.8710
31180SOL     OW 5517   3.829  10.172   2.345  0.1099  0.0910  0.4833
31180SOL    HW1 5518   3.904  10.223   2.376  0.3116 -1.4714  2.8393
31180SOL    HW2 5519   3.753  10.215   2.383  0.0942 -0.0864  0.6557
31181SOL     OW 5520   0.406   7.936  10.294 -0.0166  0.3120 -0.2358
31181SOL    HW1 5521   0.471   7.928  10.223  0.8804 -0.4112  0.6343
31181SOL    HW2 5522   0.423   7.860  10.350 -0.1565  1.3058  1.2030
31182SOL     OW 5523   1.519   4.997   2.590 -0.2032  0.1099 -0.2396
31182SOL    HW1 5524   1.575   5.028   2.519 -0.2997 -0.3034 -0.5019
31182SOL    HW2 5525   1.531   4.902   2.590 -2.9413 -0.3593 -2.1116
31183SOL     OW 5526   6.054   1.759   5.277  0.6031 -0.5690 -0.2528
31183SOL    HW1 5527   6.135   1.798   5.245  1.8755 -2.0327  1.0295
31183SOL    HW2 5528   6.054   1.670   5.244 -0.1028 -0.8242  0.3911
31184SOL     OW 5529   6.494  10.151   9.857 -0.8735 -0.1176  0.3722
31184SOL    HW1 5530   6.465  10.081   9.799  0.1721 -0.0114 -0.2982
31184SOL    HW2 5531   6.520  10.106   9.937  2.1855 -0.8771 -0.9062
31185SOL     OW 5532   9.599   6.149   1.427 -0.6704  0.4417  0.0012
31185SOL    HW1 5533   9.503   6.143   1.420 -0.5382 -1.4596 -0.9528
31185SOL    HW2 5534   9.620   6.102   1.507 -0.4938  0.3084 -0.1226
31186SOL     OW 5535   2.410   9.758   6.516 -0.5109 -0.0967 -0.0950
31186SOL    HW1 5536   2.463   9.705   6.575  0.3932  1.9557  1.0400
31186SOL    HW2 5537   2.463   9.837   6.501 -1.8201  0.5420 -1.6391
31187SOL     OW 5538   6.911   9.136   8.623 -0.4318  0.0782  0.2067
31187SOL    HW1 5539   6.817   9.120   8.631 -0.8233  2.2272  0.5579
31187SOL    HW2 5540   6.919   9.203   8.554  0.5158  2.0642  2.0988
31188SOL     OW 5541   3.166   0.914   2.508 -0.0533  0.1852  0.5605
31188SOL    HW1 5542   3.160   0.934   2.415  1.3237 -0.6195  0.2747
31188SOL    HW2 5543   3.083   0.871   2.528 -0.7859  1.2620 -0.0406
31189SOL     OW 5544   5.274  10.049   3.591  0.4406 -0.0842 -0.1476
31189SOL    HW1 5545   5.310   9.964   3.565 -1.8272 -0.9464 -0.7173
31189SOL    HW2 5546   5.195  10.027   3.640 -0.8574  1.6960 -1.3393
31190SOL     OW 5547   4.493   4.877   6.183  0.2556 -0.0855 -0.2730
31190SOL    HW1 5548   4.544   4.898   6.104 -0.0705  1.4518 -0.1097
31190SOL    HW2 5549   4.541   4.920   6.254  0.1948 -0.9257  0.2912
31191SOL     OW 5550   6.364   1.818   9.314 -0.1688 -0.1902 -0.0000
31191SOL    HW1 5551   6.455   1.789   9.322 -0.4312 -0.9314  0.4569
31191SOL    HW2 5552   6.358   1.894   9.372 -0.3289 -1.3608  1.5669
31192SOL     OW 5553   0.190   6.402   4.964 -0.4152 -0.2812 -0.3126
31192SOL    HW1 5554   0.223   6.489   4.983 -0.4892 -0.5338  1.0627
31192SOL    HW2 5555   0.261   6.358   4.917 -0.2069  0.3673 -0.6042
31193SOL     OW 5556   9.741   8.192   4.618  0.1819  0.4810 -0.0624
31193SOL    HW1 5557   9.771   8.160   4.703  1.6258 -2.0821 -1.4275
31193SOL    HW2 5558   9.791   8.273   4.604  0.5317  0.4882  1.1511
31194SOL     OW 5559   7.266   2.617   9.216 -0.0320  0.3475  0.6705
31194SOL    HW1 5560   7.212   2.631   9.138 -0.7343 -0.2751  1.0399
31194SOL    HW2 5561   7.301   2.704   9.236 -0.3314  0.6302  0.0175
31195SOL     OW 5562   2.984   6.466   6.469 -0.2484  0.8620 -0.3611
31195SOL    HW1 5563   2.977   6.561   6.462 -0.1446  0.9396  0.4096
31195SOL    HW2 5564   3.078   6.447   6.460 -0.0336  1.0220  1.2250
31196SOL     OW 5565   0.629   7.150   9.529  0.2091  0.1058  0.2198
31196SOL    HW1 5566   0.576   7.172   9.453  1.5902  1.1390 -0.4898
31196SOL    HW2 5567   0.566   7.146   9.602 -1.1421 -0.9937 -0.9574
31197SOL     OW 5568   9.878   3.129   0.243  0.0725 -0.2783  0.1114
31197SOL    HW1 5569   9.883   3.050   0.296 -3.7763 -0.4361  0.5308
31197SOL    HW2 5570   9.870   3.097   0.153  3.7916 -0.0601 -0.4814
31198SOL     OW 5571   9.477   1.284   9.431 -0.4222 -0.5400 -0.1204
31198SOL    HW1 5572   9.474   1.188   9.433 -1.6384 -0.5025  1.2901
31198SOL    HW2 5573   9.410   1.312   9.493 -0.6603  1.2467 -1.1078
31199SOL     OW 5574   9.219   5.068   5.190  0.1340 -0.9374  0.0905
31199SOL    HW1 5575   9.171   5.000   5.237 -0.7199 -0.9649 -0.7745
31199SOL    HW2 5576   9.299   5.025   5.159  1.9617 -0.3123  3.4795
31200SOL     OW 5577   9.939   8.675   2.636  0.9444  0.0667  0.0317
31200SOL    HW1 5578  10.027   8.696   2.668  1.0084 -0.8046  0.4465
31200SOL    HW2 5579   9.948   8.587   2.598  0.2686  0.0091 -0.0028
31201SOL     OW 5580   2.904   8.468   8.710 -0.1094 -0.3169  0.1243
31201SOL    HW1 5581   2.913   8.520   8.790 -1.2813 -1.5535  1.1010
31201SOL    HW2 5582   2.857   8.525   8.650 -0.0652  0.2886  0.6476
31202SOL     OW 5583   5.764   1.009   8.484 -0.0565  0.0572  0.7622
31202SOL    HW1 5584   5.773   1.087   8.430  0.3750  0.4121  1.3328
31202SOL    HW2 5585   5.794   0.938   8.429 -1.3155  0.1467 -0.0903
31203SOL     OW 5586   9.016   7.564   0.020  0.2989  0.2674  0.0130
31203SOL    HW1 5587   9.026   7.533   0.110  2.1867  0.0308 -0.2217
31203SOL    HW2 5588   8.923   7.554   0.001  0.2949 -2.5448  0.9518
31204SOL     OW 5589   7.671   5.032   1.244  0.1379  0.0346 -0.5573
31204SOL    HW1 5590   7.609   4.962   1.266  0.1677 -0.1543 -1.0737
31204SOL    HW2 5591   7.751   5.009   1.291 -0.4467  0.7632  0.8693
31205SOL     OW 5592   6.970   1.292   9.644  0.4188  0.3033  0.4509
31205SOL    HW1 5593   6.975   1.203   9.609 -0.1715  2.0334 -4.9561
31205SOL    HW2 5594   6.882   1.298   9.680  0.2280 -1.0759  0.2932
31206SOL     OW 5595   4.728   8.680   6.971  1.0403 -0.1839 -0.1533
31206SOL    HW1 5596   4.652   8.717   7.016  0.8152 -1.7151  0.8092
31206SOL    HW2 5597   4.729   8.723   6.886 -0.3102  0.6127  0.2089
31207SOL     OW 5598   3.961   7.348   2.981 -0.5277  0.2406 -0.2531
31207SOL    HW1 5599   4.019   7.384   3.048  0.2214  0.4700 -0.9990
31207SOL    HW2 5600   3.887   7.408   2.979 -0.4124  0.4004  0.1582
31208SOL     OW 5601   9.339   5.221   0.676 -0.4363 -0.3082 -0.6815
31208SOL    HW1 5602   9.425   5.260   0.695 -0.4605  1.1471 -3.0698
31208SOL    HW2 5603   9.359   5.131   0.649  0.2609 -0.2019 -0.5327
31209SOL     OW 5604  10.196   9.761   9.202  0.5434  0.1627  0.0167
31209SOL    HW1 5605  10.114   9.811   9.201  0.1658 -0.4036  0.9447
31209SOL    HW2 5606  10.264   9.828   9.200  0.0609  0.6423 -0.8210
31210SOL     OW 5607   5.945   8.573   7.078 -0.2572  0.6782 -0.0641
31210SOL    HW1 5608   5.927   8.526   6.997  0.1666 -0.5947  0.5495
31210SOL    HW2 5609   5.912   8.515   7.147  0.3733  1.2359  0.7260
31211SOL     OW 5610   4.139   7.435   7.444 -0.1968  0.6264  0.1659
31211SOL    HW1 5611   4.045   7.417   7.436 -0.2979  1.7132 -1.7179
31211SOL    HW2 5612   4.151   7.461   7.535 -1.2649 -1.7499  1.0714
31212SOL     OW 5613   4.293   2.361   1.980  0.3343 -0.0311 -0.3843
31212SOL    HW1 5614   4.290   2.352   2.075  0.1196 -1.9546 -0.5169
31212SOL    HW2 5615   4.217   2.416   1.959  0.2663  0.2453  0.5339
31213SOL     OW 5616   3.648   9.307   4.706  0.0065 -0.2854 -0.0740
31213SOL    HW1 5617   3.706   9.292   4.631 -1.0014  0.8488 -1.1302
31213SOL    HW2 5618   3.620   9.398   4.697 -1.5639 -0.6569  0.6720
31214SOL     OW 5619   1.822   6.517   4.132  0.5431 -0.1289 -0.4280
31214SOL    HW1 5620   1.897   6.473   4.090  1.4768  0.4349  0.5896
31214SOL    HW2 5621   1.776   6.560   4.059 -0.5192 -2.8609 -1.4898
31215SOL     OW 5622   7.180   7.614   1.336  0.3550 -0.4450  0.4290
31215SOL    HW1 5623   7.150   7.675   1.404  2.6501  0.0973  1.0513
31215SOL    HW2 5624   7.147   7.651   1.254  0.1481  0.6182  0.9716
31216SOL     OW 5625   1.111   3.261   2.407 -0.8034  0.3912 -0.1789
31216SOL    HW1 5626   1.038   3.267   2.468 -1.3698  2.0069 -0.9368
31216SOL    HW2 5627   1.120   3.350   2.372  0.1845 -0.2459 -1.6458
31217SOL     OW 5628   0.161  10.088   8.489  0.2205 -0.2551 -0.2630
31217SOL    HW1 5629   0.096  10.156   8.473 -1.3183 -1.2598  1.3923
31217SOL    HW2 5630   0.230  10.133   8.539 -0.0524  0.4071 -0.4720
31218SOL     OW 5631   4.321   3.587   9.428 -0.1781 -0.4268  0.3077
31218SOL    HW1 5632   4.340   3.654   9.363 -1.5965 -0.7523 -0.4737
31218SOL    HW2 5633   4.383   3.516   9.409  0.1457 -0.0692  0.0226
31219SOL     OW 5634   6.188   3.529  10.164  0.4178 -0.3267 -0.9542
31219SOL    HW1 5635   6.130   3.490  10.099 -2.0795  0.2157  0.8206
31219SOL    HW2 5636   6.134   3.592  10.211  2.2427 -0.2709  1.2681
31220SOL     OW 5637   5.973   1.569   2.868  0.0859  1.0384  0.1444
31220SOL    HW1 5638   5.982   1.480   2.903 -0.1042  0.9673  0.0142
31220SOL    HW2 5639   5.879   1.583   2.864  0.0948  1.8767  1.7549
31221SOL     OW 5640   4.339   9.457   8.449 -0.2020 -0.4345 -0.3258
31221SOL    HW1 5641   4.245   9.469   8.460  0.1194  2.0376  0.2399
31221SOL    HW2 5642   4.362   9.513   8.375  0.9955 -0.0830  0.2839
31222SOL     OW 5643  10.153   7.235   6.135  0.2983 -0.3403  0.0214
31222SOL    HW1 5644  10.104   7.177   6.193  1.9189 -1.1315  0.6936
31222SOL    HW2 5645  10.174   7.182   6.059 -2.4833  0.9278 -1.7511
31223SOL     OW 5646   4.057   6.353   8.049  0.4142  0.0770 -0.1758
31223SOL    HW1 5647   3.994   6.424   8.035  1.3145  0.9280  0.0212
31223SOL    HW2 5648   4.027   6.310   8.129 -0.4355 -0.1006 -0.5810
31224SOL     OW 5649   4.178   0.018   6.854  0.0541 -0.1508  0.5932
31224SOL    HW1 5650   4.222   0.098   6.827  0.6700 -0.8033 -0.3999
31224SOL    HW2 5651   4.230  -0.014   6.928 -0.4089  0.5426  1.2315
31225SOL     OW 5652   1.432   2.265   0.511 -0.6812  0.6221  0.0834
31225SOL    HW1 5653   1.418   2.213   0.590  0.3535 -0.7499 -0.5888
31225SOL    HW2 5654   1.378   2.344   0.524 -0.0452  0.7417  2.4061
31226SOL     OW 5655   6.752   5.742   3.811  0.0275 -0.0885  0.1329
31226SOL    HW1 5656   6.844   5.744   3.784 -0.0150  0.4392  0.0148
31226SOL    HW2 5657   6.745   5.664   3.866 -0.2237 -2.1125 -2.5657
31227SOL     OW 5658   6.933   4.895   1.829 -0.1063  0.2605 -0.5139
31227SOL    HW1 5659   7.011   4.921   1.779  1.0507  0.2832  1.2158
31227SOL    HW2 5660   6.932   4.954   1.904 -0.8961 -0.7785  0.3215
31228SOL     OW 5661   8.052   2.607   6.202  0.2712 -0.1891  0.0885
31228SOL    HW1 5662   8.097   2.533   6.242 -1.6718 -0.7256  1.4502
31228SOL    HW2 5663   8.063   2.678   6.265 -0.2099 -0.1396  0.1210
31229SOL     OW 5664   8.255   5.990   5.464 -0.4736  0.3310  0.2343
31229SOL    HW1 5665   8.328   5.969   5.405 -0.6083 -0.2510  0.2675
31229SOL    HW2 5666   8.296   5.996   5.551 -0.3838  0.5150  0.1806
31230SOL     OW 5667   7.735   7.400   3.640 -0.2283 -0.2940 -0.2390
31230SOL    HW1 5668   7.777   7.464   3.583  2.6211 -1.9915 -0.2271
31230SOL    HW2 5669   7.803   7.334   3.657 -2.3301 -2.1898  1.4998
31231SOL     OW 5670   6.554   8.162   6.549  0.1761 -0.8216  0.0593
31231SOL    HW1 5671   6.605   8.125   6.477  3.7681 -0.3071  2.0505
31231SOL    HW2 5672   6.603   8.241   6.574 -2.2823  0.3507  1.5536
31232SOL     OW 5673   0.023   0.617   9.372 -0.1953 -0.7121  0.1353
31232SOL    HW1 5674  -0.045   0.679   9.345 -0.6819 -1.2970 -0.0021
31232SOL    HW2 5675  -0.021   0.558   9.434 -0.1188 -1.7455 -0.7528
31233SOL     OW 5676   9.563   5.621   9.675  0.7962  0.1381 -0.3625
31233SOL    HW1 5677   9.475   5.643   9.707 -0.3194 -1.3349 -2.2153
31233SOL    HW2 5678   9.596   5.557   9.739 -0.3041 -0.7547 -0.6426
31234SOL     OW 5679   3.141   2.282   4.545 -0.6551 -0.0597 -0.2217
31234SOL    HW1 5680   3.126   2.303   4.637 -1.6008  0.1705 -0.4214
31234SOL    HW2 5681   3.176   2.193   4.545  1.1828  0.6241  0.4808
31235SOL     OW 5682  10.003   2.339   8.323 -0.6439 -0.0541 -0.2218
31235SOL    HW1 5683  10.015   2.268   8.260  2.9064 -0.0911  0.2601
31235SOL    HW2 5684   9.980   2.296   8.404 -0.7927 -0.4263 -0.4596
31236SOL     OW 5685   0.185   7.169   3.522 -0.9250 -0.2612 -0.6592
31236SOL    HW1 5686   0.165   7.256   3.558 -2.2750 -0.5818 -0.5947
31236SOL    HW2 5687   0.228   7.123   3.594 -1.7503 -0.2043 -0.1141
31237SOL     OW 5688   0.183   6.121   6.665 -0.5351  0.1600  0.0294
31237SOL    HW1 5689   0.225   6.132   6.750 -0.3971  0.0505 -0.0244
31237SOL    HW2 5690   0.160   6.027   6.662 -1.0842  0.2823  0.2004
31238SOL     OW 5691   2.202   4.499   9.565  0.2284  1.0100  0.2130
31238SOL    HW1 5692   2.246   4.583   9.575  1.9230  0.1710  0.0143
31238SOL    HW2 5693   2.258   4.436   9.609 -1.4889  0.0831  1.1899
31239SOL     OW 5694   3.921   8.261   4.976 -0.3080  0.3093  0.5566
31239SOL    HW1 5695   3.950   8.218   4.895  1.1143  0.1913  1.1020
31239SOL    HW2 5696   3.996   8.256   5.034 -1.3564  0.2715  1.9578
31240SOL     OW 5697   3.924   8.791   8.439 -0.1174 -0.0362 -0.3668
31240SOL    HW1 5698   3.929   8.793   8.343  0.1593  0.7823 -0.3415
31240SOL    HW2 5699   4.013   8.809   8.468  0.2550 -2.2334  0.0646
31241SOL     OW 5700   1.925   3.137   5.186 -0.5666 -0.7050 -0.2473
31241SOL    HW1 5701   1.922   3.077   5.261 -1.0450  0.5943  0.8214
31241SOL    HW2 5702   1.862   3.102   5.124 -2.9172  0.1007  1.5218
31242SOL     OW 5703   4.819   0.516   2.514 -0.2721 -0.1255  0.1875
31242SOL    HW1 5704   4.902   0.507   2.562 -0.5693 -0.2081  0.6883
31242SOL    HW2 5705   4.817   0.607   2.485  0.5214 -0.3999 -0.8036
31243SOL     OW 5706   2.061   9.442   4.748  0.2602 -0.0714  0.0525
31243SOL    HW1 5707   2.017   9.402   4.823 -1.0596 -0.7333 -1.0362
31243SOL    HW2 5708   2.022   9.529   4.742  0.7631  0.1890  0.4407
31244SOL     OW 5709   7.621   8.076   2.904  0.1139  0.0860 -0.2378
31244SOL    HW1 5710   7.593   7.986   2.886 -3.3767  0.5816  1.8536
31244SOL    HW2 5711   7.686   8.066   2.974 -0.4109 -0.8038  0.1485
31245SOL     OW 5712   5.807   4.872   8.577 -0.3494  0.7450 -0.3174
31245SOL    HW1 5713   5.869   4.935   8.613 -1.0023  0.9296  0.5301
31245SOL    HW2 5714   5.743   4.926   8.530 -0.2980  0.6175 -0.5368
31246SOL     OW 5715   5.042  10.108   9.011  0.2913 -0.4482  0.5300
31246SOL    HW1 5716   5.001  10.110   9.097 -0.0613 -2.0970  0.4340
31246SOL    HW2 5717   4.973  10.078   8.952  0.0700  2.1181 -0.6565
31247SOL     OW 5718   2.984   3.072   5.955  0.4527  0.4543 -0.0113
31247SOL    HW1 5719   2.964   3.026   5.874  0.4674  1.3505 -0.5360
31247SOL    HW2 5720   3.011   3.003   6.016  3.1120 -0.0292 -1.5646
31248SOL     OW 5721   8.059   3.886   8.430  0.3972  0.6201 -0.0024
31248SOL    HW1 5722   8.119   3.812   8.417 -0.0120  0.0354  1.3269
31248SOL    HW2 5723   7.980   3.862   8.380  1.3493  1.5788 -2.1056
31249SOL     OW 5724   9.071   4.994   8.672 -0.5341  0.1733 -0.1466
31249SOL    HW1 5725   9.120   4.952   8.742 -0.1416  1.0755  0.1202
31249SOL    HW2 5726   9.136   5.041   8.620 -1.0312  0.9108 -0.1224
31250SOL     OW 5727  10.072   9.471   5.714 -0.1860 -0.1920 -0.5930
31250SOL    HW1 5728  10.024   9.403   5.761 -0.9132  0.3511 -0.5210
31250SOL    HW2 5729  10.152   9.484   5.766 -0.8914  0.2652  0.4219
31251SOL     OW 5730   6.215   5.514   7.304 -0.4150 -0.7973  0.0423
31251SOL    HW1 5731   6.265   5.477   7.232 -2.9518 -2.1896 -1.1175
31251SOL    HW2 5732   6.282   5.550   7.363  1.9254 -2.6662 -1.2874
31252SOL     OW 5733  10.135   7.794   7.912  0.0978  0.3816  0.4394
31252SOL    HW1 5734  10.119   7.840   7.995  1.3523  0.5742  0.5946
31252SOL    HW2 5735  10.158   7.705   7.939 -0.2951  0.2144  0.2403
31253SOL     OW 5736   1.145   9.261   8.177 -0.1745 -0.4606  0.1617
31253SOL    HW1 5737   1.157   9.247   8.083  0.7060  1.5780 -0.0684
31253SOL    HW2 5738   1.054   9.238   8.193 -0.0482 -1.9199 -0.9467
31254SOL     OW 5739  10.368   8.453   9.263 -0.4451 -0.1798 -0.2945
31254SOL    HW1 5740  10.314   8.425   9.336  0.6293  0.3787  0.7561
31254SOL    HW2 5741  10.408   8.373   9.230 -1.8489 -0.5909 -1.0593
31255SOL     OW 5742   4.381   7.133   8.037  0.3579  0.2686  0.0228
31255SOL    HW1 5743   4.467   7.099   8.062  0.6379 -0.2740 -1.5876
31255SOL    HW2 5744   4.396   7.225   8.017  0.3078  0.4815  0.9280
31256SOL     OW 5745   4.549   9.160   2.025  0.3199  0.4988 -0.1621
31256SOL    HW1 5746   4.567   9.185   2.116 -1.7424 -3.3585  1.5225
31256SOL    HW2 5747   4.507   9.237   1.987  0.0878  1.8113  2.5177
31257SOL     OW 5748   0.602   5.136   2.849  0.3288  0.0644  0.1583
31257SOL    HW1 5749   0.694   5.162   2.847 -0.4825  3.6370  1.1686
31257SOL    HW2 5750   0.560   5.193   2.784 -0.8514 -3.8222 -2.8585
31258SOL     OW 5751   3.986  10.233   4.842 -0.1624  0.1907  0.2993
31258SOL    HW1 5752   3.982  10.313   4.790 -1.1807 -0.2711 -0.3549
31258SOL    HW2 5753   3.926  10.250   4.916 -0.1643  0.1359  0.3104
31259SOL     OW 5754   8.372   0.462   4.040  0.3226  0.4316 -0.5354
31259SOL    HW1 5755   8.451   0.447   3.989  0.1321 -1.7073 -0.3081
31259SOL    HW2 5756   8.300   0.451   3.978  0.1150 -1.5606 -0.0248
31260SOL     OW 5757   6.903   3.181   8.352  0.1517  0.2264  1.0460
31260SOL    HW1 5758   6.881   3.224   8.269  1.3685  0.8611  1.0354
31260SOL    HW2 5759   6.939   3.251   8.406 -0.4899 -0.2113  2.0807
31261SOL     OW 5760   7.794   4.745   8.248 -0.4023 -0.3126  0.4899
31261SOL    HW1 5761   7.869   4.759   8.191 -0.1739 -0.7283  0.6877
31261SOL    HW2 5762   7.798   4.817   8.311 -0.9576  0.4586 -0.3308
31262SOL     OW 5763   1.218   0.162   7.833 -0.3119 -0.6807  0.1963
31262SOL    HW1 5764   1.150   0.193   7.894 -1.4037 -0.6859 -0.9762
31262SOL    HW2 5765   1.214   0.224   7.760  0.8490 -0.7814  0.0397
31263SOL     OW 5766   1.504   0.338   3.288 -0.2941  0.8051  0.1049
31263SOL    HW1 5767   1.449   0.273   3.244 -0.7023  0.7322  0.7139
31263SOL    HW2 5768   1.582   0.289   3.313  0.1388  0.9436 -0.8927
31264SOL     OW 5769   4.995   5.065   8.701  0.5257 -0.6531 -0.0640
31264SOL    HW1 5770   5.080   5.067   8.744  0.5363 -0.9682 -0.0727
31264SOL    HW2 5771   4.998   4.989   8.643  0.2749 -0.6077 -0.1394
31265SOL     OW 5772   4.229   6.265   6.824 -0.0493 -0.2948 -0.2020
31265SOL    HW1 5773   4.210   6.331   6.892  1.3197 -1.1152  1.0327
31265SOL    HW2 5774   4.160   6.200   6.835 -0.4828  0.1264 -0.3633
31266SOL     OW 5775   8.913   4.435   6.538  0.6335  0.7659  0.0394
31266SOL    HW1 5776   8.995   4.387   6.548 -0.2227 -0.7895 -0.0755
31266SOL    HW2 5777   8.847   4.367   6.524 -0.4146  2.0607 -1.6469
31267SOL     OW 5778   9.939   5.626   5.520  0.1754 -0.7676 -0.1674
31267SOL    HW1 5779  10.031   5.652   5.514 -0.2293  0.4429 -1.8577
31267SOL    HW2 5780   9.941   5.540   5.561  2.0535 -0.6818  0.0015
31268SOL     OW 5781   3.417   5.682   5.285  0.7050 -0.0342 -0.6045
31268SOL    HW1 5782   3.363   5.604   5.268  0.0352  0.1955  0.4081
31268SOL    HW2 5783   3.357   5.744   5.326  1.0010  1.3612 -2.1444
31269SOL     OW 5784   0.946   3.755   1.428 -0.1869  0.0129  0.2034
31269SOL    HW1 5785   0.985   3.841   1.445  0.1443 -0.6440  3.5144
31269SOL    HW2 5786   0.989   3.696   1.491 -2.4858 -1.9366  0.0941
31270SOL     OW 5787   1.839   6.680   1.437 -0.3492 -0.1403  0.3949
31270SOL    HW1 5788   1.782   6.735   1.491  1.0133  0.7831  0.9464
31270SOL    HW2 5789   1.875   6.616   1.499  1.6919  1.2954  0.7933
31271SOL     OW 5790   4.274   8.357   7.183  0.6767 -0.3923 -0.1280
31271SOL    HW1 5791   4.244   8.422   7.120 -0.7452 -2.6478 -1.9536
31271SOL    HW2 5792   4.229   8.379   7.265  2.4949  2.5499  0.2195
31272SOL     OW 5793   8.227   5.444   8.561 -0.1110 -0.1567  0.3324
31272SOL    HW1 5794   8.298   5.381   8.546 -0.4708 -0.6620  0.7257
31272SOL    HW2 5795   8.183   5.413   8.640  1.6956  2.4201  2.5456
31273SOL     OW 5796   5.110   4.546   3.146 -0.7411  0.3600  0.0937
31273SOL    HW1 5797   5.032   4.597   3.123 -0.7324 -0.7426 -2.8291
31273SOL    HW2 5798   5.182   4.589   3.098 -0.1760 -0.5346  0.1176
31274SOL     OW 5799   2.837   7.295   5.777  0.0994  0.0960 -0.7094
31274SOL    HW1 5800   2.833   7.260   5.688 -0.0077 -1.0385 -0.2799
31274SOL    HW2 5801   2.896   7.235   5.824 -1.5630 -0.6617  0.5308
31275SOL     OW 5802   8.594   7.484   2.069  0.5023  0.4876 -0.1241
31275SOL    HW1 5803   8.498   7.488   2.077  0.5542 -0.4334  1.5832
31275SOL    HW2 5804   8.613   7.390   2.062  1.1950  0.7455 -2.8190
31276SOL     OW 5805   4.516   6.831   2.687  0.1330  0.5429  0.6629
31276SOL    HW1 5806   4.510   6.765   2.618  2.2148  0.4739  0.4853
31276SOL    HW2 5807   4.446   6.807   2.748 -1.0063 -0.0769 -0.8263
31277SOL     OW 5808   3.251   0.456   7.345  0.0451  0.2180 -0.1868
31277SOL    HW1 5809   3.221   0.526   7.403  1.0102  0.9735 -0.5617
31277SOL    HW2 5810   3.223   0.485   7.257 -0.5414 -0.4303 -0.2198
31278SOL     OW 5811   4.618   8.897   1.897  0.3279  0.7090  0.1935
31278SOL    HW1 5812   4.580   8.963   1.955 -1.4973 -0.3675  0.3002
31278SOL    HW2 5813   4.563   8.899   1.819  0.9968  0.1539 -0.3043
31279SOL     OW 5814   2.719   5.813   6.841  0.0421 -0.0078  0.2405
31279SOL    HW1 5815   2.702   5.740   6.900 -0.4486  0.4558  0.6770
31279SOL    HW2 5816   2.699   5.891   6.892 -0.3034  0.4044 -0.5077
31280SOL     OW 5817   7.700   6.604   5.439  0.0915  0.5926  0.0348
31280SOL    HW1 5818   7.654   6.659   5.375  1.4687  1.7774  0.0346
31280SOL    HW2 5819   7.631   6.549   5.476 -1.3299  2.2187 -0.0644
31281SOL     OW 5820   2.275   3.469   5.480 -0.1533 -0.0157 -0.0536
31281SOL    HW1 5821   2.267   3.375   5.462 -0.2143  0.0048 -0.1340
31281SOL    HW2 5822   2.365   3.480   5.511  0.3913  0.1675 -1.6570
31282SOL     OW 5823   7.285   4.347   7.260 -0.1512  0.1960  0.0723
31282SOL    HW1 5824   7.295   4.404   7.184  0.5858 -1.0356 -0.7770
31282SOL    HW2 5825   7.361   4.290   7.258 -0.0882  0.1643  1.7825
31283SOL     OW 5826   3.658  10.380   1.551 -0.0789 -0.5064 -0.1125
31283SOL    HW1 5827   3.687  10.356   1.463 -0.7989  0.7519 -0.7236
31283SOL    HW2 5828   3.717  10.332   1.609 -0.1242 -2.0424 -1.2499
31284SOL     OW 5829   8.682   0.850   6.438 -0.2271 -0.0026  0.1744
31284SOL    HW1 5830   8.719   0.884   6.519  1.2861 -0.2498 -0.3777
31284SOL    HW2 5831   8.644   0.927   6.395  1.0286  0.5705  0.0510
31285SOL     OW 5832   7.727   1.070   6.296  0.2658  0.5643  0.3597
31285SOL    HW1 5833   7.645   1.042   6.336 -0.1045  0.4372 -0.4718
31285SOL    HW2 5834   7.719   1.046   6.204  1.9205 -1.0043  0.5606
31286SOL     OW 5835   4.422   6.659   2.467 -0.0118  0.8176  0.1190
31286SOL    HW1 5836   4.495   6.613   2.424 -0.7094 -0.8636  0.6740
31286SOL    HW2 5837   4.353   6.660   2.401 -0.1325  0.7314  0.2457
31287SOL     OW 5838   4.715   4.385   7.674  0.6677 -0.1769 -0.0166
31287SOL    HW1 5839   4.742   4.399   7.765  0.7558  0.0608 -0.0785
31287SOL    HW2 5840   4.666   4.463   7.651  0.3998 -0.3634 -0.0848
31288SOL     OW 5841   7.593   0.085   4.011  0.1334 -0.6287 -0.2105
31288SOL    HW1 5842   7.681   0.123   4.008  1.7441 -3.8329  1.3805
31288SOL    HW2 5843   7.583   0.043   3.926 -0.9456  1.6864 -1.3090
31289SOL     OW 5844   1.546   7.090   6.185  0.5885 -0.0473 -0.3529
31289SOL    HW1 5845   1.518   7.102   6.275 -0.6511 -0.0575 -0.7158
31289SOL    HW2 5846   1.569   6.997   6.179  1.5739  0.1484  0.1704
31290SOL     OW 5847   7.971   7.477   2.684  0.7905 -0.4659  0.9940
31290SOL    HW1 5848   8.048   7.453   2.633 -0.5864 -1.4216 -0.7781
31290SOL    HW2 5849   7.966   7.572   2.676  0.7525 -0.5664 -0.5307
31291SOL     OW 5850   2.424   4.926   7.801 -0.1043 -0.1127 -0.1662
31291SOL    HW1 5851   2.391   4.943   7.889 -1.0351 -1.5966 -0.1959
31291SOL    HW2 5852   2.444   4.832   7.800 -1.6316 -0.4898 -1.9660
31292SOL     OW 5853   7.284   7.109   7.621 -0.2505 -0.5101 -0.6946
31292SOL    HW1 5854   7.334   7.030   7.600  2.7771  0.7600  1.0455
31292SOL    HW2 5855   7.202   7.076   7.659 -0.0635 -2.7399 -2.0330
31293SOL     OW 5856   7.312   1.613  10.277  0.2728 -0.0028  1.0863
31293SOL    HW1 5857   7.366   1.550  10.326  2.2785 -0.9351 -2.0194
31293SOL    HW2 5858   7.342   1.698  10.308  2.9487 -0.5165  0.1863
31294SOL     OW 5859   4.254   0.201   3.993  0.3208  0.2654 -0.0844
31294SOL    HW1 5860   4.244   0.130   4.057  1.4308  0.3208  0.1774
31294SOL    HW2 5861   4.248   0.158   3.908 -0.7866  0.1327  0.0436
31295SOL     OW 5862   1.918   8.843   3.984 -0.2290 -0.1871  0.5550
31295SOL    HW1 5863   1.846   8.906   3.977 -0.1417 -0.1999 -0.7554
31295SOL    HW2 5864   1.875   8.758   3.976 -0.1178 -0.2049  0.0957
31296SOL     OW 5865   9.674   7.977   1.065 -0.2719 -0.0404  0.5003
31296SOL    HW1 5866   9.672   8.020   0.979 -2.0863  0.2279  0.6404
31296SOL    HW2 5867   9.762   7.939   1.071 -0.2741 -0.5197 -1.7059
31297SOL     OW 5868   0.625   9.410   0.970 -0.0857  0.1405  1.0020
31297SOL    HW1 5869   0.622   9.427   1.064  0.4299  0.2185  1.0057
31297SOL    HW2 5870   0.582   9.485   0.930 -1.0422 -0.2814  1.2163
31298SOL     OW 5871   4.717   8.440   1.507 -0.1666  0.1362 -0.9010
31298SOL    HW1 5872   4.691   8.350   1.530  1.9353 -0.4762 -0.7781
31298SOL    HW2 5873   4.716   8.486   1.591 -1.2346  0.2461 -0.9610
31299SOL     OW 5874   5.002   1.101   2.456 -0.6139  0.0616 -0.3183
31299SOL    HW1 5875   5.058   1.065   2.524 -0.3057  0.3401 -0.4232
31299SOL    HW2 5876   4.967   1.182   2.493 -1.3274 -0.3463 -0.0711
31300SOL     OW 5877   4.341   1.532   2.569 -0.5104  0.4126  0.0179
31300SOL    HW1 5878   4.258   1.492   2.595 -0.4830 -1.1612 -2.0304
31300SOL    HW2 5879   4.320   1.583   2.492  0.7003 -1.8802 -1.9704
31301SOL     OW 5880   1.051   3.473   0.637 -0.1398 -0.3207 -0.0724
31301SOL    HW1 5881   0.959   3.449   0.640 -0.1490 -0.2126  0.6850
31301SOL    HW2 5882   1.054   3.561   0.677  0.1798  0.0210 -0.8332
31302SOL     OW 5883   1.926   0.360   4.410 -0.3411 -0.1281 -0.6544
31302SOL    HW1 5884   1.927   0.266   4.431  1.7701  0.1350  0.6397
31302SOL    HW2 5885   2.009   0.376   4.365  0.3223  1.4884  1.0440
31303SOL     OW 5886   5.783   2.993   5.302 -0.2376 -0.0553  0.1016
31303SOL    HW1 5887   5.702   3.017   5.348  1.2499  4.1269  1.0697
31303SOL    HW2 5888   5.815   3.077   5.267  2.7565 -1.8368 -1.8202
31304SOL     OW 5889   9.682   0.499   0.321 -0.4365  0.6364 -0.1891
31304SOL    HW1 5890   9.646   0.493   0.232 -1.3651 -2.1108  0.2608
31304SOL    HW2 5891   9.774   0.478   0.311 -0.9591 -1.8734 -0.3465
31305SOL     OW 5892   8.581   9.060   8.103 -0.0254  0.2869  0.6185
31305SOL    HW1 5893   8.501   9.050   8.051  0.6073 -0.0167 -0.3130
31305SOL    HW2 5894   8.590   8.975   8.147  0.2090  0.0347  0.0965
31306SOL     OW 5895   0.555   1.026   7.506  0.3391 -0.1445 -0.1556
31306SOL    HW1 5896   0.573   1.076   7.427  0.4777  0.2072  0.0976
31306SOL    HW2 5897   0.591   0.939   7.488  2.0991  0.4576  0.2408
31307SOL     OW 5898   7.481  10.285   2.572 -0.4275 -0.0230  0.5988
31307SOL    HW1 5899   7.549  10.327   2.519 -0.8504  0.0668  0.1251
31307SOL    HW2 5900   7.419  10.251   2.508  0.9062 -3.2075  0.8163
31308SOL     OW 5901   2.383   8.456   7.944  0.1918 -0.2937 -0.2784
31308SOL    HW1 5902   2.326   8.443   7.868  0.5689 -1.1888 -0.4232
31308SOL    HW2 5903   2.427   8.372   7.955  0.8581  0.1277  0.3463
31309SOL     OW 5904   7.213   2.743   4.451  0.1266  0.1965 -0.0143
31309SOL    HW1 5905   7.286   2.788   4.408 -0.1120  0.9091  0.3089
31309SOL    HW2 5906   7.152   2.725   4.380  0.3360  0.1614 -0.1875
31310SOL     OW 5907  10.206   3.191   8.445  0.8810  0.2389 -0.4414
31310SOL    HW1 5908  10.144   3.217   8.376 -0.1657 -0.9021  0.0273
31310SOL    HW2 5909  10.284   3.244   8.429 -0.1298  1.5457 -1.1980
31311SOL     OW 5910   9.038   9.634   0.677  0.0710 -0.0210  0.4375
31311SOL    HW1 5911   8.945   9.645   0.658 -0.1833 -0.6294  1.2913
31311SOL    HW2 5912   9.080   9.634   0.590 -0.6422  0.8199  0.0763
31312SOL     OW 5913   1.007   7.482   8.501 -0.0877  0.7135  0.1795
31312SOL    HW1 5914   0.999   7.387   8.494 -0.3074  0.8183 -1.2423
31312SOL    HW2 5915   0.919   7.512   8.523  0.1265  0.5544  1.3252
31313SOL     OW 5916   0.614   6.733   0.333  0.0983 -0.3835  0.1685
31313SOL    HW1 5917   0.610   6.706   0.425  0.5561 -1.4624 -0.1068
31313SOL    HW2 5918   0.658   6.818   0.335 -1.4617  0.4643  1.0828
31314SOL     OW 5919   0.568   5.542   9.220  0.2811 -0.3085 -0.0304
31314SOL    HW1 5920   0.564   5.474   9.287  0.9543 -0.4480 -0.1166
31314SOL    HW2 5921   0.479   5.577   9.214  0.0830 -0.7216  0.4905
31315SOL     OW 5922   7.809   6.970   6.538  0.5941 -0.2183 -0.2401
31315SOL    HW1 5923   7.757   7.042   6.576  2.1575  1.1553 -0.5814
31315SOL    HW2 5924   7.778   6.964   6.447 -0.4815 -0.9313  0.1488
31316SOL     OW 5925   7.991   1.220   7.273  0.1527 -1.1457 -0.5752
31316SOL    HW1 5926   7.997   1.125   7.281 -0.9929 -1.1245  1.5802
31316SOL    HW2 5927   8.020   1.253   7.359  0.4902  0.4539 -1.2658
31317SOL     OW 5928   9.325   3.434   6.071 -0.0458  0.0204  0.1643
31317SOL    HW1 5929   9.379   3.458   5.995  0.1217  0.4353  0.4169
31317SOL    HW2 5930   9.253   3.496   6.070  0.9983  1.3237  1.4929
31318SOL     OW 5931   0.578   2.925   3.937  0.3266 -0.2071  0.4785
31318SOL    HW1 5932   0.498   2.874   3.924  0.4755 -0.7036  1.4498
31318SOL    HW2 5933   0.613   2.895   4.021  1.6791 -0.1924 -0.0492
31319SOL     OW 5934   3.633   8.106   3.622  0.4124 -0.3260  0.0438
31319SOL    HW1 5935   3.659   8.136   3.535  0.0082 -1.8996 -0.6539
31319SOL    HW2 5936   3.701   8.140   3.681  0.6968  0.7464 -0.8655
31320SOL     OW 5937   7.382   9.296   1.003 -0.3986  0.1252 -0.2354
31320SOL    HW1 5938   7.430   9.267   1.080 -0.1046 -0.6798 -0.7086
31320SOL    HW2 5939   7.352   9.384   1.025 -2.2972 -0.8902  1.7407
31321SOL     OW 5940   6.050   6.386   6.441 -0.0281  0.0656 -0.0624
31321SOL    HW1 5941   5.965   6.399   6.485 -1.2172 -0.7340 -2.0066
31321SOL    HW2 5942   6.096   6.324   6.497 -1.2843 -0.5406  0.3334
31322SOL     OW 5943   0.456   1.290   1.282 -0.2901 -0.2362  0.3048
31322SOL    HW1 5944   0.438   1.325   1.195 -0.9394  1.1672  0.9607
31322SOL    HW2 5945   0.440   1.196   1.274  1.6876 -0.4857 -1.5783
31323SOL     OW 5946   8.133   4.808   6.971 -0.3956 -0.4997 -0.0550
31323SOL    HW1 5947   8.068   4.738   6.976 -1.4108  0.4711  0.6056
31323SOL    HW2 5948   8.116   4.851   6.887 -1.2026  0.3012  0.5026
31324SOL     OW 5949   8.934   9.112   1.428 -0.3880 -0.0998  0.2598
31324SOL    HW1 5950   8.952   9.019   1.412  0.5527  0.0724  0.2733
31324SOL    HW2 5951   8.884   9.139   1.351 -1.2592 -0.7717  0.5721
31325SOL     OW 5952  10.231   4.000   2.377 -0.0673  0.0795  0.6989
31325SOL    HW1 5953  10.308   3.956   2.413  1.6178  0.5857 -2.0063
31325SOL    HW2 5954  10.255   4.093   2.375 -0.9354  0.3045  0.2458
31326SOL     OW 5955   7.553   2.108   6.367 -0.4510  0.4635 -0.2894
31326SOL    HW1 5956   7.552   2.035   6.429 -0.6714 -0.6333 -1.5234
31326SOL    HW2 5957   7.644   2.139   6.367  0.0459 -0.8925 -0.9121
31327SOL     OW 5958   5.003   4.882   6.653 -0.0784  0.4411  0.1301
31327SOL    HW1 5959   5.053   4.904   6.575  2.0411  0.1612  1.3291
31327SOL    HW2 5960   4.997   4.787   6.653 -0.7349  0.4741 -0.0502
31328SOL     OW 5961   3.196   4.746   2.245  0.2485 -0.1374 -1.2007
31328SOL    HW1 5962   3.265   4.812   2.242  0.1542  0.2557  1.7981
31328SOL    HW2 5963   3.228   4.680   2.307 -1.4225 -0.7085 -0.8822
31329SOL     OW 5964   8.055   3.276   8.079 -0.7164  0.0583  0.2381
31329SOL    HW1 5965   8.014   3.197   8.115 -1.9161  0.8918  0.7569
31329SOL    HW2 5966   8.031   3.275   7.987 -1.6825  0.3819  0.4742
31330SOL     OW 5967   2.344   3.275   4.790  0.1472 -0.2288  0.3245
31330SOL    HW1 5968   2.412   3.281   4.722 -0.4207  0.1328 -0.2181
31330SOL    HW2 5969   2.358   3.189   4.830  0.0470 -0.7487 -0.7191
31331SOL     OW 5970   7.552   8.041   1.078  0.4923  0.1946  0.1608
31331SOL    HW1 5971   7.639   8.045   1.119  0.6909 -1.7930  0.0379
31331SOL    HW2 5972   7.570   8.043   0.984  0.2391  1.8318  0.1298
31332SOL     OW 5973   8.832   1.718   2.756 -0.2218  0.3906  0.1449
31332SOL    HW1 5974   8.795   1.631   2.741  0.3889 -0.2713  2.0873
31332SOL    HW2 5975   8.760   1.770   2.791  0.2954 -0.6226  3.0138
31333SOL     OW 5976   6.766   9.392   7.308  0.4011  0.7153 -0.3189
31333SOL    HW1 5977   6.798   9.314   7.261  0.4728  0.4929  0.0931
31333SOL    HW2 5978   6.803   9.383   7.395 -1.9236 -0.3119  0.6521
31334SOL     OW 5979   6.162   7.443   7.052 -0.3647  0.2943 -0.1414
31334SOL    HW1 5980   6.156   7.479   6.964 -0.6223  1.6849  0.4119
31334SOL    HW2 5981   6.255   7.429   7.067 -0.3944 -1.1836 -1.0698
31335SOL     OW 5982   7.009   9.515   5.140 -0.2465 -0.7643  0.0402
31335SOL    HW1 5983   7.002   9.610   5.154 -1.2280 -0.8256  0.0195
31335SOL    HW2 5984   6.944   9.477   5.199  1.5168 -1.5734  1.5456
31336SOL     OW 5985   5.993   0.352   8.180  0.2953 -0.2348 -0.0572
31336SOL    HW1 5986   5.906   0.313   8.167  0.3396 -0.5747  0.6280
31336SOL    HW2 5987   5.981   0.414   8.252  0.3881  0.5085 -0.6727
31337SOL     OW 5988  10.265   1.141   9.822 -0.2372  0.2223  0.2787
31337SOL    HW1 5989  10.248   1.140   9.728 -0.0469  2.2214  0.1762
31337SOL    HW2 5990  10.179   1.137   9.863 -0.3158 -0.7041  0.0372
31338SOL     OW 5991   4.245   3.767   7.760  0.1648  0.0120 -0.3897
31338SOL    HW1 5992   4.206   3.683   7.738 -0.4050 -0.0279  0.6602
31338SOL    HW2 5993   4.171   3.829   7.758  0.4853  0.3914 -0.6642
31339SOL     OW 5994   7.785   8.085  10.145  0.6551 -0.1741  0.3123
31339SOL    HW1 5995   7.820   8.129  10.067  0.8249 -0.4272  0.2477
31339SOL    HW2 5996   7.849   8.017  10.166  0.0280 -0.8852 -0.0279
31340SOL     OW 5997   1.472   4.849   5.540 -0.1156  0.0005  0.2990
31340SOL    HW1 5998   1.421   4.782   5.585 -0.8106  0.0595 -0.3912
31340SOL    HW2 5999   1.496   4.911   5.610 -0.9509 -0.0513  0.6427
31341SOL     OW 6000  10.170   8.993   8.522  0.0589 -0.0378 -0.0133
31341SOL    HW1 6001  10.211   9.079   8.515 -0.6283  0.1678 -2.3318
31341SOL    HW2 6002  10.199   8.945   8.444 -3.2773 -0.1514 -1.3720
31342SOL     OW 6003   5.483   0.086   2.347 -0.1280 -0.0428  0.3893
31342SOL    HW1 6004   5.506   0.173   2.314 -0.7503 -0.0344 -0.0324
31342SOL    HW2 6005   5.566   0.039   2.347  0.3463  0.7591  1.3028
31343SOL     OW 6006   0.303   1.492   0.613 -0.1672 -0.3096  0.1617
31343SOL    HW1 6007   0.226   1.462   0.660 -1.6965  0.6210 -1.6056
31343SOL    HW2 6008   0.324   1.420   0.553  0.4798 -0.6423  0.7778
31344SOL     OW 6009   8.808   8.498   2.305 -0.3928  0.2625  0.0460
31344SOL    HW1 6010   8.787   8.534   2.391 -0.9842  0.5425 -0.2155
31344SOL    HW2 6011   8.739   8.530   2.247 -2.3394 -3.0997  0.2279
31345SOL     OW 6012   9.797   6.197   0.158  0.4117  0.2816 -0.0287
31345SOL    HW1 6013   9.781   6.204   0.253 -0.2422 -1.6927  0.0379
31345SOL    HW2 6014   9.723   6.244   0.119  0.6758  1.0998  0.4227
31346SOL     OW 6015   6.751   9.279   4.100  0.2551 -0.1378  0.0876
31346SOL    HW1 6016   6.746   9.186   4.121  1.6963 -0.2485  0.0503
31346SOL    HW2 6017   6.704   9.287   4.017  1.9161 -1.2472 -1.0304
31347SOL     OW 6018   1.822   5.106   0.651  0.6842 -0.2580  0.6866
31347SOL    HW1 6019   1.796   5.175   0.711  0.3738 -0.1342  0.4134
31347SOL    HW2 6020   1.758   5.036   0.664  0.3930 -0.0829  0.2457
31348SOL     OW 6021   9.618   6.459   6.833 -0.0266  0.1081  0.0519
31348SOL    HW1 6022   9.595   6.372   6.866  1.3578 -0.0190  0.7448
31348SOL    HW2 6023   9.703   6.447   6.791  1.5915  1.5848  2.5809
31349SOL     OW 6024   9.777   5.537   4.138 -0.0792 -0.1046  0.3437
31349SOL    HW1 6025   9.844   5.497   4.082  1.0116  0.9170  0.8833
31349SOL    HW2 6026   9.739   5.464   4.186 -0.0131 -0.8146 -0.6567
31350SOL     OW 6027   2.620   2.176   7.726 -0.5040  0.0804 -0.3521
31350SOL    HW1 6028   2.699   2.208   7.770 -0.9929  1.7784 -0.6348
31350SOL    HW2 6029   2.595   2.098   7.775  0.6689  0.2079  0.4953
31351SOL     OW 6030   8.380   0.070   2.324 -0.0242 -0.0515 -0.2154
31351SOL    HW1 6031   8.433   0.046   2.248  2.8040  0.7027  1.3782
31351SOL    HW2 6032   8.373  -0.011   2.375 -0.8555 -0.2496 -0.6112
31352SOL     OW 6033   7.934   0.949   6.383  0.2028  0.4078  0.6835
31352SOL    HW1 6034   7.899   0.861   6.365  0.4969  0.3359  0.4599
31352SOL    HW2 6035   7.861   1.008   6.366  0.5450  0.3665 -1.0200
31353SOL     OW 6036   2.387   0.727   9.271  0.7213  0.4156 -0.3447
31353SOL    HW1 6037   2.434   0.681   9.202  0.1127 -1.5709  0.4801
31353SOL    HW2 6038   2.413   0.682   9.352 -1.5513  0.0599  0.2666
31354SOL     OW 6039   1.226   9.620   3.135 -0.2154  0.1385 -0.3507
31354SOL    HW1 6040   1.262   9.706   3.156 -0.3109  1.1403 -3.7091
31354SOL    HW2 6041   1.177   9.595   3.213  2.0527  1.8172  1.7965
31355SOL     OW 6042   6.854   2.547   6.789 -0.6179 -0.4991 -0.2556
31355SOL    HW1 6043   6.783   2.518   6.846 -1.7925 -0.1934 -1.5354
31355SOL    HW2 6044   6.816   2.549   6.701  1.4930 -2.2158 -1.3093
31356SOL     OW 6045   2.457   7.262   6.173  0.0114 -0.0367 -0.4520
31356SOL    HW1 6046   2.521   7.209   6.220 -0.1038 -0.5055 -0.8229
31356SOL    HW2 6047   2.503   7.294   6.096  0.3706  1.1902  0.2346
31357SOL     OW 6048   2.562   3.235   6.535  0.2462  0.0433  0.5866
31357SOL    HW1 6049   2.469   3.228   6.554 -0.1951  0.8972 -1.1590
31357SOL    HW2 6050   2.587   3.148   6.504 -0.8227  0.6880 -2.3573
31358SOL     OW 6051   6.900   2.795   5.764  0.3315 -0.1550 -0.3329
31358SOL    HW1 6052   6.940   2.823   5.847  0.4573 -0.1918 -0.3803
31358SOL    HW2 6053   6.944   2.848   5.698 -1.2476  1.4257 -0.1925
31359SOL     OW 6054   6.916   9.741   1.834  0.1725 -0.4209 -0.0734
31359SOL    HW1 6055   6.859   9.675   1.795 -1.7022  0.3780  1.1288
31359SOL    HW2 6056   6.918   9.812   1.769 -3.3633  1.1329  1.2622
31360SOL     OW 6057   2.789   4.483   7.189 -0.2233  0.2584 -0.0612
31360SOL    HW1 6058   2.833   4.508   7.270 -1.2841 -0.2105  0.6813
31360SOL    HW2 6059   2.815   4.551   7.126  0.9850  0.3690  0.5212
31361SOL     OW 6060   1.072   0.710   3.723  0.5301  0.6506 -0.4815
31361SOL    HW1 6061   1.041   0.622   3.702  1.1896  0.2937  0.0351
31361SOL    HW2 6062   1.098   0.705   3.815  2.1812  0.9196 -0.9016
31362SOL     OW 6063   5.876   1.089  10.102  0.3452 -0.1674 -0.3488
31362SOL    HW1 6064   5.938   1.018  10.085  0.4369 -0.1206 -0.2112
31362SOL    HW2 6065   5.871   1.093  10.198  0.2569 -0.0606 -0.3584
31363SOL     OW 6066   5.821   7.911   2.457  0.2391  0.5311 -0.1327
31363SOL    HW1 6067   5.904   7.929   2.501  1.8373 -0.7653 -2.4060
31363SOL    HW2 6068   5.787   7.833   2.501  1.0267  0.1564 -0.1718
31364SOL     OW 6069   4.940   8.821   8.979  0.0677 -0.3045 -0.2083
31364SOL    HW1 6070   4.931   8.742   8.925  1.1445  0.1656 -1.1093
31364SOL    HW2 6071   4.891   8.888   8.932  0.8689  0.0641 -0.5315
31365SOL     OW 6072   1.954   4.563   8.031  0.0033  0.2914 -0.4297
31365SOL    HW1 6073   1.919   4.499   8.093  1.2752 -0.4869 -0.4796
31365SOL    HW2 6074   2.031   4.600   8.075  0.7041 -0.0021 -1.3752
31366SOL     OW 6075   6.384   9.253   1.196 -0.0340  0.6613  0.4731
31366SOL    HW1 6076   6.464   9.210   1.165  0.5788  1.2194  1.2542
31366SOL    HW2 6077   6.313   9.210   1.147  0.6348 -0.6200  0.5878
31367SOL     OW 6078   3.705  10.121   7.753  0.1844  0.5929 -0.1285
31367SOL    HW1 6079   3.713  10.199   7.808 -0.1811  0.9271 -0.5421
31367SOL    HW2 6080   3.791  10.111   7.713  1.2381 -1.0644  2.3362
31368SOL     OW 6081   2.371   3.309   1.545 -0.0113  0.2671 -0.7090
31368SOL    HW1 6082   2.334   3.227   1.511 -0.8194  0.3705 -0.1150
31368SOL    HW2 6083   2.465   3.301   1.530 -0.1126 -0.6500 -0.9184
31369SOL     OW 6084   1.035   3.949   6.390 -0.2365  0.0235 -0.4198
31369SOL    HW1 6085   1.080   4.031   6.413 -0.0209 -0.1737 -0.1362
31369SOL    HW2 6086   1.047   3.942   6.295 -2.2840  1.5171 -0.8499
31370SOL     OW 6087   9.583   1.268   4.344 -0.4638 -0.2718 -0.3318
31370SOL    HW1 6088   9.585   1.227   4.431 -1.8456 -1.0808 -0.6376
31370SOL    HW2 6089   9.513   1.222   4.298  0.3447  0.0325 -1.9434
31371SOL     OW 6090   3.902   0.895   1.234  0.0149  0.4992 -0.0056
31371SOL    HW1 6091   3.826   0.841   1.253  0.6989 -1.3396 -2.0873
31371SOL    HW2 6092   3.969   0.865   1.296 -0.3191  0.6237  0.4154
31372SOL     OW 6093   4.569   2.677   5.475  0.2950 -0.4232 -0.1127
31372SOL    HW1 6094   4.522   2.724   5.544  1.7923 -0.8221  1.2406
31372SOL    HW2 6095   4.635   2.739   5.444  1.0814 -0.9806  0.4054
31373SOL     OW 6096   7.336   9.030   8.040  0.3795 -0.2172 -0.3280
31373SOL    HW1 6097   7.271   8.968   8.073 -0.9360  1.2692 -0.0079
31373SOL    HW2 6098   7.413   9.014   8.095 -0.4986 -0.4313  0.9052
31374SOL     OW 6099   8.640   7.900   5.820  0.0061 -0.1236  0.2080
31374SOL    HW1 6100   8.593   7.823   5.853 -0.2099  0.1156  0.4586
31374SOL    HW2 6101   8.724   7.865   5.790  0.1573 -0.3669  0.8953
31375SOL     OW 6102   4.260   8.514   5.938  0.1664  0.1136  0.4700
31375SOL    HW1 6103   4.185   8.460   5.916  0.6346 -0.5829  0.5649
31375SOL    HW2 6104   4.309   8.521   5.856 -0.7325  1.7793  0.0229
31376SOL     OW 6105   9.879   2.281   5.761 -0.1111  0.2442 -0.4432
31376SOL    HW1 6106   9.827   2.317   5.832  1.7602  2.0269  0.1249
31376SOL    HW2 6107   9.885   2.352   5.696  0.8948 -0.1838 -0.8519
31377SOL     OW 6108   9.124   1.005   3.440 -0.0414 -0.0451 -0.0796
31377SOL    HW1 6109   9.126   1.026   3.534  0.8661 -1.7481  0.3306
31377SOL    HW2 6110   9.211   1.029   3.408 -0.1775  0.0623 -0.3662
31378SOL     OW 6111   1.770   9.835   4.078 -0.3751  0.4571 -0.4530
31378SOL    HW1 6112   1.699   9.870   4.131  1.8513  1.6528  1.9433
31378SOL    HW2 6113   1.848   9.842   4.133  1.6471 -0.8138 -2.9115
31379SOL     OW 6114   7.641   1.776   5.309 -0.5515 -0.5098  0.2616
31379SOL    HW1 6115   7.605   1.806   5.226  1.5155 -0.6056 -0.7535
31379SOL    HW2 6116   7.695   1.849   5.339 -1.2251 -0.5014  1.5196
31380SOL     OW 6117   3.837   5.966   8.676  0.0848  0.7195  0.4663
31380SOL    HW1 6118   3.796   6.053   8.670 -1.5276  0.0190  0.9158
31380SOL    HW2 6119   3.774   5.913   8.724  0.6531 -0.9493 -0.5622
31381SOL     OW 6120   9.372   3.586   8.085 -0.5136  0.6308 -0.5406
31381SOL    HW1 6121   9.441   3.549   8.140 -1.3254 -1.2584 -0.7049
31381SOL    HW2 6122   9.412   3.597   7.999 -0.0511  0.8538 -0.3019
31382SOL     OW 6123   3.986   6.578   6.184  0.3648  0.3458  0.1791
31382SOL    HW1 6124   3.909   6.559   6.238  0.1281  3.0855  0.9306
31382SOL    HW2 6125   3.955   6.643   6.121  1.5082 -0.2998 -1.1070
31383SOL     OW 6126   0.039   0.225   1.371 -0.2252  0.2840 -0.1263
31383SOL    HW1 6127   0.060   0.206   1.462  2.3237  2.1218 -0.2199
31383SOL    HW2 6128   0.088   0.160   1.321 -1.8192 -0.8814 -0.2343
31384SOL     OW 6129   7.304   3.569   6.477  0.1318  0.2049 -0.3815
31384SOL    HW1 6130   7.239   3.620   6.526 -0.3008  0.1795 -0.9156
31384SOL    HW2 6131   7.252   3.515   6.417  0.6576  0.4137 -1.0403
31385SOL     OW 6132   3.125   8.694   8.757  0.6203  0.0233 -0.6413
31385SOL    HW1 6133   3.199   8.754   8.751  0.0525  0.7199 -0.8923
31385SOL    HW2 6134   3.055   8.747   8.794 -0.0584 -0.3145 -1.4051
31386SOL     OW 6135   3.008  10.273   6.589 -0.2427  0.3592 -0.1067
31386SOL    HW1 6136   3.059  10.260   6.669  1.1623 -1.2538 -1.1969
31386SOL    HW2 6137   2.985  10.366   6.591 -2.5931 -0.0862  3.4316
31387SOL     OW 6138   0.075   0.526   2.916  0.0757 -0.3051 -0.0143
31387SOL    HW1 6139  -0.006   0.484   2.945 -0.5514  1.0241  0.2307
31387SOL    HW2 6140   0.059   0.547   2.824  0.0593  0.1280  0.0845
31388SOL     OW 6141   6.477   9.636   0.845 -0.1075  0.0586  0.1524
31388SOL    HW1 6142   6.432   9.590   0.916 -0.9818 -0.0450 -0.4566
31388SOL    HW2 6143   6.566   9.599   0.845  0.6868  1.7136  2.7117
31389SOL     OW 6144   1.572   1.395   5.888  0.2662 -0.3711 -0.1824
31389SOL    HW1 6145   1.637   1.350   5.941 -1.0968 -1.2569  0.7873
31389SOL    HW2 6146   1.624   1.450   5.829  1.8776 -0.9830  0.5985
31390SOL     OW 6147   7.395   9.283   8.257 -0.0387 -0.1954 -0.4209
31390SOL    HW1 6148   7.439   9.221   8.198 -1.1369 -1.2356 -0.1783
31390SOL    HW2 6149   7.467   9.334   8.294  0.9554 -1.5415 -0.3763
31391SOL     OW 6150   4.890   9.937   8.870 -0.2676  0.3004 -0.0103
31391SOL    HW1 6151   4.839   9.872   8.918  0.3103 -0.4988 -0.4479
31391SOL    HW2 6152   4.952   9.885   8.818  1.8671  1.2426  1.4440
31392SOL     OW 6153   6.647   3.988  10.369 -0.4218  0.2093 -0.7928
31392SOL    HW1 6154   6.637   3.907  10.419  1.2932  0.6762  0.4391
31392SOL    HW2 6155   6.685   4.050  10.432  0.8910  1.1442 -2.4016
31393SOL     OW 6156   8.138   6.554   7.106 -0.2724 -0.2755  0.4677
31393SOL    HW1 6157   8.178   6.468   7.095  1.0340  0.2040  1.1073
31393SOL    HW2 6158   8.211   6.615   7.095 -0.5641  0.6034  2.8523
31394SOL     OW 6159   9.363   5.949   2.998  0.4729  0.1892  0.1587
31394SOL    HW1 6160   9.322   5.908   2.921 -1.0319  0.1798  0.9215
31394SOL    HW2 6161   9.410   5.878   3.042 -0.1722 -0.2085  0.2160
31395SOL     OW 6162   0.236   1.182   3.228 -0.4551 -0.4609 -0.4329
31395SOL    HW1 6163   0.247   1.089   3.249 -2.3784 -0.6262  0.0556
31395SOL    HW2 6164   0.143   1.198   3.241 -0.5940  0.9904 -2.7832
31396SOL     OW 6165   9.191   1.070   9.830 -0.0559  0.3486  0.1431
31396SOL    HW1 6166   9.115   1.044   9.883 -0.9055 -0.0215 -1.2001
31396SOL    HW2 6167   9.220   0.989   9.788 -0.6513  0.9291 -1.4793
31397SOL     OW 6168  10.077   3.043   8.882  0.4781  0.2142 -0.3004
31397SOL    HW1 6169  10.098   2.949   8.875 -1.2247 -0.0829 -2.4444
31397SOL    HW2 6170  10.156   3.087   8.851  0.5226 -0.5887 -1.3851
31398SOL     OW 6171   2.571   3.070   2.209  0.5310  0.4236  0.0658
31398SOL    HW1 6172   2.532   3.080   2.296 -0.9400 -3.4912  0.0565
31398SOL    HW2 6173   2.504   3.027   2.157  2.8578 -1.3397 -1.7098
31399SOL     OW 6174   2.010   8.070   9.450 -0.3468  0.3889 -0.6266
31399SOL    HW1 6175   2.076   8.132   9.481  0.2925 -1.0877  1.0748
31399SOL    HW2 6176   2.052   7.984   9.456 -0.8606 -0.2244 -3.8767
31400SOL     OW 6177   3.806   5.313  10.275 -0.6792 -0.1189 -0.0783
31400SOL    HW1 6178   3.759   5.337  10.355 -2.8072 -0.5119 -1.1417
31400SOL    HW2 6179   3.751   5.347  10.204  0.3749 -1.1069 -1.4120
31401SOL     OW 6180   6.651   7.220   6.847 -0.0626 -0.7000  0.4164
31401SOL    HW1 6181   6.570   7.269   6.831  0.5547  0.2365  0.0821
31401SOL    HW2 6182   6.697   7.221   6.763  1.1546  0.4182  1.0551
31402SOL     OW 6183   6.476   7.466   0.051  0.5985 -0.4263  0.8279
31402SOL    HW1 6184   6.540   7.537   0.052  0.3730 -0.2259  1.2257
31402SOL    HW2 6185   6.462   7.445   0.143  0.6800 -1.0052  0.7095
31403SOL     OW 6186   9.481   6.614   1.916 -0.1858 -0.3317 -0.3417
31403SOL    HW1 6187   9.453   6.539   1.968 -0.1375  0.6878  1.2652
31403SOL    HW2 6188   9.400   6.653   1.884 -0.3594  0.0887  0.5729
31404SOL     OW 6189  10.047   3.918   7.854  0.2430 -0.1861  0.2723
31404SOL    HW1 6190  10.011   3.902   7.767 -2.9212  1.1064  1.1817
31404SOL    HW2 6191   9.970   3.916   7.912  1.8824  1.3703  2.6924
31405SOL     OW 6192   3.484   6.962   3.693  0.1843  0.1439 -0.1088
31405SOL    HW1 6193   3.477   7.058   3.695 -0.8187  0.0836 -0.0553
31405SOL    HW2 6194   3.418   6.932   3.756  0.5396 -0.5805 -0.0751
31406SOL     OW 6195   5.643   0.563   0.713 -0.0337  0.3098  0.3205
31406SOL    HW1 6196   5.562   0.530   0.675  0.6733 -0.5353 -0.5033
31406SOL    HW2 6197   5.665   0.499   0.781 -0.6796  1.1945  1.4011
31407SOL     OW 6198   0.108   5.826   5.038 -0.4162 -0.1455  0.1927
31407SOL    HW1 6199   0.034   5.866   4.992  0.1091 -2.1576 -2.6596
31407SOL    HW2 6200   0.181   5.835   4.977  0.4823 -2.4595  0.8430
31408SOL     OW 6201   2.897   1.334   0.399  0.3919  0.4797  0.1326
31408SOL    HW1 6202   2.952   1.337   0.477 -0.2676  2.8130  0.5790
31408SOL    HW2 6203   2.900   1.423   0.363 -1.8531  0.3002 -0.6892
31409SOL     OW 6204   6.128   2.556   7.281  0.2146  0.6431  0.7300
31409SOL    HW1 6205   6.050   2.510   7.251  0.6536  0.4446 -0.1295
31409SOL    HW2 6206   6.095   2.627   7.335 -0.6474  1.6017 -0.9977
31410SOL     OW 6207   7.030   0.964   7.273 -0.4636  0.2532  0.1967
31410SOL    HW1 6208   7.024   0.870   7.291 -0.4201  0.1079 -0.5289
31410SOL    HW2 6209   6.961   1.003   7.328 -0.1100 -0.1292  0.9367
31411SOL     OW 6210   3.382   0.785   5.582 -0.5492 -0.0046 -0.0481
31411SOL    HW1 6211   3.334   0.868   5.587 -0.0469  0.4250 -1.7441
31411SOL    HW2 6212   3.472   0.809   5.607 -0.8522 -0.5289  1.7138
31412SOL     OW 6213   7.606   1.409   2.903  0.2083 -0.0549  0.0106
31412SOL    HW1 6214   7.595   1.314   2.896 -0.4455 -0.0449  0.7335
31412SOL    HW2 6215   7.557   1.444   2.829 -0.0921 -0.2522  0.1155
31413SOL     OW 6216   0.115   0.045   8.854  0.2140  0.1538 -0.1479
31413SOL    HW1 6217   0.120   0.072   8.946  3.1607  0.3511 -0.2931
31413SOL    HW2 6218   0.155  -0.042   8.853 -1.0180 -0.4417 -1.0976
31414SOL     OW 6219  10.263   7.039   7.016 -0.2925 -0.7671 -0.9174
31414SOL    HW1 6220  10.329   7.078   6.959  0.0086  2.4090  1.3398
31414SOL    HW2 6221  10.305   6.962   7.053  2.8955  1.8828  1.5058
31415SOL     OW 6222   3.790   1.662  10.279  0.3678  0.2276  0.0985
31415SOL    HW1 6223   3.817   1.597  10.344  2.8674 -0.5783 -1.5960
31415SOL    HW2 6224   3.722   1.618  10.228 -2.0679  1.0767  2.3475
31416SOL     OW 6225   3.869   9.517   6.890  0.2187 -0.6935 -0.6267
31416SOL    HW1 6226   3.788   9.517   6.940  1.4260 -1.7049  1.4885
31416SOL    HW2 6227   3.916   9.595   6.920  1.0046 -1.3675 -0.0555
31417SOL     OW 6228  10.367   4.412   6.105  0.1848 -0.2231 -0.0715
31417SOL    HW1 6229  10.402   4.347   6.166 -2.3385 -0.3327  1.3637
31417SOL    HW2 6230  10.325   4.360   6.036  2.0098 -0.0818 -1.3670
31418SOL     OW 6231   1.623   8.454   7.637 -0.6311 -0.3186 -0.1715
31418SOL    HW1 6232   1.540   8.502   7.642 -1.5921 -1.7954 -1.3247
31418SOL    HW2 6233   1.640   8.444   7.543  0.9343  0.0400  0.0367
31419SOL     OW 6234   5.232   0.769   4.514  0.0368  0.1456  0.1174
31419SOL    HW1 6235   5.316   0.757   4.559 -0.2206  2.0655  1.2612
31419SOL    HW2 6236   5.169   0.725   4.571  0.1172 -0.3123 -0.1429
31420SOL     OW 6237   1.952   6.130   0.787  0.5286 -0.0034  0.4386
31420SOL    HW1 6238   1.991   6.214   0.812 -1.0666  0.3128  2.0454
31420SOL    HW2 6239   1.873   6.154   0.738  1.2118 -0.6182 -1.0305
31421SOL     OW 6240   5.712   8.723   0.098 -0.2536  0.4550  0.2128
31421SOL    HW1 6241   5.720   8.817   0.114 -0.8357  0.2869  1.6237
31421SOL    HW2 6242   5.619   8.704   0.112 -0.7428  0.1091 -2.8181
31422SOL     OW 6243   4.831   6.389   7.864  0.1986 -0.0783  0.1891
31422SOL    HW1 6244   4.907   6.429   7.822 -0.1325 -0.2640 -0.6205
31422SOL    HW2 6245   4.783   6.349   7.791  0.7820 -2.3776  0.9831
31423SOL     OW 6246   3.292   4.376  10.275  0.3182 -0.1728  0.0711
31423SOL    HW1 6247   3.296   4.281  10.286 -0.9528 -0.1379  1.0536
31423SOL    HW2 6248   3.265   4.408  10.361 -0.4346  0.9882 -0.5844
31424SOL     OW 6249   6.600   6.547   8.274 -0.1963  0.1770  0.0576
31424SOL    HW1 6250   6.534   6.602   8.232  0.6587  2.4969  1.5665
31424SOL    HW2 6251   6.580   6.553   8.367  0.9057 -0.8193  0.3820
31425SOL     OW 6252   7.028   7.972  10.309 -0.4215  0.1287  0.5116
31425SOL    HW1 6253   7.074   7.985  10.392  1.1584 -0.6993 -0.1994
31425SOL    HW2 6254   7.051   8.049  10.257  1.9065 -1.1974 -0.5722
31426SOL     OW 6255   9.970   7.515   1.691  0.4548  0.2246  0.0207
31426SOL    HW1 6256   9.877   7.524   1.674  0.2891  0.7348  1.0914
31426SOL    HW2 6257  10.010   7.510   1.604 -0.6452 -1.0570 -0.4516
31427SOL     OW 6258   6.859   6.685   0.628 -0.2257 -0.3335  0.4737
31427SOL    HW1 6259   6.831   6.771   0.598 -0.4344  0.0646  1.7597
31427SOL    HW2 6260   6.897   6.701   0.714  0.9235 -1.3518  0.1740
31428SOL     OW 6261   3.089   8.802   7.131 -0.2514  0.3545 -0.2079
31428SOL    HW1 6262   3.105   8.819   7.224 -0.5552 -2.4758  0.4610
31428SOL    HW2 6263   2.994   8.790   7.124  0.0401 -4.5744  0.3575
31429SOL     OW 6264   4.106   0.342   9.711 -0.0675  0.1176  0.3350
31429SOL    HW1 6265   4.078   0.348   9.619 -0.6146  1.2258  0.5497
31429SOL    HW2 6266   4.137   0.252   9.721  2.1038  0.5603 -1.5142
31430SOL     OW 6267   4.324   0.471   8.311 -0.0895  0.0589  0.4256
31430SOL    HW1 6268   4.268   0.436   8.380  0.3631 -0.1547  0.6938
31430SOL    HW2 6269   4.390   0.403   8.296 -1.1868 -0.6505 -1.4689
31431SOL     OW 6270   2.912   0.638   0.475  0.0100  0.0419  0.5321
31431SOL    HW1 6271   2.901   0.673   0.386 -0.0453  0.2844  0.6329
31431SOL    HW2 6272   2.935   0.714   0.528  0.5715 -0.1887  0.6285
31432SOL     OW 6273   7.476   8.810   9.945 -0.6468 -0.3129  0.4656
31432SOL    HW1 6274   7.448   8.771   9.862  2.4734 -1.1776 -0.3312
31432SOL    HW2 6275   7.442   8.899   9.943 -1.5406 -0.6472 -1.2109
31433SOL     OW 6276   1.896   2.840   4.212  0.1374  0.3918 -0.1327
31433SOL    HW1 6277   1.916   2.916   4.267 -1.3029  0.4969  0.2879
31433SOL    HW2 6278   1.828   2.794   4.260  0.6170 -0.8855 -0.6490
31434SOL     OW 6279   3.465   4.536   4.673 -0.1184  0.1110  0.5092
31434SOL    HW1 6280   3.373   4.537   4.700 -0.1595 -0.2822  0.3852
31434SOL    HW2 6281   3.493   4.627   4.683 -0.7618  0.4165 -0.2912
31435SOL     OW 6282   3.325   2.044   2.460  0.4393  0.1894 -0.0301
31435SOL    HW1 6283   3.328   2.046   2.365 -2.7287  0.5996 -0.2574
31435SOL    HW2 6284   3.379   2.118   2.487  1.1866  0.2149 -1.5087
31436SOL     OW 6285   2.320   0.630   5.391 -0.2510 -0.4933 -0.7113
31436SOL    HW1 6286   2.229   0.606   5.408 -0.8550  2.0092 -0.1145
31436SOL    HW2 6287   2.320   0.658   5.299 -0.2755  0.2806 -0.4799
31437SOL     OW 6288   4.912   7.336   8.350 -0.1590  0.2218  0.0624
31437SOL    HW1 6289   4.960   7.383   8.419  1.2197 -1.1042  0.0453
31437SOL    HW2 6290   4.827   7.316   8.390  0.0496  0.7996  0.8252
31438SOL     OW 6291   9.729   4.501   5.701 -0.2067 -0.0302 -0.3783
31438SOL    HW1 6292   9.814   4.541   5.721 -0.6444 -0.1070  1.9113
31438SOL    HW2 6293   9.751   4.419   5.657  0.8192  0.8502 -1.5687
31439SOL     OW 6294   1.496   6.417   3.699 -0.3829 -0.6102 -0.2119
31439SOL    HW1 6295   1.573   6.465   3.730  0.6947 -0.8572 -2.3167
31439SOL    HW2 6296   1.496   6.337   3.751 -0.4510  0.2877  1.2370
31440SOL     OW 6297   3.292  10.216   1.010 -1.4686  0.2231 -0.4165
31440SOL    HW1 6298   3.324  10.139   0.963  1.6129  0.7915  0.4928
31440SOL    HW2 6299   3.282  10.186   1.100 -0.2969  0.8144 -0.0659
31441SOL     OW 6300   0.561   3.287   9.752 -0.0411 -0.4020  0.3658
31441SOL    HW1 6301   0.493   3.236   9.707 -0.0025  0.1571 -0.3517
31441SOL    HW2 6302   0.579   3.238   9.832 -0.7898 -0.9293  0.2244
31442SOL     OW 6303   2.249   8.153   4.061 -0.6954 -0.0981  0.1775
31442SOL    HW1 6304   2.211   8.214   3.999 -0.9829 -0.7580 -0.3124
31442SOL    HW2 6305   2.334   8.129   4.024  0.2240  1.3484  1.2563
31443SOL     OW 6306   1.489   1.031   6.831  0.0474 -0.1284  0.4170
31443SOL    HW1 6307   1.581   1.010   6.845 -0.1283 -1.4553 -0.2461
31443SOL    HW2 6308   1.442   0.951   6.857 -1.1192  1.2356  2.9043
31444SOL     OW 6309   1.834  10.327   7.411 -0.0322 -0.2403  0.3230
31444SOL    HW1 6310   1.904  10.283   7.364 -0.3047  1.0491 -1.3830
31444SOL    HW2 6311   1.856  10.316   7.503  1.1167 -1.9041 -0.1101
31445SOL     OW 6312   8.496   1.451   0.482 -0.3117  0.3537 -0.0386
31445SOL    HW1 6313   8.508   1.387   0.412 -0.1131  0.3958 -0.0439
31445SOL    HW2 6314   8.435   1.410   0.542 -0.4514  0.3002 -0.2161
31446SOL     OW 6315   5.286   8.969   1.798  0.2314  0.2490  0.4533
31446SOL    HW1 6316   5.376   8.943   1.781  0.5059  1.0012  0.7286
31446SOL    HW2 6317   5.275   9.052   1.751 -0.0631  0.5821  1.0923
31447SOL     OW 6318   6.652  10.184   2.833 -0.2371  0.2526 -0.1039
31447SOL    HW1 6319   6.667  10.194   2.739  0.6544 -1.8326 -0.2500
31447SOL    HW2 6320   6.737  10.159   2.868 -0.5017  1.2661  1.3193
31448SOL     OW 6321   4.361   2.087   5.529  0.4338 -0.7262 -0.0071
31448SOL    HW1 6322   4.296   2.028   5.490 -0.9743  0.3468  0.6336
31448SOL    HW2 6323   4.319   2.119   5.608  0.5917  2.1306 -0.9848
31449SOL     OW 6324   0.958   7.881   2.538 -0.4073 -0.3679 -0.4714
31449SOL    HW1 6325   1.010   7.865   2.617 -2.4528  1.4945  1.3847
31449SOL    HW2 6326   1.011   7.940   2.486  0.2708 -0.2675  0.3111
31450SOL     OW 6327   7.750   6.985   0.601 -0.2520 -0.5941 -0.3436
31450SOL    HW1 6328   7.779   7.073   0.626  0.7861 -0.7992 -0.7711
31450SOL    HW2 6329   7.656   6.995   0.585  0.1575  0.8874 -2.2369
31451SOL     OW 6330   4.763   5.747   7.311 -0.4932  0.1445  0.0671
31451SOL    HW1 6331   4.856   5.727   7.305 -0.0194  2.1116  0.1054
31451SOL    HW2 6332   4.728   5.723   7.225  0.4478  1.1654 -0.6206
31452SOL     OW 6333   7.552   3.535   5.290  0.3035  0.3496 -0.8706
31452SOL    HW1 6334   7.563   3.622   5.251 -0.0523  1.2249  0.8738
31452SOL    HW2 6335   7.609   3.536   5.367  0.3788 -1.0150 -0.8876
31453SOL     OW 6336   0.370   7.292   3.354 -0.3574  0.2932 -0.0615
31453SOL    HW1 6337   0.313   7.363   3.381  0.6816  1.2678 -0.3828
31453SOL    HW2 6338   0.334   7.214   3.397 -1.9231  0.8719 -0.2763
31454SOL     OW 6339   5.032   2.523   9.716 -0.2107 -0.1808  0.4043
31454SOL    HW1 6340   5.118   2.529   9.675  0.4976 -0.8181  1.7122
31454SOL    HW2 6341   5.013   2.613   9.744  1.8208 -0.5129  3.4244
31455SOL     OW 6342   8.672   5.094   8.096 -0.6045  0.4337  0.9827
31455SOL    HW1 6343   8.589   5.053   8.071 -0.7304  0.6226  1.0886
31455SOL    HW2 6344   8.664   5.184   8.066 -0.3371  0.3863  0.7721
31456SOL     OW 6345   5.195   0.807   6.344 -0.4408  0.2953 -0.2557
31456SOL    HW1 6346   5.263   0.873   6.331 -0.6889  0.5742 -0.1651
31456SOL    HW2 6347   5.164   0.822   6.434  0.7615 -1.1348  0.4357
31457SOL     OW 6348   6.137   6.839   6.545 -0.4103  0.0371 -0.1041
31457SOL    HW1 6349   6.111   6.824   6.636  0.1360 -1.8104 -0.2191
31457SOL    HW2 6350   6.223   6.797   6.538  0.0551  1.1059 -1.2110
31458SOL     OW 6351   5.633   8.122   3.862 -0.0353 -0.2932 -0.2543
31458SOL    HW1 6352   5.647   8.171   3.943 -2.4552 -1.1137  0.7689
31458SOL    HW2 6353   5.547   8.151   3.832  0.8274  0.0055 -2.6014
31459SOL     OW 6354   1.355   2.584   7.115 -0.5258 -0.0073  0.4761
31459SOL    HW1 6355   1.333   2.504   7.163  0.1405 -0.5450 -0.0936
31459SOL    HW2 6356   1.371   2.555   7.026 -0.3439  0.7821  0.2403
31460SOL     OW 6357   5.347   9.927   9.429  0.1439 -0.1017 -0.2119
31460SOL    HW1 6358   5.418   9.913   9.367  0.8382  1.2809  0.2153
31460SOL    HW2 6359   5.278   9.866   9.402  0.7263 -0.0787 -1.8538
31461SOL     OW 6360   8.307   8.778   5.430  0.1091 -0.4852  0.0676
31461SOL    HW1 6361   8.283   8.768   5.338 -0.1724 -0.9482  0.1902
31461SOL    HW2 6362   8.359   8.859   5.433  0.4095 -0.6511 -0.5513
31462SOL     OW 6363   0.015   5.546   4.526  0.8372  0.2861 -0.1709
31462SOL    HW1 6364   0.064   5.567   4.447 -1.3985 -0.6641 -1.9169
31462SOL    HW2 6365  -0.046   5.619   4.536 -0.3968 -0.6454 -0.6658
31463SOL     OW 6366   5.351   7.097   2.361 -0.5910  0.1637  0.4079
31463SOL    HW1 6367   5.309   7.038   2.422  0.6760 -1.3492 -0.1078
31463SOL    HW2 6368   5.360   7.179   2.409 -1.5897 -0.3170  1.4543
31464SOL     OW 6369   2.717   2.163   9.525 -0.0459 -0.6733  0.0623
31464SOL    HW1 6370   2.754   2.243   9.561 -0.6698 -0.1734 -0.3754
31464SOL    HW2 6371   2.742   2.165   9.432  0.5560 -1.3570  0.1998
31465SOL     OW 6372   9.869   6.283   1.012  0.2291 -0.0547  0.2721
31465SOL    HW1 6373   9.836   6.243   1.092  2.3561 -2.7101 -0.0709
31465SOL    HW2 6374   9.964   6.273   1.016  0.4658  0.3885 -2.2346
31466SOL     OW 6375   7.965   9.432   2.329  0.1763 -0.2336 -0.4230
31466SOL    HW1 6376   8.004   9.353   2.292 -0.1105 -0.2736 -0.6352
31466SOL    HW2 6377   7.888   9.448   2.276  1.0430  1.0500 -1.3367
31467SOL     OW 6378   9.511   9.857   9.511  0.0144  0.2151 -0.2465
31467SOL    HW1 6379   9.428   9.827   9.548  0.3842 -0.2811  0.1895
31467SOL    HW2 6380   9.487   9.932   9.457 -0.4961  1.2075  1.2898
31468SOL     OW 6381   1.808   0.909   5.253 -0.2014  0.3864  0.4734
31468SOL    HW1 6382   1.835   0.888   5.343  0.9716  3.1843  0.8957
31468SOL    HW2 6383   1.713   0.917   5.258 -0.2415 -0.4207  1.2364
31469SOL     OW 6384   1.365   5.291   8.372  0.3430 -0.4659 -1.0316
31469SOL    HW1 6385   1.304   5.229   8.411 -0.7301  0.7360 -0.7399
31469SOL    HW2 6386   1.334   5.377   8.401  1.8615  0.2174 -1.3150
31470SOL     OW 6387   7.909   8.709   3.323 -0.1044  0.1727  0.5012
31470SOL    HW1 6388   7.946   8.644   3.383  5.2678  3.1061  1.0099
31470SOL    HW2 6389   7.940   8.683   3.237 -0.7855  0.3114  0.2099
31471SOL     OW 6390   9.361  10.070   6.565 -0.2901  0.3837 -0.2335
31471SOL    HW1 6391   9.280  10.119   6.581 -2.2511 -2.3958 -0.7642
31471SOL    HW2 6392   9.398  10.109   6.486 -0.7680  2.1188  0.3648
31472SOL     OW 6393   7.532   9.211   4.111 -0.5400  0.1368  0.2950
31472SOL    HW1 6394   7.567   9.261   4.037  1.5377 -0.0537  1.0802
31472SOL    HW2 6395   7.526   9.274   4.183 -2.0268  0.1952  0.1534
31473SOL     OW 6396   0.175   6.468   9.546  0.5203 -0.3105 -0.3960
31473SOL    HW1 6397   0.128   6.431   9.471  1.1547 -0.5985 -0.6627
31473SOL    HW2 6398   0.188   6.560   9.524  0.9247 -0.4495 -0.7649
31474SOL     OW 6399   6.966   4.429   8.390 -0.1225  0.0717 -0.3104
31474SOL    HW1 6400   6.948   4.496   8.456 -1.7733 -0.6535  0.0343
31474SOL    HW2 6401   7.014   4.475   8.321  0.3709  1.1744  0.7274
31475SOL     OW 6402   6.247   0.723   7.409  0.5206 -0.2254  0.7069
31475SOL    HW1 6403   6.279   0.664   7.341  1.4062  0.7243  0.2578
31475SOL    HW2 6404   6.157   0.697   7.425 -0.1402  0.3189 -1.7516
31476SOL     OW 6405   3.483   4.132   9.901  0.3641  0.2965 -0.0608
31476SOL    HW1 6406   3.574   4.159   9.887 -0.0993  1.8953 -0.1302
31476SOL    HW2 6407   3.434   4.213   9.905 -1.1204 -0.5571 -0.2535
31477SOL     OW 6408   7.857   4.971   5.084  0.0065  0.1347  0.1542
31477SOL    HW1 6409   7.794   5.020   5.138 -0.6955  0.5407 -1.0006
31477SOL    HW2 6410   7.802   4.926   5.020  0.8879  0.4408 -0.8302
31478SOL     OW 6411   3.101   3.533   5.926 -0.1888 -0.1486  0.2268
31478SOL    HW1 6412   3.108   3.570   6.014 -2.2875  0.7099  0.0657
31478SOL    HW2 6413   3.119   3.439   5.939  3.9137  0.5296  0.8148
31479SOL     OW 6414   1.191   5.630   3.208  0.0869  0.1296  0.3149
31479SOL    HW1 6415   1.247   5.590   3.275 -0.2242  0.0476  0.5266
31479SOL    HW2 6416   1.222   5.592   3.126 -0.4196 -0.8008  0.5459
31480SOL     OW 6417   1.574   2.684   3.907  0.2592 -0.0358 -0.1740
31480SOL    HW1 6418   1.581   2.742   3.983 -0.9625  0.3424 -0.3256
31480SOL    HW2 6419   1.524   2.609   3.939 -0.1883  0.0882 -0.5900
31481SOL     OW 6420   3.576   2.287   8.738  0.7682 -0.6056 -0.1958
31481SOL    HW1 6421   3.656   2.335   8.717  1.5236 -0.9365  1.7723
31481SOL    HW2 6422   3.555   2.313   8.827  0.6386 -3.1410  0.5899
31482SOL     OW 6423   0.911   1.454   1.053  0.5993  0.1814 -0.0915
31482SOL    HW1 6424   0.934   1.526   1.113  0.4570 -0.4620  0.7581
31482SOL    HW2 6425   0.816   1.445   1.062  0.7450 -0.8123  0.6386
31483SOL     OW 6426   5.039   6.230   3.099 -0.5030  0.6232  0.3331
31483SOL    HW1 6427   4.980   6.155   3.093  0.5838 -0.4545  2.1829
31483SOL    HW2 6428   4.987   6.305   3.069 -1.3330 -0.9617 -2.5418
31484SOL     OW 6429   1.132   5.838   7.000 -0.1451 -0.4553  0.2464
31484SOL    HW1 6430   1.115   5.870   7.089  1.0323 -1.8319  0.9965
31484SOL    HW2 6431   1.201   5.896   6.967  0.3245 -0.7286  0.7267
31485SOL     OW 6432   4.957   0.697   8.962  0.0936  0.2414  0.0570
31485SOL    HW1 6433   5.014   0.655   8.897 -2.0234 -1.4407 -0.8269
31485SOL    HW2 6434   4.921   0.625   9.013 -3.0385  0.8783 -0.9878
31486SOL     OW 6435   3.678   1.610   2.916 -0.5036 -0.0077 -0.0805
31486SOL    HW1 6436   3.742   1.675   2.947 -1.4454  0.6351  0.5858
31486SOL    HW2 6437   3.642   1.650   2.836  0.7154 -0.8989 -1.1295
31487SOL     OW 6438   7.100   6.383   1.677 -0.4643  0.0839 -0.1250
31487SOL    HW1 6439   7.179   6.365   1.727  0.1122  3.7275  0.5968
31487SOL    HW2 6440   7.131   6.396   1.587 -0.1778  1.3293  0.1249
31488SOL     OW 6441   8.970   1.469   4.798  0.0119  0.0114  0.1336
31488SOL    HW1 6442   8.895   1.424   4.838 -0.0061 -1.2581 -1.2283
31488SOL    HW2 6443   9.043   1.408   4.809  0.2418  0.1026 -0.8130
31489SOL     OW 6444   9.314   6.367   3.287 -0.3904 -0.0828  0.1199
31489SOL    HW1 6445   9.320   6.356   3.382 -1.2639  2.2685  0.5339
31489SOL    HW2 6446   9.220   6.361   3.268 -0.4564  1.4704 -0.2263
31490SOL     OW 6447   4.864   8.010   9.594 -0.0054 -0.2880 -0.3576
31490SOL    HW1 6448   4.828   8.091   9.628 -1.4423 -1.8826  2.2536
31490SOL    HW2 6449   4.959   8.023   9.595 -0.2324  1.8477 -1.5064
31491SOL     OW 6450   4.985   9.065   3.439 -0.0887  0.3186  0.1255
31491SOL    HW1 6451   4.922   9.134   3.457 -0.4641 -0.1243  0.5375
31491SOL    HW2 6452   5.039   9.060   3.518  0.4958  0.7202 -0.2370
31492SOL     OW 6453   2.925   0.384   2.045  0.3885 -0.1201 -0.4429
31492SOL    HW1 6454   2.857   0.324   2.014  1.1217 -0.8980 -0.5468
31492SOL    HW2 6455   2.895   0.470   2.014 -0.9326 -0.3314  0.1607
31493SOL     OW 6456   4.757   0.618   7.670  0.0390 -0.0514 -0.3586
31493SOL    HW1 6457   4.670   0.587   7.646 -0.6191  0.9410  0.6357
31493SOL    HW2 6458   4.800   0.541   7.708 -0.7866 -0.3006  0.1038
31494SOL     OW 6459   2.617   9.747   3.837  0.2729  0.1998  0.1768
31494SOL    HW1 6460   2.522   9.751   3.842  0.1761 -0.6993 -0.6437
31494SOL    HW2 6461   2.644   9.716   3.923 -0.2053  0.1022  0.2938
31495SOL     OW 6462   7.814   9.685   6.308  0.3981  0.2309 -0.5562
31495SOL    HW1 6463   7.732   9.734   6.298 -0.1366 -0.3422  0.7490
31495SOL    HW2 6464   7.790   9.594   6.291  0.4052 -0.1438  1.2398
31496SOL     OW 6465   5.316   5.802   8.227 -0.2038  0.3054 -0.0425
31496SOL    HW1 6466   5.311   5.805   8.131  0.5210  0.3427 -0.0864
31496SOL    HW2 6467   5.297   5.891   8.255 -0.2904  0.3244 -0.1633
31497SOL     OW 6468   6.792   8.774   7.733 -0.3319 -0.0356  0.1811
31497SOL    HW1 6469   6.880   8.802   7.758 -1.4732  2.8783  1.3927
31497SOL    HW2 6470   6.760   8.723   7.808 -0.2912  0.4226  0.5111
31498SOL     OW 6471   6.287   7.895   0.609  0.1765  0.3337  0.2336
31498SOL    HW1 6472   6.297   7.988   0.590  0.9749  0.7528  2.4750
31498SOL    HW2 6473   6.326   7.851   0.533  1.0656  1.8451 -0.2216
31499SOL     OW 6474   7.556   8.170   0.052  0.2589  0.0444 -0.3000
31499SOL    HW1 6475   7.542   8.194  -0.040 -1.5129 -1.3495 -0.4328
31499SOL    HW2 6476   7.536   8.077   0.056  2.3555 -0.4023  1.1275
31500SOL     OW 6477   3.881   7.931   4.468 -0.3349  0.5056 -0.3695
31500SOL    HW1 6478   3.938   7.991   4.421 -0.2756  1.9082  1.3924
31500SOL    HW2 6479   3.938   7.889   4.532 -0.7538 -0.0662 -0.3649
31501SOL     OW 6480   9.106  10.279   3.738 -0.4394 -0.2088  0.0770
31501SOL    HW1 6481   9.058  10.294   3.819 -3.2938 -0.6771 -1.4206
31501SOL    HW2 6482   9.059  10.329   3.672 -0.1935 -2.4333 -1.9059
31502SOL     OW 6483   0.658   9.493   2.787  0.6080  0.0883  0.2091
31502SOL    HW1 6484   0.710   9.414   2.777  1.2934  0.3560  1.4083
31502SOL    HW2 6485   0.722   9.564   2.792 -0.0364  1.1152 -3.3977
31503SOL     OW 6486   4.019   7.681   9.552 -0.0267  0.4541  0.0817
31503SOL    HW1 6487   3.930   7.709   9.532 -0.5763 -0.6906  0.8459
31503SOL    HW2 6488   4.010   7.593   9.588  1.3027  0.7743  1.3158
31504SOL     OW 6489   0.329   4.403   2.264 -0.3351 -0.6677 -0.6769
31504SOL    HW1 6490   0.260   4.448   2.313  0.2599  1.1361 -1.4156
31504SOL    HW2 6491   0.407   4.414   2.319 -0.0882 -0.3763 -1.0835
31505SOL     OW 6492   6.590   8.868   8.935 -0.1875 -0.0886 -0.1337
31505SOL    HW1 6493   6.518   8.838   8.991 -0.0883 -1.4043 -0.6667
31505SOL    HW2 6494   6.553   8.940   8.885 -1.1791 -0.7945 -0.4491
31506SOL     OW 6495   5.787   1.730   6.724  0.2158 -0.0662  0.1715
31506SOL    HW1 6496   5.735   1.782   6.785 -0.7912  0.2040 -0.8825
31506SOL    HW2 6497   5.818   1.656   6.776 -0.8876 -0.0157  0.9284
31507SOL     OW 6498   7.076   8.349   7.360  0.7760 -0.1837  0.7892
31507SOL    HW1 6499   6.988   8.311   7.368  0.6155  0.0184  0.0328
31507SOL    HW2 6500   7.062   8.435   7.321  1.1571  0.6019  2.3021
31508SOL     OW 6501   5.253   3.387   3.058 -0.1930  0.4446  0.1347
31508SOL    HW1 6502   5.315   3.321   3.028  2.2557  3.1193 -1.2921
31508SOL    HW2 6503   5.265   3.390   3.153  1.1305  0.1215  0.0044
31509SOL     OW 6504   8.913   7.766   9.027  0.6333  0.3800 -0.0560
31509SOL    HW1 6505   8.960   7.849   9.036 -1.0268  1.3629 -0.0775
31509SOL    HW2 6506   8.830   7.790   8.987 -0.6259 -1.0318  1.5547
31510SOL     OW 6507   9.141   1.912   2.224 -0.1169  0.7196 -0.0727
31510SOL    HW1 6508   9.229   1.884   2.249  0.0932  1.1393 -0.3323
31510SOL    HW2 6509   9.142   1.914   2.129 -0.7730 -0.4000 -0.1231
31511SOL     OW 6510   5.010   5.930   9.496  0.2306  0.0684 -0.3280
31511SOL    HW1 6511   5.024   6.022   9.476 -0.9693  0.1550 -0.8783
31511SOL    HW2 6512   4.958   5.897   9.423 -2.3522 -0.1862  1.4693
31512SOL     OW 6513   0.728   3.178   9.993  0.6359 -0.2063 -0.5035
31512SOL    HW1 6514   0.777   3.103   9.959  0.3720  0.0719 -1.5404
31512SOL    HW2 6515   0.790   3.223  10.050  0.8205 -1.1579  0.0629
31513SOL     OW 6516   6.335   2.897   0.127  0.3539  0.1051  0.0728
31513SOL    HW1 6517   6.254   2.853   0.099  0.2355  0.4059 -0.0586
31513SOL    HW2 6518   6.358   2.954   0.053  2.1092 -1.8673 -1.0446
31514SOL     OW 6519   9.548   2.947   2.490 -0.2551 -0.3224  0.3149
31514SOL    HW1 6520   9.632   2.946   2.537  0.2819 -0.7389 -0.6272
31514SOL    HW2 6521   9.556   2.876   2.426 -1.1153  0.0031 -0.1666
31515SOL     OW 6522   2.414   5.454   4.446  0.2036  0.3304  0.6384
31515SOL    HW1 6523   2.483   5.422   4.504 -0.4513 -2.0896  0.1723
31515SOL    HW2 6524   2.336   5.457   4.502 -0.1814 -0.9345  0.2039
31516SOL     OW 6525   6.850   6.407   8.951 -0.2307 -0.0671 -0.3116
31516SOL    HW1 6526   6.792   6.416   8.875 -0.0654  0.0644 -0.4220
31516SOL    HW2 6527   6.822   6.478   9.010  0.6882  0.8407 -0.9346
31517SOL     OW 6528   1.035   6.743   7.924  0.0213 -0.1266  0.2691
31517SOL    HW1 6529   1.044   6.816   7.985  0.0880  2.8001 -2.9072
31517SOL    HW2 6530   1.095   6.764   7.852 -2.8003 -1.1220 -2.6528
31518SOL     OW 6531   9.141   3.083   9.252 -0.0757  0.0748 -0.0562
31518SOL    HW1 6532   9.219   3.042   9.288 -0.5020 -0.2352  0.5222
31518SOL    HW2 6533   9.079   3.011   9.239 -0.0358  0.2183 -1.1425
31519SOL     OW 6534   2.850   8.646   1.641 -0.7497  0.8217 -0.1316
31519SOL    HW1 6535   2.826   8.582   1.574  1.6333  0.3415 -0.6137
31519SOL    HW2 6536   2.837   8.600   1.724  0.4511 -0.1514 -0.4556
31520SOL     OW 6537  10.383   3.545   4.317 -0.4273 -0.3344  0.1299
31520SOL    HW1 6538  10.311   3.600   4.349 -0.1948  0.1167 -0.1186
31520SOL    HW2 6539  10.342   3.461   4.297 -1.1420  0.2982 -1.2061
31521SOL     OW 6540   5.971   6.009   6.661 -0.1836 -0.2270 -0.0094
31521SOL    HW1 6541   5.880   5.980   6.660  0.2571 -1.6936 -0.5586
31521SOL    HW2 6542   6.006   5.975   6.743 -0.5682  1.9290  1.1226
31522SOL     OW 6543   0.990   4.573   1.841 -0.8819  0.2445 -0.1283
31522SOL    HW1 6544   0.951   4.638   1.899  1.5764  2.1474 -0.4391
31522SOL    HW2 6545   1.041   4.516   1.898 -1.2042 -0.0147 -0.0948
31523SOL     OW 6546  10.270   1.311   6.403 -0.8882  0.0414  0.3578
31523SOL    HW1 6547  10.262   1.216   6.417 -0.5506  0.0404  0.5302
31523SOL    HW2 6548  10.297   1.346   6.487 -0.6752  0.2498  0.2048
31524SOL     OW 6549   3.898   7.406   2.700  0.1086  0.2367 -0.9430
31524SOL    HW1 6550   3.918   7.327   2.751  0.8333  1.5879  0.9533
31524SOL    HW2 6551   3.955   7.473   2.736 -0.1579  1.5484 -2.8417
31525SOL     OW 6552   4.779   9.477   2.302  0.0917  0.2823 -0.7486
31525SOL    HW1 6553   4.857   9.461   2.248  0.5834  3.0389 -1.0201
31525SOL    HW2 6554   4.797   9.434   2.385  1.0740 -0.6718 -1.4311
31526SOL     OW 6555   7.913   0.843   2.751 -0.2553 -0.2503  0.1523
31526SOL    HW1 6556   7.970   0.766   2.750 -0.3202 -0.2969 -0.1224
31526SOL    HW2 6557   7.826   0.808   2.732 -0.6234 -0.3689  1.9366
31527SOL     OW 6558   8.824   7.370   8.249 -0.3195  0.6451 -0.3257
31527SOL    HW1 6559   8.736   7.407   8.258  0.2902  2.3467 -0.8447
31527SOL    HW2 6560   8.857   7.408   8.167  1.0089  0.3195  0.0364
31528SOL     OW 6561   1.204   6.646   4.903 -0.1324 -0.0582  0.3594
31528SOL    HW1 6562   1.112   6.639   4.878  0.4257 -1.5775 -1.5031
31528SOL    HW2 6563   1.225   6.738   4.889 -1.0100  0.0108 -0.6840
31529SOL     OW 6564   1.146   3.200   9.808  0.0264 -0.0764 -0.1013
31529SOL    HW1 6565   1.135   3.106   9.820  0.8431  0.0472  2.0608
31529SOL    HW2 6566   1.065   3.228   9.765 -0.7650 -1.5782  0.3194
31530SOL     OW 6567   7.345   7.771   9.584  0.2267  0.1352  1.1747
31530SOL    HW1 6568   7.388   7.691   9.555 -2.5104 -0.9733 -0.1503
31530SOL    HW2 6569   7.257   7.743   9.609 -0.2837  2.5003  2.3095
31531SOL     OW 6570   8.123   0.565   1.555  0.1843 -0.1264 -0.0483
31531SOL    HW1 6571   8.099   0.573   1.647 -2.2100  0.3724 -0.6432
31531SOL    HW2 6572   8.142   0.655   1.527 -0.7767 -0.0405 -0.4397
31532SOL     OW 6573   8.202   0.163   2.848 -0.2414  0.2656  0.2312
31532SOL    HW1 6574   8.162   0.082   2.816 -1.4953  1.0947 -0.3636
31532SOL    HW2 6575   8.293   0.157   2.819 -0.4300 -0.7015 -0.2185
31533SOL     OW 6576   8.820   6.466  10.345  0.4043 -0.2605 -0.0820
31533SOL    HW1 6577   8.775   6.498  10.423 -1.6405 -0.5713 -1.0534
31533SOL    HW2 6578   8.782   6.517  10.273  0.8170 -1.3075 -1.0789
31534SOL     OW 6579   2.143   1.871   1.854  0.4265  0.0747  0.0816
31534SOL    HW1 6580   2.163   1.889   1.762  0.9586  2.1434  0.5494
31534SOL    HW2 6581   2.095   1.788   1.852  0.3103  0.1321 -2.0692
31535SOL     OW 6582   3.340   1.112   6.118 -0.2537 -0.3506  0.6486
31535SOL    HW1 6583   3.273   1.083   6.181 -0.1756 -0.1520  0.8263
31535SOL    HW2 6584   3.410   1.148   6.173  0.2321 -1.0298  0.4822
31536SOL     OW 6585   4.078   7.235   9.834 -0.1078  0.6388 -0.1914
31536SOL    HW1 6586   4.151   7.174   9.834 -0.1442  0.5850  0.7790
31536SOL    HW2 6587   4.022   7.206   9.906 -1.4249  0.2898 -1.3167
31537SOL     OW 6588   9.064   3.239   4.663  0.0429  0.4150  0.5688
31537SOL    HW1 6589   9.145   3.281   4.636  0.2941  0.0938  0.8137
31537SOL    HW2 6590   9.076   3.146   4.643  0.3407  0.1221  1.9928
31538SOL     OW 6591   5.422   8.996   8.033 -0.1420 -0.5278 -0.3635
31538SOL    HW1 6592   5.414   9.012   8.127  0.0103 -2.2235 -0.0331
31538SOL    HW2 6593   5.409   9.082   7.993 -0.8650  0.1149  1.1686
31539SOL     OW 6594   1.918   3.282   7.333  0.4981 -0.4827  0.2033
31539SOL    HW1 6595   1.996   3.317   7.375  0.8764  1.0047 -1.6183
31539SOL    HW2 6596   1.870   3.240   7.404  1.7183  0.7651  1.8582
31540SOL     OW 6597   3.175   1.376   6.551 -0.4094 -0.4322 -0.0213
31540SOL    HW1 6598   3.160   1.416   6.636  0.8042  0.3381 -0.1487
31540SOL    HW2 6599   3.128   1.432   6.489 -0.0187 -0.1058 -0.0248
31541SOL     OW 6600   4.881   2.858   2.537 -0.8108  0.3125  0.4198
31541SOL    HW1 6601   4.904   2.774   2.577  1.6385  1.2662  1.2185
31541SOL    HW2 6602   4.818   2.836   2.469  0.9300 -2.4151 -0.4857
31542SOL     OW 6603   7.955   5.523   6.303  0.0676 -0.1959 -0.7193
31542SOL    HW1 6604   8.007   5.578   6.361 -0.1727 -0.9540  0.2421
31542SOL    HW2 6605   7.892   5.480   6.361  1.4366 -2.9353 -1.1176
31543SOL     OW 6606   6.578   1.369   3.851 -0.4545 -0.2293 -0.1610
31543SOL    HW1 6607   6.543   1.376   3.762  1.7814 -1.3109 -1.1890
31543SOL    HW2 6608   6.539   1.289   3.885 -2.4646  0.9271  0.4586
31544SOL     OW 6609   3.380   6.374   2.805  0.1310  0.2964 -0.2490
31544SOL    HW1 6610   3.344   6.371   2.716  1.2461 -2.4468 -0.7126
31544SOL    HW2 6611   3.468   6.410   2.793 -0.0293  0.7473 -0.0999
31545SOL     OW 6612   4.415  10.155   0.477 -0.3799  0.7795 -0.1602
31545SOL    HW1 6613   4.408  10.061   0.491  2.1906  0.4789 -0.3782
31545SOL    HW2 6614   4.365  10.171   0.397 -0.2777 -0.5273 -0.5067
31546SOL     OW 6615   8.746   8.924   1.028 -0.0676  0.3639 -0.1450
31546SOL    HW1 6616   8.796   8.993   0.984 -1.0477  0.2677 -1.4765
31546SOL    HW2 6617   8.773   8.844   0.983 -0.9843  0.2422 -0.4888
31547SOL     OW 6618   0.995   0.749   4.280 -0.2115 -0.4560  0.2312
31547SOL    HW1 6619   1.041   0.792   4.207  0.5062 -0.5712  0.6045
31547SOL    HW2 6620   1.012   0.655   4.266 -1.4573 -0.6147 -0.3683
31548SOL     OW 6621   2.870   1.486   5.237  0.0775  0.2900 -0.9578
31548SOL    HW1 6622   2.947   1.488   5.293 -0.6015  1.1236 -0.0038
31548SOL    HW2 6623   2.845   1.394   5.231  1.7320 -0.1272 -2.1573
31549SOL     OW 6624   2.516   1.272   5.789  0.2543  0.2813  0.9144
31549SOL    HW1 6625   2.433   1.235   5.821  0.4089 -0.8764  0.0546
31549SOL    HW2 6626   2.558   1.308   5.867 -1.8254  2.5211  1.1208
31550SOL     OW 6627   4.583   4.641   8.138 -0.1897  0.3011  0.0468
31550SOL    HW1 6628   4.542   4.555   8.146  1.7313 -0.6790 -0.2715
31550SOL    HW2 6629   4.658   4.637   8.197  1.2239  0.9478 -1.6458
31551SOL     OW 6630   0.357   3.558   3.060  0.3348  0.1618  0.1486
31551SOL    HW1 6631   0.396   3.642   3.036 -1.6570  1.2561  0.4854
31551SOL    HW2 6632   0.267   3.564   3.029  0.0011 -1.6410  0.6829
31552SOL     OW 6633   5.636   3.810   5.972  0.4775 -0.9886 -0.2097
31552SOL    HW1 6634   5.706   3.767   6.022  0.2937 -0.6312  0.3602
31552SOL    HW2 6635   5.581   3.737   5.941  0.7632 -1.2313 -0.1536
31553SOL     OW 6636   3.799   0.675   7.660 -0.1452 -0.2491  0.3011
31553SOL    HW1 6637   3.822   0.599   7.608  1.5200  0.7926 -0.5889
31553SOL    HW2 6638   3.797   0.748   7.597 -0.5989  0.6388  1.2938
31554SOL     OW 6639   4.819   9.841   7.959  0.8647 -0.3806 -0.6304
31554SOL    HW1 6640   4.894   9.833   7.899  0.3045  0.2541 -1.4455
31554SOL    HW2 6641   4.854   9.814   8.044  1.9792 -0.2514 -1.0205
31555SOL     OW 6642   1.800   8.545   3.646  0.1237  0.4839  0.0302
31555SOL    HW1 6643   1.807   8.481   3.576  0.0714 -0.1406  0.5867
31555SOL    HW2 6644   1.888   8.551   3.683  0.0436  0.4502  0.2269
31556SOL     OW 6645   7.444   7.487   1.028 -0.1709 -0.0295  0.3665
31556SOL    HW1 6646   7.397   7.436   1.094  0.1777  0.1607  0.7629
31556SOL    HW2 6647   7.445   7.576   1.062  0.4316 -0.0215  0.3387
31557SOL     OW 6648  10.316   3.353  10.288  0.0877 -0.1992 -0.1047
31557SOL    HW1 6649  10.293   3.270  10.246 -0.9461  0.2594 -0.4817
31557SOL    HW2 6650  10.241   3.374  10.344 -0.7044  1.5336 -1.6632
31558SOL     OW 6651   9.109   1.630   5.709 -0.1660  0.6135 -0.1739
31558SOL    HW1 6652   9.112   1.723   5.735 -1.2056  0.7602 -0.5115
31558SOL    HW2 6653   9.199   1.609   5.683  0.3161  1.2198  0.9374
31559SOL     OW 6654   9.566   9.100   2.151 -0.2453  0.0930  0.2917
31559SOL    HW1 6655   9.623   9.024   2.140  1.4292  1.2828  0.4077
31559SOL    HW2 6656   9.593   9.160   2.081 -1.0942  0.8623  0.6045
31560SOL     OW 6657   6.530   3.721   8.144 -0.1479 -0.2943  0.1109
31560SOL    HW1 6658   6.459   3.786   8.149 -0.3141 -0.5279  1.2104
31560SOL    HW2 6659   6.493   3.644   8.188 -0.0385 -1.2248 -1.3917
31561SOL     OW 6660   0.327   1.007   3.556  0.0953 -0.0078 -0.4745
31561SOL    HW1 6661   0.332   0.949   3.480  1.8892  0.3874 -0.7108
31561SOL    HW2 6662   0.360   1.091   3.524 -0.1323  0.4547  0.4704
31562SOL     OW 6663   5.283   2.995   6.166  0.3720 -0.0408  0.8900
31562SOL    HW1 6664   5.203   3.044   6.187  0.6548  1.4420 -1.2386
31562SOL    HW2 6665   5.348   3.029   6.227  0.3549  1.7500 -0.0142
31563SOL     OW 6666   8.927   9.485   4.419 -0.4649 -0.6574 -0.1120
31563SOL    HW1 6667   8.988   9.541   4.370 -1.4638  0.4181 -0.1490
31563SOL    HW2 6668   8.968   9.474   4.505  0.3009 -0.8505 -0.4916
31564SOL     OW 6669   2.181   6.008   6.241 -0.2914 -0.1723 -0.2952
31564SOL    HW1 6670   2.264   6.044   6.272  0.0701 -1.5690  0.4617
31564SOL    HW2 6671   2.201   5.917   6.220 -1.2869 -0.1188 -1.5939
31565SOL     OW 6672   1.849   9.099   3.733 -0.3023 -0.1941 -0.3298
31565SOL    HW1 6673   1.855   9.042   3.809  2.4280  1.5811  0.9771
31565SOL    HW2 6674   1.862   9.187   3.769 -4.1952  1.4070 -2.2294
31566SOL     OW 6675   1.522   8.496   2.654  0.1563 -0.2031  0.0352
31566SOL    HW1 6676   1.451   8.469   2.596 -2.0707  0.4579  2.2797
31566SOL    HW2 6677   1.519   8.592   2.652 -0.7605 -0.1369  2.0135
31567SOL     OW 6678   8.578   9.500   8.410 -0.0003  0.8675 -0.2210
31567SOL    HW1 6679   8.639   9.456   8.352  0.4911 -3.2767  2.9474
31567SOL    HW2 6680   8.494   9.496   8.365  0.6319 -0.7659 -1.3369
31568SOL     OW 6681   1.791  10.061   5.030 -0.4250 -0.1822  0.0342
31568SOL    HW1 6682   1.789  10.129   5.097  0.8655  1.3442 -1.3853
31568SOL    HW2 6683   1.880  10.027   5.032 -0.5494 -0.5518 -0.4649
31569SOL     OW 6684   1.146   2.246   5.452  0.4571 -0.3448 -0.2431
31569SOL    HW1 6685   1.131   2.320   5.511  0.3178 -0.7229  0.2059
31569SOL    HW2 6686   1.241   2.237   5.447  0.5291  0.8871 -1.6054
31570SOL     OW 6687   0.424   6.658   2.068  0.3797 -0.2832 -0.0435
31570SOL    HW1 6688   0.370   6.637   1.991 -1.2958  0.7795  0.7770
31570SOL    HW2 6689   0.424   6.753   2.071 -1.2787 -0.2693  2.3383
31571SOL     OW 6690   6.557   1.228   4.859  0.4415  0.0071  0.1494
31571SOL    HW1 6691   6.503   1.214   4.781  0.0770  1.0761  0.1962
31571SOL    HW2 6692   6.516   1.177   4.927  0.3129 -0.3196 -0.1717
31572SOL     OW 6693  10.026   5.569   3.113  0.2405  0.3176 -0.3036
31572SOL    HW1 6694  10.058   5.588   3.025 -1.8078 -1.7763 -1.6152
31572SOL    HW2 6695   9.968   5.643   3.134  0.3700  0.5958 -0.9052
31573SOL     OW 6696   0.582   6.365   4.015 -0.1033 -0.0698  0.2359
31573SOL    HW1 6697   0.648   6.378   3.946 -0.4936 -0.1750 -0.1621
31573SOL    HW2 6698   0.567   6.271   4.016 -1.5174  0.1090 -0.8868
31574SOL     OW 6699   4.188   7.035   4.666  0.8236 -0.2259 -0.5468
31574SOL    HW1 6700   4.221   6.945   4.663  1.4663  0.0102 -0.8431
31574SOL    HW2 6701   4.094   7.027   4.653  0.8806 -0.8523 -0.6026
31575SOL     OW 6702   0.839   4.103   6.537 -0.0257  0.1864  0.0550
31575SOL    HW1 6703   0.884   4.059   6.465  0.4166  0.3987  0.1928
31575SOL    HW2 6704   0.880   4.189   6.542 -0.4882  0.4052  0.1558
31576SOL     OW 6705   3.667   7.434   9.130  0.6765 -0.1430  0.1840
31576SOL    HW1 6706   3.630   7.385   9.204  3.1378 -0.9319  1.0159
31576SOL    HW2 6707   3.693   7.518   9.168 -1.5292  1.0402 -0.7462
31577SOL     OW 6708   6.221   4.504   6.533 -0.0844  0.3212 -0.0933
31577SOL    HW1 6709   6.150   4.461   6.580 -0.0262 -0.0779 -0.3759
31577SOL    HW2 6710   6.286   4.523   6.601  0.4301 -1.1277 -0.1628
31578SOL     OW 6711   8.370   6.395   6.955 -0.1124  0.3569  0.2890
31578SOL    HW1 6712   8.388   6.328   7.021 -0.9495  0.6288  0.8028
31578SOL    HW2 6713   8.408   6.475   6.991  1.3100  0.0877 -0.5402
31579SOL     OW 6714   9.052   3.531   6.152  0.3839 -0.2334  0.4530
31579SOL    HW1 6715   8.984   3.588   6.115 -0.0003 -0.5203  0.7072
31579SOL    HW2 6716   9.013   3.443   6.150  0.6627 -0.3645  0.8100
31580SOL     OW 6717   7.097   7.949   7.064  0.1265  0.6891  0.3127
31580SOL    HW1 6718   7.181   7.920   7.097 -0.0416 -0.2028 -0.0161
31580SOL    HW2 6719   7.038   7.875   7.081 -0.9841  1.8722  1.9917
31581SOL     OW 6720   0.957   7.415   2.391 -0.1469  0.4304 -0.4711
31581SOL    HW1 6721   0.997   7.426   2.305 -1.8205  0.9921 -1.2352
31581SOL    HW2 6722   0.993   7.486   2.444  1.2877 -0.2276 -0.5358
31582SOL     OW 6723   0.306   9.460   7.244  0.5503  0.5634  0.0215
31582SOL    HW1 6724   0.221   9.503   7.245  1.7977  3.2415 -1.0287
31582SOL    HW2 6725   0.368   9.528   7.272  2.4971 -0.9613 -0.3760
31583SOL     OW 6726   9.113   5.574   4.608  0.2794 -0.2379  0.4895
31583SOL    HW1 6727   9.033   5.584   4.659  0.5063 -0.4540  0.8873
31583SOL    HW2 6728   9.177   5.536   4.669  0.3189 -1.2702 -0.1671
31584SOL     OW 6729   3.833   1.754   9.042 -0.1846 -0.0786 -0.0597
31584SOL    HW1 6730   3.920   1.755   9.002 -1.1036  1.0205 -2.1233
31584SOL    HW2 6731   3.819   1.844   9.073  0.0287 -0.6310  1.8227
31585SOL     OW 6732   9.277   0.480   6.544  0.1804 -0.2200  0.5596
31585SOL    HW1 6733   9.359   0.477   6.495  0.4024  0.6859  0.8515
31585SOL    HW2 6734   9.220   0.536   6.492  0.9756  2.1571  2.0753
31586SOL     OW 6735   0.747   8.693   2.191  0.5652  0.5211 -0.2139
31586SOL    HW1 6736   0.731   8.785   2.212 -1.3517  0.5817 -1.6645
31586SOL    HW2 6737   0.750   8.691   2.095  3.1372 -0.5928 -0.1867
31587SOL     OW 6738   7.903   4.568   3.423  0.1054 -0.3877 -0.6155
31587SOL    HW1 6739   7.917   4.489   3.474 -1.6155 -1.0041 -1.0313
31587SOL    HW2 6740   7.909   4.540   3.332 -1.8598 -0.3903 -0.7971
31588SOL     OW 6741   4.725   0.881   7.728 -0.1186 -0.0881  0.1531
31588SOL    HW1 6742   4.752   0.791   7.710 -1.1205 -0.4944  0.5795
31588SOL    HW2 6743   4.653   0.872   7.791  1.0161  1.1194  1.6904
31589SOL     OW 6744   8.083   8.334   7.856 -0.4723  0.1297  0.4973
31589SOL    HW1 6745   8.073   8.416   7.808 -0.1863  0.3475  0.8094
31589SOL    HW2 6746   7.995   8.297   7.858 -0.3014 -0.5157 -1.3002
31590SOL     OW 6747   3.771   1.688   8.067  0.7876  0.4158  0.4378
31590SOL    HW1 6748   3.682   1.654   8.065 -0.0264  2.3552  1.3001
31590SOL    HW2 6749   3.789   1.714   7.977  0.1703  0.7047  0.3913
31591SOL     OW 6750   7.218   1.033   2.975  0.4049  0.0842 -0.1002
31591SOL    HW1 6751   7.276   0.960   2.954  1.1197  0.1660  1.4412
31591SOL    HW2 6752   7.130   0.996   2.968  0.7446 -0.8281  0.3223
31592SOL     OW 6753   3.882   5.283   4.157  0.2231  0.3472  0.0375
31592SOL    HW1 6754   3.945   5.241   4.215  0.3926 -1.3202 -1.2743
31592SOL    HW2 6755   3.867   5.369   4.197  2.2173  0.2522  1.1641
31593SOL     OW 6756   4.603   1.172   3.577 -0.1624  0.1712 -0.2273
31593SOL    HW1 6757   4.550   1.245   3.610  0.5446  0.4692  0.2992
31593SOL    HW2 6758   4.593   1.104   3.643 -0.1535  0.1095 -0.2899
31594SOL     OW 6759   5.005   3.213   2.227 -0.1743  0.6142 -0.1163
31594SOL    HW1 6760   5.070   3.236   2.294 -0.0961 -1.5176  0.5907
31594SOL    HW2 6761   5.055   3.211   2.146  0.3456  0.4367  0.2014
31595SOL     OW 6762   8.828   5.655   0.228 -0.0449  0.0252  0.3261
31595SOL    HW1 6763   8.834   5.748   0.206  0.4666 -0.1855 -0.4453
31595SOL    HW2 6764   8.891   5.612   0.171  0.4723 -0.6831  1.4001
31596SOL     OW 6765   4.863   0.148   4.195 -0.2328 -0.2069 -0.2919
31596SOL    HW1 6766   4.894   0.059   4.181  1.8731  0.6054 -1.1024
31596SOL    HW2 6767   4.937   0.194   4.235 -1.5204  1.0278  0.8013
31597SOL     OW 6768   5.510   3.176   2.255 -0.1853  0.3411  0.4064
31597SOL    HW1 6769   5.453   3.165   2.331 -0.5386 -1.5684 -0.0684
31597SOL    HW2 6770   5.473   3.251   2.208 -1.0638  0.4133  1.1786
31598SOL     OW 6771   3.145   0.959   5.905 -0.4134 -0.3729  0.2928
31598SOL    HW1 6772   3.060   1.000   5.888 -0.9629 -1.6566 -0.1951
31598SOL    HW2 6773   3.176   1.001   5.985 -3.1350 -2.2060  2.5056
31599SOL     OW 6774   2.739   9.675   5.864 -0.7588 -0.6683 -0.3356
31599SOL    HW1 6775   2.708   9.746   5.808  0.6036  0.8011  0.6816
31599SOL    HW2 6776   2.775   9.611   5.804  0.1732  0.6123 -1.1905
31600SOL     OW 6777   4.901   1.665   8.434  0.2479 -0.1448  0.2347
31600SOL    HW1 6778   4.972   1.609   8.403  0.1837  0.7307 -1.5772
31600SOL    HW2 6779   4.862   1.702   8.355 -0.7685  1.1915  1.3008
31601SOL     OW 6780   2.672   8.838   4.440  0.1709  0.0504  0.2308
31601SOL    HW1 6781   2.658   8.756   4.393  1.7997 -0.2258  0.1602
31601SOL    HW2 6782   2.748   8.878   4.397  0.6633  0.5974  1.5530
31602SOL     OW 6783   7.684   2.396   8.375 -0.3004  0.6615 -0.0515
31602SOL    HW1 6784   7.706   2.346   8.297  1.5699  1.0602  0.1718
31602SOL    HW2 6785   7.602   2.357   8.407 -1.2751  0.7019 -2.3352
31603SOL     OW 6786   2.648   0.971   5.985  0.2188  0.2734 -0.8332
31603SOL    HW1 6787   2.597   0.956   6.064 -0.5355  2.0795 -0.9399
31603SOL    HW2 6788   2.583   0.973   5.914  0.5719  1.2477 -1.1449
31604SOL     OW 6789   9.783   0.583   3.561  0.0413 -0.4926 -0.3179
31604SOL    HW1 6790   9.878   0.575   3.556  0.0408 -0.0147 -2.9753
31604SOL    HW2 6791   9.751   0.500   3.524 -0.4381  0.5006 -2.3140
31605SOL     OW 6792   6.106   9.878   1.972  0.0317 -0.5918 -0.1750
31605SOL    HW1 6793   6.014   9.853   1.971 -0.1088 -0.1028  0.1200
31605SOL    HW2 6794   6.134   9.873   1.881 -0.8718  1.3321 -0.5977
31606SOL     OW 6795   6.291   3.939   8.479 -0.1672  0.6880  0.2807
31606SOL    HW1 6796   6.290   4.020   8.428 -0.4411 -0.3568 -1.4222
31606SOL    HW2 6797   6.383   3.925   8.500  0.0749  0.6012 -0.8079
31607SOL     OW 6798   3.825   9.266   5.233 -0.2187  0.2276  0.3921
31607SOL    HW1 6799   3.752   9.318   5.201 -1.0435 -1.1294 -0.0100
31607SOL    HW2 6800   3.899   9.291   5.178 -0.5628  1.0363  0.2832
31608SOL     OW 6801   3.248   9.765   0.360  0.5387 -0.4978 -0.0896
31608SOL    HW1 6802   3.325   9.803   0.403 -0.6138  1.7350  0.1275
31608SOL    HW2 6803   3.253   9.797   0.270  0.3753 -1.1726 -0.3451
31609SOL     OW 6804   5.920   4.229   3.330  0.5224  0.1487  0.1575
31609SOL    HW1 6805   5.852   4.204   3.267 -1.1101 -3.2745  2.9800
31609SOL    HW2 6806   5.968   4.149   3.347  2.3648  1.4858  1.6453
31610SOL     OW 6807  10.124   3.832   6.152  0.4305 -0.1254  0.1080
31610SOL    HW1 6808  10.148   3.777   6.227 -0.6095  0.4844  0.9250
31610SOL    HW2 6809  10.155   3.784   6.075 -0.3720 -1.8209  0.7967
31611SOL     OW 6810   7.692   0.217   3.607 -0.4231  0.3165  0.5206
31611SOL    HW1 6811   7.773   0.174   3.636 -1.1957 -0.4810  1.5446
31611SOL    HW2 6812   7.622   0.159   3.636 -1.3428  0.3613 -1.4574
31612SOL     OW 6813   2.779   6.788   5.811  0.1930 -0.0007  0.4532
31612SOL    HW1 6814   2.824   6.735   5.876  0.1208  1.3239  1.6381
31612SOL    HW2 6815   2.702   6.822   5.856  0.4171  1.3769 -0.1231
31613SOL     OW 6816   9.114   5.445   9.737  0.4390 -0.1124  0.0733
31613SOL    HW1 6817   9.181   5.485   9.792  1.0665  1.4049 -1.6760
31613SOL    HW2 6818   9.163   5.396   9.671 -0.2579 -1.0793  0.2600
31614SOL     OW 6819   5.251   8.770   3.855  0.3934 -0.4348 -0.2715
31614SOL    HW1 6820   5.277   8.784   3.764  1.0218  0.9304  0.0841
31614SOL    HW2 6821   5.315   8.819   3.906  0.7225 -2.0882  0.9933
31615SOL     OW 6822   8.251   9.590   7.274 -0.4644  0.4447 -0.3901
31615SOL    HW1 6823   8.261   9.685   7.269 -0.4000  0.5188  0.8896
31615SOL    HW2 6824   8.189   9.576   7.346 -0.2268 -0.4888 -0.3531
31616SOL     OW 6825   6.236   9.548   0.703 -0.3514 -0.1419  0.1101
31616SOL    HW1 6826   6.307   9.578   0.759  0.8651 -1.2950 -0.7504
31616SOL    HW2 6827   6.245   9.452   0.703 -0.8955 -0.2126 -1.3115
31617SOL     OW 6828   7.818   9.426   7.586 -0.2911 -0.2197  0.2861
31617SOL    HW1 6829   7.779   9.352   7.632 -0.4300 -0.4409 -0.1787
31617SOL    HW2 6830   7.772   9.503   7.620  0.1477 -0.3034  1.0804
31618SOL     OW 6831   2.597   7.853   5.553  0.5105 -0.1894 -0.2037
31618SOL    HW1 6832   2.630   7.821   5.637 -1.7192 -0.7651  0.5363
31618SOL    HW2 6833   2.624   7.786   5.490  2.3872  0.3547 -0.0131
31619SOL     OW 6834   1.779   1.551  10.197  0.2809  0.4935  0.0189
31619SOL    HW1 6835   1.800   1.636  10.235 -0.2068  0.5571  0.1465
31619SOL    HW2 6836   1.748   1.571  10.108 -0.9298  0.5554  0.4367
31620SOL     OW 6837   1.322   2.230   2.713 -0.2928  0.3756  0.2899
31620SOL    HW1 6838   1.232   2.199   2.721 -0.6006  1.4303  1.0901
31620SOL    HW2 6839   1.327   2.305   2.771  0.9506  0.6929 -0.1920
31621SOL     OW 6840   2.631   9.437   7.883 -0.5873 -0.2626 -0.4113
31621SOL    HW1 6841   2.687   9.367   7.915  0.3620  0.7553  0.2251
31621SOL    HW2 6842   2.645   9.437   7.788 -1.5773 -1.7336 -0.5897
31622SOL     OW 6843   4.456   0.548   9.238 -0.0293  0.7479 -0.6433
31622SOL    HW1 6844   4.440   0.465   9.192  2.9567 -0.3944  0.1017
31622SOL    HW2 6845   4.468   0.612   9.168 -2.0368  0.5272 -1.2420
31623SOL     OW 6846   8.966   5.349   9.928 -0.2394  0.3754 -0.7143
31623SOL    HW1 6847   9.015   5.414   9.877  1.2863  0.6416  1.0151
31623SOL    HW2 6848   9.001   5.265   9.899  0.5063  0.5177 -0.2544
31624SOL     OW 6849   6.937   2.891   9.976 -0.3576 -0.9225 -0.4519
31624SOL    HW1 6850   6.865   2.907   9.915 -0.8464 -0.9433  0.1179
31624SOL    HW2 6851   6.983   2.975   9.982 -0.3292 -0.9086 -0.8104
31625SOL     OW 6852   6.953   6.856   0.366  0.0902  0.3540 -0.0702
31625SOL    HW1 6853   6.924   6.947   0.367 -1.6550 -0.1443 -1.1358
31625SOL    HW2 6854   7.018   6.851   0.436 -0.6181  2.1458  0.7804
31626SOL     OW 6855   9.973   0.798   9.289 -0.1364 -0.0373 -0.0448
31626SOL    HW1 6856   9.921   0.797   9.370 -0.3020 -1.1504 -0.1553
31626SOL    HW2 6857   9.960   0.711   9.251  1.6273 -0.2530 -0.2074
31627SOL     OW 6858   9.948   2.667   3.216  0.3931  0.1701  0.0016
31627SOL    HW1 6859   9.895   2.702   3.288  0.4960 -1.2436  0.7915
31627SOL    HW2 6860   9.885   2.627   3.156  0.4511 -0.3825  0.3018
31628SOL     OW 6861   3.613   8.214   5.880  0.4170 -0.3004 -0.1592
31628SOL    HW1 6862   3.592   8.123   5.862  1.6103 -0.6322  0.0602
31628SOL    HW2 6863   3.528   8.255   5.898  0.0169 -1.8199  1.7513
31629SOL     OW 6864   2.935   3.790   8.293  1.1810  0.0135 -0.1442
31629SOL    HW1 6865   2.894   3.708   8.265  0.3243  0.5187 -0.4196
31629SOL    HW2 6866   2.983   3.820   8.217 -0.5597  1.0195 -0.9149
31630SOL     OW 6867   3.623  10.153   0.492 -0.3478  0.3072  0.1278
31630SOL    HW1 6868   3.692  10.178   0.430 -1.2874  0.8645 -0.7154
31630SOL    HW2 6869   3.624  10.057   0.491  1.1194  0.2798  0.9434
31631SOL     OW 6870   0.297   2.441   9.852 -0.7456 -0.2457 -0.4511
31631SOL    HW1 6871   0.323   2.371   9.911 -0.4518  0.0239 -0.2602
31631SOL    HW2 6872   0.374   2.497   9.845 -1.4577  0.9380  0.6643
31632SOL     OW 6873   0.301   5.024   9.858 -0.0605 -0.1716 -0.2660
31632SOL    HW1 6874   0.260   4.956   9.911 -0.9914 -0.5614 -1.4419
31632SOL    HW2 6875   0.380   4.983   9.824 -0.2731 -0.4425 -0.4339
31633SOL     OW 6876  10.187   2.717   2.012 -0.0525  0.0228 -0.2585
31633SOL    HW1 6877  10.123   2.669   2.065 -1.6593  0.2412 -1.9103
31633SOL    HW2 6878  10.268   2.668   2.022 -1.0327 -1.5913  0.1082
31634SOL     OW 6879   8.836   0.219   7.578  0.7966  0.1179 -0.4645
31634SOL    HW1 6880   8.871   0.145   7.628  1.4931  1.2668  0.8459
31634SOL    HW2 6881   8.913   0.260   7.540  0.7379  1.5700  0.8716
31635SOL     OW 6882   6.858   8.589   3.739  0.2821 -0.6579 -0.0532
31635SOL    HW1 6883   6.888   8.678   3.755 -1.3960 -0.3801  2.0043
31635SOL    HW2 6884   6.927   8.534   3.777  1.5484 -0.3196 -1.7395
31636SOL     OW 6885   2.761   8.726   9.765 -0.2108 -0.1158  0.3712
31636SOL    HW1 6886   2.809   8.784   9.825 -0.5282  1.0566 -0.4824
31636SOL    HW2 6887   2.797   8.639   9.783 -0.9163  0.0297  2.8874
31637SOL     OW 6888   4.248   9.358   3.707  0.4686  0.0063 -0.0358
31637SOL    HW1 6889   4.294   9.439   3.728  0.0318 -0.0772  1.4016
31637SOL    HW2 6890   4.210   9.373   3.621  0.9580  1.0764 -0.0782
31638SOL     OW 6891   1.929   8.653   5.657  0.4820 -0.0450  0.0864
31638SOL    HW1 6892   1.962   8.585   5.598 -0.7945  0.2664 -1.0438
31638SOL    HW2 6893   1.964   8.734   5.622  1.1418  0.0075  0.8211
31639SOL     OW 6894   6.282   4.840   2.467  0.7638 -0.1528 -0.2364
31639SOL    HW1 6895   6.292   4.774   2.399 -0.9260  0.0390 -0.7260
31639SOL    HW2 6896   6.212   4.806   2.523  1.6322  0.0363  1.0148
31640SOL     OW 6897   5.852   7.621   8.758  0.0315  0.2124  0.5393
31640SOL    HW1 6898   5.885   7.710   8.745 -0.3324  0.2180 -0.4489
31640SOL    HW2 6899   5.757   7.629   8.752  0.0148 -0.3031  0.0011
31641SOL     OW 6900   8.908   0.588   3.793 -0.0554  0.1692 -0.0459
31641SOL    HW1 6901   8.918   0.524   3.723 -0.4588  0.8006 -0.6882
31641SOL    HW2 6902   8.963   0.554   3.864  1.7085  0.3542 -1.2491
31642SOL     OW 6903   8.597   0.701   5.459 -0.7433 -0.2245  0.1504
31642SOL    HW1 6904   8.530   0.738   5.403 -0.3283  0.1880 -0.0895
31642SOL    HW2 6905   8.563   0.712   5.548 -1.2663 -0.6018 -0.0034
31643SOL     OW 6906   8.760   9.536   8.060 -0.4102 -0.0642 -0.0353
31643SOL    HW1 6907   8.728   9.466   8.117 -1.4111 -0.6811 -1.2773
31643SOL    HW2 6908   8.682   9.588   8.040 -0.5270 -0.9751 -2.2991
31644SOL     OW 6909   1.483   0.532   9.837 -0.0604 -0.3085 -0.0403
31644SOL    HW1 6910   1.478   0.626   9.822 -1.1650 -0.0570  1.5811
31644SOL    HW2 6911   1.394   0.507   9.863  0.0975 -1.9049 -0.9011
31645SOL     OW 6912   9.846   1.344  10.271 -0.4036  0.5674  0.5150
31645SOL    HW1 6913   9.867   1.416  10.330 -1.7885  0.1111  1.6148
31645SOL    HW2 6914   9.840   1.386  10.184  2.3478  1.1217  0.4961
31646SOL     OW 6915   3.377   7.201   6.107  0.7060  0.6544 -0.2692
31646SOL    HW1 6916   3.450   7.228   6.164 -0.0451 -0.3278  1.2233
31646SOL    HW2 6917   3.386   7.106   6.102 -1.1775  0.3667  0.9908
31647SOL     OW 6918   3.038   2.857   7.593  0.1156 -0.3504 -0.6232
31647SOL    HW1 6919   3.016   2.884   7.504  1.8389  1.1664 -0.6375
31647SOL    HW2 6920   3.121   2.811   7.585 -0.0916 -0.8982  0.1312
31648SOL     OW 6921   4.584   6.851   6.950 -0.2164 -0.0276  0.0047
31648SOL    HW1 6922   4.593   6.781   7.014 -2.0918  0.6728  1.1221
31648SOL    HW2 6923   4.556   6.927   7.001 -0.5351  0.8931 -1.4736
31649SOL     OW 6924   1.303   6.656   4.070 -0.1345 -0.1900  0.3194
31649SOL    HW1 6925   1.322   6.602   4.147  0.4767  0.8084  0.9005
31649SOL    HW2 6926   1.362   6.731   4.079 -2.0211  1.3724  0.3856
31650SOL     OW 6927   3.824   8.376   9.635 -0.5249 -0.2739  0.1984
31650SOL    HW1 6928   3.878   8.298   9.622 -0.7859 -0.7510  1.7967
31650SOL    HW2 6929   3.886   8.443   9.663 -0.2694  0.1848 -1.3695
31651SOL     OW 6930  10.362   3.736   5.307 -0.9872 -0.1871 -0.2145
31651SOL    HW1 6931  10.295   3.722   5.374  0.4267  1.1661  1.6223
31651SOL    HW2 6932  10.440   3.693   5.343 -0.3712 -0.0589 -1.3562
31652SOL     OW 6933   7.053   0.467   9.813 -0.3693  0.0982 -0.1934
31652SOL    HW1 6934   7.139   0.510   9.816  0.4066 -1.3508 -0.5573
31652SOL    HW2 6935   7.039   0.435   9.902 -1.0462  1.2668  0.1309
31653SOL     OW 6936   8.011   8.613   9.369 -0.3035 -0.6625 -0.4361
31653SOL    HW1 6937   8.042   8.567   9.292  0.8923 -1.3491  0.4162
31653SOL    HW2 6938   8.090   8.634   9.418 -1.0757 -1.2181  1.1281
31654SOL     OW 6939   5.457   4.137   3.469  0.3936  0.4667 -0.1588
31654SOL    HW1 6940   5.478   4.178   3.385 -0.3069  1.5563  0.1779
31654SOL    HW2 6941   5.468   4.206   3.534  2.4204 -0.7507  0.8835
31655SOL     OW 6942   5.163   2.898   3.167 -0.3056  0.0447  0.0339
31655SOL    HW1 6943   5.234   2.854   3.119  0.4460  0.0239  1.1347
31655SOL    HW2 6944   5.096   2.830   3.177 -0.2477 -0.1023 -0.5304
31656SOL     OW 6945  10.227   3.386   9.017 -0.6337 -0.0789  0.9583
31656SOL    HW1 6946  10.162   3.451   9.042 -1.9944 -1.0713  0.1542
31656SOL    HW2 6947  10.266   3.357   9.100 -1.0978  0.6468  1.4381
31657SOL     OW 6948   9.222   1.709   0.479  0.3510 -0.4401 -0.3242
31657SOL    HW1 6949   9.180   1.766   0.543  2.1926 -0.7378  1.2156
31657SOL    HW2 6950   9.282   1.767   0.431  2.6483 -1.0762  1.6233
31658SOL     OW 6951   4.003   1.240   8.305 -0.4232 -0.1091 -0.2373
31658SOL    HW1 6952   4.064   1.186   8.356 -0.0273  1.0083  0.5167
31658SOL    HW2 6953   3.968   1.181   8.239  0.5541 -1.0949  0.0941
31659SOL     OW 6954   5.320  10.227   0.094 -0.2266  0.3794 -0.6278
31659SOL    HW1 6955   5.270  10.286   0.151  0.3395 -0.5346  0.8507
31659SOL    HW2 6956   5.401  10.275   0.075  0.0040  0.3021  0.1402
31660SOL     OW 6957   9.139   6.631   8.588  0.3096 -0.2392 -0.5328
31660SOL    HW1 6958   9.044   6.621   8.578  0.1234  0.0827  0.7258
31660SOL    HW2 6959   9.171   6.542   8.601  0.4013 -0.5240 -2.4646
31661SOL     OW 6960   1.633  10.267   7.098  0.2202  0.1099 -0.4566
31661SOL    HW1 6961   1.723  10.238   7.105  0.3321  0.6673  0.6972
31661SOL    HW2 6962   1.584  10.191   7.067  1.1910  0.0250 -1.8394
31662SOL     OW 6963   5.072   5.742   5.968 -0.5742  0.2024  0.5045
31662SOL    HW1 6964   5.032   5.807   5.910  1.1094  0.2349 -0.7072
31662SOL    HW2 6965   5.066   5.780   6.055 -0.7856  1.4134 -0.0140
31663SOL     OW 6966   4.991   5.646   2.366 -0.6806  0.2631  0.1720
31663SOL    HW1 6967   4.934   5.582   2.324 -0.2230  0.3605 -0.6205
31663SOL    HW2 6968   4.944   5.729   2.360 -0.9516  0.1408  0.5488
31664SOL     OW 6969   0.384   2.526   3.486  0.2986  0.7836 -0.1170
31664SOL    HW1 6970   0.432   2.460   3.435 -1.5513 -0.6132 -0.1675
31664SOL    HW2 6971   0.430   2.531   3.569  0.6483 -0.4150 -0.2150
31665SOL     OW 6972   9.472   6.916   2.129 -0.2531 -0.0709  0.1790
31665SOL    HW1 6973   9.407   6.950   2.190 -0.9671  0.9392 -1.1000
31665SOL    HW2 6974   9.421   6.866   2.064  0.5651 -1.8404  0.8188
31666SOL     OW 6975  10.215   6.715   1.947 -0.0767  0.0675 -0.0209
31666SOL    HW1 6976  10.121   6.731   1.963  0.1625  1.3530  0.2298
31666SOL    HW2 6977  10.259   6.774   2.008  0.8797  1.3971 -1.8873
31667SOL     OW 6978   7.570   1.342   2.502  0.0150 -0.2160 -0.0840
31667SOL    HW1 6979   7.523   1.259   2.500  0.3213 -0.3855 -0.4440
31667SOL    HW2 6980   7.569   1.372   2.411 -0.9779  0.6799  0.2134
31668SOL     OW 6981   8.289   9.154   2.566 -0.0506  0.3323 -0.2030
31668SOL    HW1 6982   8.379   9.122   2.557 -0.2876 -0.3126 -0.3476
31668SOL    HW2 6983   8.251   9.099   2.634 -1.4514 -2.0205 -2.6833
31669SOL     OW 6984   1.086  10.128  10.239 -0.5853  0.3373 -0.2985
31669SOL    HW1 6985   1.087  10.179  10.158 -1.0875 -1.0688 -1.2370
31669SOL    HW2 6986   0.993  10.119  10.261 -0.4371  1.1296  0.7396
31670SOL     OW 6987   5.379   4.387   4.738  0.4170 -0.1173  0.1423
31670SOL    HW1 6988   5.318   4.325   4.699  0.2649  0.3123 -0.3169
31670SOL    HW2 6989   5.446   4.333   4.781 -0.5525 -0.5979  1.0949
31671SOL     OW 6990  10.070   4.722   5.296 -0.0367  0.5702 -0.0956
31671SOL    HW1 6991  10.145   4.779   5.275  1.1803 -0.8378  0.2950
31671SOL    HW2 6992  10.055   4.736   5.389  0.2395  0.2913 -0.0073
31672SOL     OW 6993   4.959   1.174  10.224 -0.2488 -0.1887 -0.0716
31672SOL    HW1 6994   5.011   1.103  10.186 -1.5389 -1.3142  0.1773
31672SOL    HW2 6995   5.016   1.211  10.292  0.8195 -0.3056 -0.8653
31673SOL     OW 6996   5.088   4.549   4.917  0.2552 -0.5774 -0.0268
31673SOL    HW1 6997   5.081   4.644   4.912 -2.3467 -0.7384 -0.7803
31673SOL    HW2 6998   5.124   4.533   5.005 -0.5087  1.0719  0.6355
31674SOL     OW 6999   4.424   7.418  10.147 -0.2761 -0.2040  0.0494
31674SOL    HW1 7000   4.334   7.415  10.115 -1.1064  0.9913  2.0738
31674SOL    HW2 7001   4.434   7.507  10.182  1.3947 -0.5933  0.6794
31675SOL     OW 7002   1.560   2.813   8.308 -0.0259 -0.2279 -0.2875
31675SOL    HW1 7003   1.543   2.797   8.215  2.2963 -0.9560 -0.6239
31675SOL    HW2 7004   1.544   2.729   8.350 -0.3539 -0.0799 -0.1062
31676SOL     OW 7005   9.612   7.822   7.311 -0.0016  0.2647  0.3697
31676SOL    HW1 7006   9.585   7.788   7.396  1.2080  0.8686  1.0356
31676SOL    HW2 7007   9.550   7.891   7.291 -1.7841 -1.4761 -0.4511
31677SOL     OW 7008   8.580   0.373   5.119 -0.3771 -0.2455  0.5359
31677SOL    HW1 7009   8.540   0.425   5.189  0.5785  0.6064  0.4694
31677SOL    HW2 7010   8.546   0.410   5.038  0.9097  0.8287  0.4600
31678SOL     OW 7011   8.958   5.442   4.150 -0.2764  0.1057  0.3672
31678SOL    HW1 7012   9.003   5.526   4.140  0.3047 -0.4160 -1.9235
31678SOL    HW2 7013   8.988   5.408   4.234  0.6853  1.4748  0.6104
31679SOL     OW 7014   2.104   9.318   1.180  0.4654  0.1016  0.4843
31679SOL    HW1 7015   2.112   9.410   1.155  0.4911  0.0373  0.2472
31679SOL    HW2 7016   2.194   9.290   1.198  0.6764 -0.2954 -0.9878
31680SOL     OW 7017   0.076   5.509   1.613 -0.7769 -0.4289  0.5946
31680SOL    HW1 7018   0.079   5.548   1.701 -3.0046 -0.9279  0.9603
31680SOL    HW2 7019  -0.011   5.532   1.580  0.7984  1.7577 -2.5067
31681SOL     OW 7020   0.376   6.940   4.097 -0.2783  0.5535 -0.5549
31681SOL    HW1 7021   0.391   7.014   4.038 -0.1229 -0.0558 -1.2771
31681SOL    HW2 7022   0.349   6.982   4.180 -0.8908  1.3997 -1.1596
31682SOL     OW 7023   8.747   1.223   1.053  0.3232 -0.0269  0.2585
31682SOL    HW1 7024   8.711   1.221   1.141 -0.1238 -0.5011  0.0733
31682SOL    HW2 7025   8.693   1.288   1.007 -0.0918 -0.5006  0.0694
31683SOL     OW 7026   7.935   8.439   5.457  0.1394 -0.1234 -0.1115
31683SOL    HW1 7027   7.893   8.501   5.397 -1.3898 -1.4688 -0.5002
31683SOL    HW2 7028   8.028   8.447   5.438 -0.0718  1.4689 -0.7014
31684SOL     OW 7029   4.287   1.207   7.981  0.0649 -1.0036 -0.2018
31684SOL    HW1 7030   4.218   1.207   8.048  1.3630 -2.0843  1.1961
31684SOL    HW2 7031   4.363   1.171   8.025  1.3742 -0.4414 -1.8971
31685SOL     OW 7032   3.582   9.641   3.954  0.1624  0.2882  0.5010
31685SOL    HW1 7033   3.565   9.581   4.027 -0.5046  0.9107  0.8694
31685SOL    HW2 7034   3.604   9.724   3.996  0.6273  0.4243 -0.0067
31686SOL     OW 7035   1.401   1.812   8.231  0.3437  0.0828 -0.6331
31686SOL    HW1 7036   1.356   1.895   8.246  0.1303  0.1804 -1.7407
31686SOL    HW2 7037   1.357   1.751   8.291  0.8759  0.8675  0.5954
31687SOL     OW 7038   1.077   5.922   2.489  0.4017 -0.0401 -0.0944
31687SOL    HW1 7039   1.148   5.964   2.440  0.2772  2.1994  1.5299
31687SOL    HW2 7040   1.049   5.987   2.553 -1.3185 -1.8462  1.1210
31688SOL     OW 7041   9.636   0.482   6.910 -0.2125  0.0130  0.3604
31688SOL    HW1 7042   9.579   0.559   6.905 -1.1127 -0.6576  0.0230
31688SOL    HW2 7043   9.688   0.486   6.829 -0.3150  0.2176  0.3032
31689SOL     OW 7044   3.870   1.694   8.354  0.0090 -0.0403 -0.1390
31689SOL    HW1 7045   3.842   1.694   8.262 -2.4339  2.5235  0.4720
31689SOL    HW2 7046   3.884   1.602   8.375 -1.0083 -0.8305 -2.6144
31690SOL     OW 7047   8.478   0.080  10.323  0.1267 -0.0711  0.3439
31690SOL    HW1 7048   8.456   0.118  10.408 -2.7082 -0.6005 -0.0424
31690SOL    HW2 7049   8.564   0.041  10.335  0.8549  1.9382  2.2380
31691SOL     OW 7050   4.887   6.679   5.568  0.2502  0.0019  0.4136
31691SOL    HW1 7051   4.955   6.656   5.632 -0.3166  1.5408  1.6342
31691SOL    HW2 7052   4.808   6.690   5.621 -0.6029 -0.2342 -0.7819
31692SOL     OW 7053   5.752   9.415   8.207 -0.0491  0.0040  0.0004
31692SOL    HW1 7054   5.752   9.327   8.169 -0.6127 -0.2448  0.5527
31692SOL    HW2 7055   5.688   9.464   8.155  1.3262  0.5408 -1.2650
31693SOL     OW 7056   4.437   5.968   1.415  0.0705 -0.5872 -0.4552
31693SOL    HW1 7057   4.423   6.003   1.503  1.0963 -0.2999 -0.3923
31693SOL    HW2 7058   4.390   5.884   1.414  0.2769 -0.7135  0.4476
31694SOL     OW 7059  10.241   7.097   5.505  0.5388 -0.1219 -0.0020
31694SOL    HW1 7060  10.241   7.091   5.409 -1.4420  0.6931 -0.1029
31694SOL    HW2 7061  10.305   7.031   5.533 -0.7160 -2.2632 -1.8047
31695SOL     OW 7062   8.597   4.749   9.890  0.0245  0.1944 -0.1196
31695SOL    HW1 7063   8.686   4.758   9.926  0.1734 -0.4140 -0.3172
31695SOL    HW2 7064   8.542   4.801   9.948  0.7184  1.8011 -0.8345
31696SOL     OW 7065   0.791   3.402   6.076  0.0023 -0.6905  0.3183
31696SOL    HW1 7066   0.854   3.361   6.016  1.5445 -1.1288  2.1271
31696SOL    HW2 7067   0.721   3.337   6.084  0.0162 -0.8353 -0.6178
31697SOL     OW 7068   2.747   3.812   4.496 -0.0796 -0.3037 -0.7800
31697SOL    HW1 7069   2.699   3.892   4.517 -0.1702 -1.1150  2.6407
31697SOL    HW2 7070   2.681   3.742   4.506  1.1112 -1.1989  1.4291
31698SOL     OW 7071   2.801   6.857   1.045 -0.5157 -0.2722 -0.1774
31698SOL    HW1 7072   2.723   6.819   1.005 -0.5589  0.4595 -0.8034
31698SOL    HW2 7073   2.841   6.909   0.976 -0.5280  0.9401  0.6910
31699SOL     OW 7074   8.959   6.545   9.640 -0.0061  0.0888 -0.2849
31699SOL    HW1 7075   8.872   6.509   9.656 -0.1776  0.8149  0.4571
31699SOL    HW2 7076   8.947   6.609   9.570  0.0617 -0.3146 -0.6692
31700SOL     OW 7077   0.383   6.356   8.671 -0.3230  0.1589 -0.2381
31700SOL    HW1 7078   0.412   6.429   8.727  0.9406 -0.1196 -0.5087
31700SOL    HW2 7079   0.296   6.334   8.705  0.1360  0.4280  1.2024
31701SOL     OW 7080   0.040   1.057   4.230 -0.0260 -0.2798  0.4773
31701SOL    HW1 7081   0.128   1.045   4.192 -0.5351  0.1519 -0.8949
31701SOL    HW2 7082  -0.015   1.082   4.156 -0.8326  1.7631  1.6905
31702SOL     OW 7083   9.269   0.114   6.659  0.1603  0.1992  0.0962
31702SOL    HW1 7084   9.355   0.151   6.681  1.6643 -1.8922 -1.7526
31702SOL    HW2 7085   9.221   0.186   6.618  1.4465  1.1464  0.1911
31703SOL     OW 7086   9.002   5.466   3.114  0.3861 -0.0310  0.0415
31703SOL    HW1 7087   9.024   5.542   3.167 -0.1512  0.0817  0.1028
31703SOL    HW2 7088   9.081   5.449   3.063  1.6303 -1.3093  2.2555
31704SOL     OW 7089   8.866   9.709   3.556 -0.7274  0.1085  0.9315
31704SOL    HW1 7090   8.786   9.684   3.510  0.1620  0.3320 -0.8020
31704SOL    HW2 7091   8.893   9.791   3.515  1.1368 -0.6700  0.5223
31705SOL     OW 7092   5.320   6.990   8.755  0.0260 -0.0847 -0.4836
31705SOL    HW1 7093   5.299   7.045   8.680  1.9061  0.3706 -0.7182
31705SOL    HW2 7094   5.410   6.962   8.741 -0.1633 -1.4328  0.7373
31706SOL     OW 7095   0.233   2.720   5.878  0.0591  0.2097  0.6728
31706SOL    HW1 7096   0.254   2.710   5.785 -0.1416 -1.8236  0.8033
31706SOL    HW2 7097   0.277   2.647   5.920  2.1860  2.4087  2.5817
31707SOL     OW 7098   4.244   8.627   0.194 -0.0056  0.1650 -0.5902
31707SOL    HW1 7099   4.181   8.633   0.122  0.5906  0.1455 -1.1201
31707SOL    HW2 7100   4.330   8.631   0.152  0.3551  0.8420  0.1806
31708SOL     OW 7101   1.613   7.859   1.160 -0.2976 -0.4422 -0.0481
31708SOL    HW1 7102   1.567   7.778   1.179 -1.3785 -0.6494 -3.0552
31708SOL    HW2 7103   1.566   7.897   1.086  3.0259  0.4817 -1.8674
31709SOL     OW 7104   6.745   4.101   2.615 -0.1040  0.4018  0.3736
31709SOL    HW1 7105   6.731   4.192   2.640  0.6633  0.2779  1.3296
31709SOL    HW2 7106   6.662   4.073   2.577 -0.8434  1.0535  1.4688
31710SOL     OW 7107   8.901   1.536   5.848  0.1343 -0.2964  0.0961
31710SOL    HW1 7108   8.889   1.443   5.831 -0.4230 -0.1306 -0.4480
31710SOL    HW2 7109   8.978   1.560   5.797  0.7382 -0.6074  0.8276
31711SOL     OW 7110   8.411   7.413   1.701 -0.2652  0.6572  0.5902
31711SOL    HW1 7111   8.481   7.352   1.680 -0.3224 -0.6262  3.6015
31711SOL    HW2 7112   8.372   7.435   1.617  3.1972  0.8269 -1.1349
31712SOL     OW 7113   1.280   4.737   1.779 -0.1256  0.0817  0.0580
31712SOL    HW1 7114   1.189   4.718   1.801 -0.1686  1.6678  1.3647
31712SOL    HW2 7115   1.276   4.772   1.690 -0.4748 -2.0399 -0.8324
31713SOL     OW 7116   9.436   3.661   4.254  0.4338 -0.0520 -0.4723
31713SOL    HW1 7117   9.348   3.677   4.222  1.0282  0.1074 -2.1182
31713SOL    HW2 7118   9.434   3.687   4.346 -1.6121 -1.4631 -0.0517
31714SOL     OW 7119   9.204   5.161   4.634 -0.4275  0.1138  0.0426
31714SOL    HW1 7120   9.283   5.147   4.687 -0.1925  0.2406 -0.2722
31714SOL    HW2 7121   9.218   5.109   4.555 -1.2547 -0.9417  0.5684
31715SOL     OW 7122   0.659   1.501   6.945 -0.1573  0.0657  0.2689
31715SOL    HW1 7123   0.601   1.533   6.875 -1.8424 -0.9920  1.1074
31715SOL    HW2 7124   0.646   1.563   7.016  0.7292  0.5321  0.0340
31716SOL     OW 7125   3.504   1.309  10.358  0.2770 -0.6562  0.4574
31716SOL    HW1 7126   3.468   1.297  10.270 -0.9004  2.6526  0.3302
31716SOL    HW2 7127   3.453   1.249  10.413 -2.4739  0.6554 -0.4559
31717SOL     OW 7128   5.788   9.759   5.191 -0.2367  0.2261 -0.3015
31717SOL    HW1 7129   5.774   9.682   5.136 -0.2352  0.5625 -0.7758
31717SOL    HW2 7130   5.813   9.828   5.130  0.7047  0.3643  0.2161
31718SOL     OW 7131   1.981   2.021   0.037  0.9071 -0.6944  0.0456
31718SOL    HW1 7132   1.976   1.933  -0.001  0.9292 -0.5465 -0.2982
31718SOL    HW2 7133   1.918   2.019   0.109  1.0530 -1.0548  0.1681
31719SOL     OW 7134   8.619   4.205   7.117 -0.0344 -0.5622 -0.1702
31719SOL    HW1 7135   8.703   4.211   7.163  0.1366  1.0174 -0.6213
31719SOL    HW2 7136   8.629   4.264   7.043 -1.0466 -1.4848 -1.0592
31720SOL     OW 7137   5.902   7.272   4.248 -0.7122  0.9050 -0.2585
31720SOL    HW1 7138   5.817   7.304   4.278  0.0971  2.6236  0.2896
31720SOL    HW2 7139   5.888   7.179   4.231 -2.3764  0.8849  1.0371
31721SOL     OW 7140   6.594   6.205   7.077  0.1169  0.1426 -0.7229
31721SOL    HW1 7141   6.661   6.172   7.137  0.0464  1.7883  0.3114
31721SOL    HW2 7142   6.611   6.299   7.069 -1.9883  0.6139 -0.4911
31722SOL     OW 7143   7.461   8.261   2.174 -0.0840  0.3189  0.2124
31722SOL    HW1 7144   7.436   8.285   2.085  2.4901  1.5577 -0.2988
31722SOL    HW2 7145   7.385   8.283   2.228 -1.1762  0.9137 -1.5019
31723SOL     OW 7146   3.949   0.609   6.806 -0.7004 -0.2209  0.4261
31723SOL    HW1 7147   3.995   0.576   6.883 -1.2682  0.8466  1.2569
31723SOL    HW2 7148   3.891   0.538   6.780 -0.3102 -0.6864  0.8190
31724SOL     OW 7149  10.163   9.013   9.926  0.0354 -0.0998 -0.3719
31724SOL    HW1 7150  10.084   9.057   9.957 -0.0278 -0.2175 -0.3649
31724SOL    HW2 7151  10.138   8.976   9.841  0.8150  2.0308 -1.6150
31725SOL     OW 7152   9.905   3.912   0.498  0.7389  0.5882  0.0354
31725SOL    HW1 7153  10.000   3.924   0.501  0.9086 -0.4559 -0.8140
31725SOL    HW2 7154   9.872   3.970   0.567  2.0843 -0.0162  1.2462
31726SOL     OW 7155   3.766   3.777   4.094 -0.2494 -0.2207  0.2491
31726SOL    HW1 7156   3.780   3.734   4.178 -1.5688 -0.5993  0.3076
31726SOL    HW2 7157   3.680   3.745   4.065 -0.5228  1.1118 -0.4868
31727SOL     OW 7158   1.196   5.637   0.531 -0.4635  0.2071  0.5195
31727SOL    HW1 7159   1.265   5.702   0.546 -0.0743 -0.2816  0.8710
31727SOL    HW2 7160   1.140   5.643   0.609 -1.4909  1.4044 -0.2686
31728SOL     OW 7161   9.595   1.890   1.630  0.0739 -0.6179 -0.5060
31728SOL    HW1 7162   9.674   1.942   1.614 -0.1786 -0.3421 -0.8854
31728SOL    HW2 7163   9.523   1.952   1.618 -0.1715 -0.6603  0.6717
31729SOL     OW 7164   3.347   9.691  10.032  0.4139  0.1373 -0.1320
31729SOL    HW1 7165   3.441   9.679  10.044  0.8128  2.1027 -1.0090
31729SOL    HW2 7166   3.320   9.613   9.982  1.4775 -0.6420  0.4548
31730SOL     OW 7167   6.665   9.798   2.622 -0.5114  0.1523 -0.6298
31730SOL    HW1 7168   6.578   9.787   2.660  0.7613  0.1961  2.5932
31730SOL    HW2 7169   6.656   9.872   2.562 -2.3331  1.3823  1.0239
31731SOL     OW 7170   6.638   5.308   4.433 -0.0826 -0.2525 -0.1804
31731SOL    HW1 7171   6.557   5.347   4.465 -0.3499  0.4153 -1.6243
31731SOL    HW2 7172   6.610   5.235   4.377  0.3798 -1.4515  1.0846
31732SOL     OW 7173   1.278   4.838   0.299 -0.2175  0.4406 -0.6379
31732SOL    HW1 7174   1.348   4.866   0.358  0.7377 -1.6785 -0.6771
31732SOL    HW2 7175   1.283   4.898   0.225  1.3148  0.5817 -0.4485
31733SOL     OW 7176   9.401   6.566   6.626  0.0685 -0.3873  0.2710
31733SOL    HW1 7177   9.352   6.506   6.683  2.5100 -0.5362  2.4317
31733SOL    HW2 7178   9.475   6.594   6.680 -0.1969  3.5389 -1.1239
31734SOL     OW 7179   2.338   4.795   9.844  0.0684  0.3206  0.3452
31734SOL    HW1 7180   2.259   4.849   9.844 -0.0220  0.1825  0.1041
31734SOL    HW2 7181   2.400   4.846   9.897  0.0651  0.7846 -0.0886
31735SOL     OW 7182   0.171   2.440   3.682 -0.1051  0.1743  0.4685
31735SOL    HW1 7183   0.178   2.469   3.773  1.8837 -1.4582  0.9255
31735SOL    HW2 7184   0.261   2.434   3.651 -0.7085  0.1631 -1.4553
31736SOL     OW 7185  10.122   9.745   7.551  0.4097 -0.5142  0.0571
31736SOL    HW1 7186  10.109   9.651   7.537  0.5644 -0.6107  0.5212
31736SOL    HW2 7187  10.123   9.783   7.464 -0.1219 -0.8836 -0.1162
31737SOL     OW 7188   3.927   4.327   6.145 -0.6060  0.9730 -0.5752
31737SOL    HW1 7189   3.845   4.282   6.164  1.2297 -1.1933  3.6213
31737SOL    HW2 7190   3.924   4.407   6.197  0.5060  0.0543  0.9717
31738SOL     OW 7191   6.141   1.579   9.346  0.0216 -0.3243 -0.5156
31738SOL    HW1 7192   6.106   1.606   9.431  1.2836 -0.4571  0.0648
31738SOL    HW2 7193   6.190   1.655   9.315 -2.0414  0.4426 -2.0718
31739SOL     OW 7194   8.661   2.480   1.429  0.2926 -0.0321 -0.2238
31739SOL    HW1 7195   8.735   2.540   1.422 -0.0476  0.6357  1.3549
31739SOL    HW2 7196   8.696   2.395   1.400  1.4750  0.4201 -0.1878
31740SOL     OW 7197   2.173   1.151   8.811  0.1594 -0.1382 -0.0558
31740SOL    HW1 7198   2.229   1.090   8.763  0.4985 -0.4044  0.6732
31740SOL    HW2 7199   2.226   1.180   8.885  0.1956  1.4439 -0.6526
31741SOL     OW 7200   9.056   7.896   4.724 -0.3814  0.2415 -0.2046
31741SOL    HW1 7201   8.961   7.896   4.710 -1.1690 -1.2972  3.8574
31741SOL    HW2 7202   9.075   7.981   4.762  0.1883  1.0179 -2.0984
31742SOL     OW 7203   6.059   7.904   7.015 -1.0542  0.4992  0.0848
31742SOL    HW1 7204   6.036   7.846   6.943  0.9808 -0.1542 -0.1020
31742SOL    HW2 7205   6.127   7.961   6.980 -1.0656  1.1523  1.0799
31743SOL     OW 7206   8.274   4.404   9.873  0.2707 -0.8411 -0.2696
31743SOL    HW1 7207   8.275   4.487   9.825 -2.0593 -0.1677  0.6873
31743SOL    HW2 7208   8.359   4.364   9.854  0.2838  0.3191 -3.2258
31744SOL     OW 7209   4.056   8.397   4.419 -0.0185 -0.1247 -0.0607
31744SOL    HW1 7210   3.991   8.453   4.462  0.1934 -0.1869  0.3484
31744SOL    HW2 7211   4.008   8.319   4.393  0.0098 -0.4118  0.7402
31745SOL     OW 7212   6.571   9.902   1.484  0.7483 -0.1924 -0.2796
31745SOL    HW1 7213   6.574   9.814   1.447  2.3326 -0.2309 -0.1582
31745SOL    HW2 7214   6.479   9.927   1.481  0.3671 -1.5861 -0.9378
31746SOL     OW 7215   4.146   2.290   4.617 -0.0622  0.4533  0.1938
31746SOL    HW1 7216   4.138   2.279   4.522 -0.2466  1.2464  0.1116
31746SOL    HW2 7217   4.089   2.223   4.654 -0.1580  0.2825 -0.2584
31747SOL     OW 7218   6.924   2.905   7.552  0.0483 -0.3721  0.3482
31747SOL    HW1 7219   6.833   2.918   7.580 -0.3746  0.6738 -1.3579
31747SOL    HW2 7220   6.941   2.976   7.490  1.7755 -1.0133  0.0206
31748SOL     OW 7221   3.189   3.156   8.515 -0.2214  0.1411  0.1831
31748SOL    HW1 7222   3.131   3.135   8.589 -0.3751 -1.0986 -0.2725
31748SOL    HW2 7223   3.176   3.250   8.501 -0.1904  0.4049  1.7272
31749SOL     OW 7224  10.383   6.654   9.280 -0.9354 -0.9567  0.0821
31749SOL    HW1 7225  10.430   6.570   9.278  2.2838  0.7196 -0.5418
31749SOL    HW2 7226  10.355   6.667   9.190  0.6604 -0.3380 -0.3579
31750SOL     OW 7227   1.811   1.378   2.955 -0.1836 -0.5758  0.1513
31750SOL    HW1 7228   1.810   1.341   3.044  0.2582  0.5642  0.6471
31750SOL    HW2 7229   1.768   1.463   2.964  0.7187 -0.0307 -0.5330
31751SOL     OW 7230   4.081   1.333   6.507  0.3440 -0.3948 -0.2035
31751SOL    HW1 7231   4.063   1.246   6.472 -1.5286  0.3189 -1.1268
31751SOL    HW2 7232   4.061   1.392   6.435 -2.6615  1.0862  1.6506
31752SOL     OW 7233   9.291   2.823   3.712 -0.1173  0.3163  0.8825
31752SOL    HW1 7234   9.375   2.777   3.707 -0.2333  0.2399 -1.0063
31752SOL    HW2 7235   9.314   2.915   3.720  0.1651  0.3316 -0.0246
31753SOL     OW 7236   3.650   9.583   5.304 -0.3162  0.1777  0.2221
31753SOL    HW1 7237   3.598   9.628   5.238 -0.2657 -0.4784 -0.2719
31753SOL    HW2 7238   3.739   9.615   5.291 -0.7090  2.0531  1.7079
31754SOL     OW 7239   2.342   3.300   5.160 -0.3579  0.3761 -0.6544
31754SOL    HW1 7240   2.307   3.371   5.107  1.8484  0.5569 -1.9647
31754SOL    HW2 7241   2.294   3.222   5.131  0.9162  0.4224 -3.1805
31755SOL     OW 7242   3.215   2.747   4.991 -0.2312 -0.2632  0.3319
31755SOL    HW1 7243   3.268   2.724   5.067 -0.2898  0.7354  0.6932
31755SOL    HW2 7244   3.143   2.683   4.992  1.4843 -2.3547 -0.8035
31756SOL     OW 7245   5.356   2.136   8.230 -0.4623 -0.7014 -0.1632
31756SOL    HW1 7246   5.400   2.111   8.148  2.3265  3.4738 -0.2412
31756SOL    HW2 7247   5.406   2.091   8.298  0.3284 -0.4738 -0.5745
31757SOL     OW 7248   2.268   8.096   0.869  0.8638  0.3568 -0.2324
31757SOL    HW1 7249   2.320   8.055   0.799  0.8904 -0.9781  0.5281
31757SOL    HW2 7250   2.332   8.145   0.920  0.8334  1.4019 -1.1588
31758SOL     OW 7251   9.121   7.098   5.225 -0.1017  0.3101  0.3530
31758SOL    HW1 7252   9.041   7.077   5.176 -0.5355  2.2397  0.1434
31758SOL    HW2 7253   9.146   7.184   5.194  3.4232 -1.1350 -1.2440
31759SOL     OW 7254   7.153   5.135   9.108 -0.1549 -0.0442  0.0963
31759SOL    HW1 7255   7.141   5.090   9.192  0.1429 -0.8873 -0.3008
31759SOL    HW2 7256   7.176   5.225   9.131 -3.2157  0.6601  0.9418
31760SOL     OW 7257   1.744   3.747   9.182  0.2489 -0.1176 -0.4153
31760SOL    HW1 7258   1.696   3.820   9.222 -0.1682 -0.4688 -0.2638
31760SOL    HW2 7259   1.771   3.779   9.096  0.0796  0.2192 -0.3428
31761SOL     OW 7260   8.843   9.207   7.741  0.2615 -0.3419  0.0433
31761SOL    HW1 7261   8.758   9.244   7.717  0.6494  0.3953 -0.2297
31761SOL    HW2 7262   8.904   9.243   7.677  0.5551 -2.0185 -0.6604
31762SOL     OW 7263   7.333   8.703   2.905  0.1004  0.1861  0.4193
31762SOL    HW1 7264   7.305   8.791   2.929 -0.7554 -0.2193  0.9592
31762SOL    HW2 7265   7.282   8.645   2.961  0.4256 -0.6716 -0.1381
31763SOL     OW 7266   1.385   7.541   0.510  0.1144  0.1136  0.6333
31763SOL    HW1 7267   1.417   7.584   0.589  1.0374  0.0956  0.2835
31763SOL    HW2 7268   1.463   7.501   0.471 -0.3587 -0.0342 -0.1933
31764SOL     OW 7269   0.982   9.471   2.676 -0.1571  0.2418 -0.0268
31764SOL    HW1 7270   1.034   9.519   2.740  1.4091 -0.4776 -0.7066
31764SOL    HW2 7271   0.938   9.404   2.727  2.1375 -1.2041  0.2195
31765SOL     OW 7272   5.579  10.145   2.050  0.4898 -0.7584  0.0510
31765SOL    HW1 7273   5.551  10.060   2.083 -0.6057 -1.4877 -2.4740
31765SOL    HW2 7274   5.529  10.208   2.102  0.3458 -1.7060  1.1090
31766SOL     OW 7275   9.180   6.657   5.804  0.4247  0.1032 -0.3512
31766SOL    HW1 7276   9.098   6.647   5.854 -0.3302 -1.8060 -1.8551
31766SOL    HW2 7277   9.152   6.692   5.720  1.0437 -1.1026 -1.0848
31767SOL     OW 7278   5.082   3.616   0.142  0.1845 -0.3408  0.5099
31767SOL    HW1 7279   5.034   3.697   0.126  1.4634  0.0945 -1.3991
31767SOL    HW2 7280   5.104   3.583   0.055  0.5448 -2.2289  1.2741
31768SOL     OW 7281   2.220   9.979   7.260  0.2655  0.1445 -0.2035
31768SOL    HW1 7282   2.156   9.910   7.275 -1.7414  1.9054 -0.2137
31768SOL    HW2 7283   2.226   9.985   7.164  0.5989 -0.1437 -0.2023
31769SOL     OW 7284  10.147   3.857   8.240  0.1686 -0.7588  0.2405
31769SOL    HW1 7285  10.077   3.898   8.290  0.3061 -1.0742  0.6902
31769SOL    HW2 7286  10.192   3.800   8.302  0.3614 -1.1298 -0.2326
31770SOL     OW 7287   4.059   9.549   6.479  0.2463 -0.6250  0.5341
31770SOL    HW1 7288   4.013   9.483   6.531  0.3918 -1.7811 -0.7291
31770SOL    HW2 7289   4.152   9.537   6.501  0.1580  0.1635  1.3843
31771SOL     OW 7290   4.786   1.333   8.373 -0.1690 -0.5705 -0.7497
31771SOL    HW1 7291   4.786   1.272   8.448 -0.1364 -1.2191 -1.2711
31771SOL    HW2 7292   4.812   1.279   8.299  0.2570  0.1794 -1.1493
31772SOL     OW 7293   1.218   7.112   8.421 -0.2764 -0.2601 -0.3909
31772SOL    HW1 7294   1.124   7.120   8.438 -0.4958 -0.2628 -1.5184
31772SOL    HW2 7295   1.236   7.018   8.432 -0.7431 -0.5241 -1.7246
31773SOL     OW 7296   5.693   1.472   5.499  0.1712  0.4966 -0.0482
31773SOL    HW1 7297   5.777   1.429   5.480 -0.9248 -1.4971 -0.6311
31773SOL    HW2 7298   5.635   1.401   5.525 -1.3043  1.8631  0.5443
31774SOL     OW 7299   5.562   5.851   2.524  0.2770 -0.1944 -0.2643
31774SOL    HW1 7300   5.615   5.849   2.604  0.0720  0.7961 -0.0900
31774SOL    HW2 7301   5.598   5.780   2.470  0.1886 -1.1083  0.8324
31775SOL     OW 7302   3.452   0.576   1.711 -0.1207  0.1936  0.6436
31775SOL    HW1 7303   3.405   0.630   1.775 -0.8303  0.1032  0.2114
31775SOL    HW2 7304   3.437   0.621   1.627  0.8057  0.3172  0.5353
31776SOL     OW 7305   2.242   1.505   1.746 -0.2690  0.3174 -0.2855
31776SOL    HW1 7306   2.236   1.433   1.810  0.2675 -0.1710 -0.7768
31776SOL    HW2 7307   2.154   1.511   1.709  0.0343 -1.1282 -1.3425
31777SOL     OW 7308   2.724   1.572   5.013  0.1476  0.5889 -0.3126
31777SOL    HW1 7309   2.644   1.564   5.065  0.2250  0.4655 -0.2113
31777SOL    HW2 7310   2.795   1.553   5.075  0.2792  1.1016 -0.3044
31778SOL     OW 7311   0.390   7.539   6.671 -0.2922 -0.0570 -0.0606
31778SOL    HW1 7312   0.364   7.621   6.629 -1.9593 -0.3186  0.3836
31778SOL    HW2 7313   0.471   7.514   6.627  0.2239  1.7838 -0.2476
31779SOL     OW 7314   4.332   8.155   7.991 -0.0046  0.2033  0.9872
31779SOL    HW1 7315   4.344   8.185   7.901  0.1835 -1.0537  0.5725
31779SOL    HW2 7316   4.420   8.136   8.023  0.0165  1.4939  1.7665
31780SOL     OW 7317   0.147   6.392   9.089 -0.2363 -0.2421  0.3525
31780SOL    HW1 7318   0.077   6.343   9.131 -0.3243 -0.3799  0.0539
31780SOL    HW2 7319   0.104   6.443   9.020  0.2753 -2.8182 -2.0888
31781SOL     OW 7320  10.270   2.291   3.155  0.1310 -0.3357 -0.0002
31781SOL    HW1 7321  10.272   2.387   3.150  1.6646 -0.3876 -0.9625
31781SOL    HW2 7322  10.178   2.270   3.167 -0.3653  1.2189 -0.8399
31782SOL     OW 7323   9.442   7.929   8.062 -0.3352  0.4184 -0.1895
31782SOL    HW1 7324   9.508   7.897   8.123 -1.3815 -0.8524  0.3393
31782SOL    HW2 7325   9.424   7.854   8.004 -0.8205  0.9496 -0.7504
31783SOL     OW 7326   2.122   6.320   3.139  0.0461 -0.1508  0.6412
31783SOL    HW1 7327   2.128   6.403   3.091 -1.0761  0.3341  1.3025
31783SOL    HW2 7328   2.211   6.307   3.174  0.3468  0.5491  0.1722
31784SOL     OW 7329   1.060   8.609   6.134  0.5405  0.4035  0.5831
31784SOL    HW1 7330   1.008   8.535   6.103 -0.6247  1.4786 -0.1086
31784SOL    HW2 7331   1.149   8.575   6.139  0.2117 -0.7530 -0.7712
31785SOL     OW 7332   0.221   9.632   2.414  0.9758 -0.0209 -0.8850
31785SOL    HW1 7333   0.306   9.599   2.443  0.6621  0.3976  0.6378
31785SOL    HW2 7334   0.239   9.675   2.330  1.7510 -2.2034 -1.9029
31786SOL     OW 7335   7.918   6.483   0.300 -0.0064  0.7797  0.7658
31786SOL    HW1 7336   7.872   6.494   0.383  1.5448 -1.2934  1.9957
31786SOL    HW2 7337   7.986   6.550   0.300  0.6102  0.1729  1.6685
31787SOL     OW 7338   8.886   7.036   2.253  0.3993  0.0255 -0.7049
31787SOL    HW1 7339   8.899   7.056   2.345  1.0426 -0.3876 -0.6983
31787SOL    HW2 7340   8.952   6.969   2.233  0.1625 -0.0079 -1.4212
31788SOL     OW 7341   6.667   6.092   6.569 -0.1132 -0.3192  0.0131
31788SOL    HW1 7342   6.581   6.064   6.600 -0.0701 -1.4923 -0.8401
31788SOL    HW2 7343   6.679   6.180   6.606 -2.2371  0.4286 -0.8977
31789SOL     OW 7344   3.684   1.999   9.114  0.1596 -0.2526  0.4114
31789SOL    HW1 7345   3.594   1.976   9.135 -0.4273  0.8111 -0.7832
31789SOL    HW2 7346   3.711   2.058   9.185  0.3414 -1.4934  1.3935
31790SOL     OW 7347   7.607   7.532   8.256  0.2640 -0.3547 -0.0085
31790SOL    HW1 7348   7.680   7.552   8.315 -0.4240 -0.1696  0.8003
31790SOL    HW2 7349   7.649   7.501   8.175  1.2141 -1.0037  0.7163
31791SOL     OW 7350   2.516   8.833   1.616  0.2384 -0.9919 -0.2070
31791SOL    HW1 7351   2.517   8.802   1.707 -1.8799  1.3597  0.7493
31791SOL    HW2 7352   2.500   8.754   1.564  2.2938 -2.5393  1.2874
31792SOL     OW 7353   9.320   3.004   1.734  0.5217  0.1242  0.1980
31792SOL    HW1 7354   9.272   3.082   1.761 -1.1902 -0.4545 -0.9578
31792SOL    HW2 7355   9.295   2.937   1.798  3.4165  0.8950  2.2775
31793SOL     OW 7356   3.117   6.702   0.539  0.0420  0.3943  0.2011
31793SOL    HW1 7357   3.026   6.674   0.527  0.4423 -1.4283  1.0493
31793SOL    HW2 7358   3.110   6.788   0.580 -1.2862  0.7010 -0.5989
31794SOL     OW 7359   4.935   8.021   4.693 -0.0985 -0.0582 -0.4322
31794SOL    HW1 7360   5.003   8.072   4.649  0.5054 -0.4293  0.0525
31794SOL    HW2 7361   4.869   8.086   4.718  1.5467  0.8973  1.9197
31795SOL     OW 7362   1.397  10.089   3.766  0.4998 -0.2665  0.3124
31795SOL    HW1 7363   1.444  10.018   3.809 -1.6143 -1.2216  1.2245
31795SOL    HW2 7364   1.415  10.167   3.819  0.8427 -0.6496  0.7570
31796SOL     OW 7365   5.311   5.250   6.465 -0.1466  0.3534  0.0895
31796SOL    HW1 7366   5.395   5.255   6.419  0.1404  0.1185  0.5777
31796SOL    HW2 7367   5.315   5.167   6.514 -0.8922  0.0578 -0.3239
31797SOL     OW 7368   2.271   8.427   9.057  0.7344  0.4117  0.1415
31797SOL    HW1 7369   2.212   8.390   9.123  0.2116  0.3599 -0.3462
31797SOL    HW2 7370   2.302   8.351   9.008 -0.6370  0.6130 -1.1085
31798SOL     OW 7371   8.548   1.839   5.423  0.5195 -0.0365 -0.0773
31798SOL    HW1 7372   8.474   1.893   5.396 -0.1613 -0.3955  1.0098
31798SOL    HW2 7373   8.609   1.900   5.464 -0.4690 -0.1061  1.6074
31799SOL     OW 7374   6.046   6.750   5.282  0.3192 -0.6041  0.1070
31799SOL    HW1 7375   6.108   6.812   5.318  0.4321 -0.6511 -0.0062
31799SOL    HW2 7376   5.961   6.777   5.317  0.0314  0.9367 -1.6337
31800SOL     OW 7377   5.332   7.570   8.758 -0.4016 -0.2091  0.3575
31800SOL    HW1 7378   5.361   7.487   8.720 -1.9238  0.4205 -2.4034
31800SOL    HW2 7379   5.238   7.572   8.742  0.0184  3.6535 -3.3396
31801SOL     OW 7380   2.045   7.882   1.617 -0.1707  0.8361 -0.2803
31801SOL    HW1 7381   2.129   7.916   1.586  0.1020  0.6251  0.2160
31801SOL    HW2 7382   2.052   7.787   1.606 -0.6411  0.8748 -0.9571
31802SOL     OW 7383   2.620   2.793   2.743 -0.2684 -0.4868 -0.0438
31802SOL    HW1 7384   2.602   2.717   2.798 -1.2112 -0.8040 -0.7645
31802SOL    HW2 7385   2.587   2.768   2.656  1.3558 -0.0878 -0.8327
31803SOL     OW 7386   7.428   3.390   7.992 -0.2642  0.0857  0.0895
31803SOL    HW1 7387   7.515   3.409   8.026 -0.4166 -0.4689  0.8264
31803SOL    HW2 7388   7.413   3.456   7.924  0.7841  0.0898 -0.1492
31804SOL     OW 7389   7.426   0.735   9.710  0.3422  0.1874 -0.2913
31804SOL    HW1 7390   7.362   0.800   9.680  1.8942  2.0131  0.1618
31804SOL    HW2 7391   7.507   0.758   9.663  0.8637 -1.6635 -0.3687
31805SOL     OW 7392   9.831   0.820   5.370  0.6125 -0.0859  0.1205
31805SOL    HW1 7393   9.923   0.801   5.389 -0.0435 -1.8661  1.7824
31805SOL    HW2 7394   9.821   0.797   5.277  1.7078 -0.3991  0.0621
31806SOL     OW 7395   3.135   4.624   9.079  0.4252 -0.1556 -0.3759
31806SOL    HW1 7396   3.142   4.647   9.171 -0.4615 -0.8390 -0.1215
31806SOL    HW2 7397   3.171   4.535   9.073  1.0826  0.1306 -0.8128
31807SOL     OW 7398   5.850   3.466   2.350 -0.4357  0.1041  0.4707
31807SOL    HW1 7399   5.930   3.431   2.310  0.0770  0.8937  0.7824
31807SOL    HW2 7400   5.862   3.453   2.444 -1.7496 -1.9772  0.4177
31808SOL     OW 7401   8.105   5.126   0.252  0.6063 -0.4819 -0.5951
31808SOL    HW1 7402   8.038   5.059   0.264 -0.0333  0.4233  1.2297
31808SOL    HW2 7403   8.150   5.131   0.336 -0.5051  2.5201 -0.0309
31809SOL     OW 7404   5.841   0.240   7.337 -0.7140 -0.2202  0.2212
31809SOL    HW1 7405   5.870   0.260   7.248 -0.2739  1.4099  0.7070
31809SOL    HW2 7406   5.910   0.184   7.373 -1.1991 -1.4345 -0.6335
31810SOL     OW 7407   9.480   0.713   0.976  0.2123 -0.3861  0.4571
31810SOL    HW1 7408   9.529   0.654   1.033  1.9844  0.9479  0.4055
31810SOL    HW2 7409   9.547   0.758   0.925 -0.8709  2.9386  1.7064
31811SOL     OW 7410   4.932   7.887   1.603  0.4557  0.0417 -0.9360
31811SOL    HW1 7411   4.939   7.973   1.645 -1.0583 -0.5839  0.7146
31811SOL    HW2 7412   5.022   7.866   1.577  1.3849  0.8153  1.3839
31812SOL     OW 7413   5.843   7.738   6.436  0.8612 -0.9034  0.8929
31812SOL    HW1 7414   5.810   7.690   6.359 -0.6796  1.9327 -0.3513
31812SOL    HW2 7415   5.915   7.791   6.402  1.5623 -1.1828  1.9113
31813SOL     OW 7416   2.474   8.006  10.366 -0.3776 -0.1649  0.7417
31813SOL    HW1 7417   2.434   7.921  10.348  0.0210 -0.5699  1.6888
31813SOL    HW2 7418   2.420   8.044  10.435 -0.6841  0.4594  0.1695
31814SOL     OW 7419   5.688   1.254   3.709  0.0811 -0.2142  0.2025
31814SOL    HW1 7420   5.687   1.159   3.703 -1.8189 -0.1737 -0.6786
31814SOL    HW2 7421   5.739   1.283   3.633  1.4673 -0.5086  0.9792
31815SOL     OW 7422   5.744   0.542   9.731 -0.2625  0.0081 -0.5608
31815SOL    HW1 7423   5.777   0.495   9.655  1.1165 -1.1337  0.6826
31815SOL    HW2 7424   5.650   0.524   9.732 -0.3756  0.3603 -2.1751
31816SOL     OW 7425   2.935   9.042   8.606  0.1867  0.6249 -0.5741
31816SOL    HW1 7426   2.903   9.112   8.549  0.6300  0.1879 -1.3858
31816SOL    HW2 7427   2.984   8.984   8.547  0.4822  0.0479  0.2213
31817SOL     OW 7428   4.344   6.237   5.335  0.0363 -0.1906 -0.4148
31817SOL    HW1 7429   4.411   6.226   5.402  1.1063 -0.9324 -1.5605
31817SOL    HW2 7430   4.314   6.148   5.315 -2.2105  0.1808  0.9171
31818SOL     OW 7431   6.299   0.257   4.680 -0.1759  0.3242  0.3964
31818SOL    HW1 7432   6.333   0.184   4.629  0.8397  0.3027  1.0680
31818SOL    HW2 7433   6.252   0.311   4.617  0.2488 -0.1866 -0.3721
31819SOL     OW 7434   6.457   8.727   7.086  0.0382 -0.2899  0.0034
31819SOL    HW1 7435   6.447   8.634   7.066 -1.1643 -0.1963  0.1361
31819SOL    HW2 7436   6.437   8.734   7.180 -2.4180  0.4437 -0.5057
31820SOL     OW 7437   0.300   3.790   5.321  0.0745  0.3715 -0.4453
31820SOL    HW1 7438   0.300   3.813   5.414  0.4027  2.9062 -1.0107
31820SOL    HW2 7439   0.392   3.773   5.301 -0.0356 -0.5006 -0.2723
31821SOL     OW 7440   3.935   3.555   9.137 -0.0880 -0.1398 -0.0180
31821SOL    HW1 7441   3.924   3.460   9.148 -0.0854 -0.2055 -0.5559
31821SOL    HW2 7442   3.866   3.593   9.191 -1.0091 -0.4850 -0.9209
31822SOL     OW 7443   5.124   8.788   8.185  0.1684  0.6164  0.2662
31822SOL    HW1 7444   5.195   8.728   8.206  0.2070 -0.6136 -2.8071
31822SOL    HW2 7445   5.130   8.799   8.090 -1.6719  3.1996  0.3684
31823SOL     OW 7446   5.780   5.779   7.300  0.1652 -0.0197 -0.7122
31823SOL    HW1 7447   5.767   5.846   7.233  1.0452  0.3688 -0.5109
31823SOL    HW2 7448   5.868   5.745   7.283  1.2227  1.4559  1.4072
31824SOL     OW 7449   5.744   6.559   7.480 -0.0206  0.0569  0.1301
31824SOL    HW1 7450   5.695   6.493   7.529 -0.5120  0.9383  0.8566
31824SOL    HW2 7451   5.797   6.508   7.419 -0.2720 -1.0165  0.7693
31825SOL     OW 7452   0.444   5.822   9.055 -0.1361  0.2246 -1.0044
31825SOL    HW1 7453   0.391   5.762   9.108  1.9696 -0.0886  0.8715
31825SOL    HW2 7454   0.462   5.773   8.975 -0.8528 -0.5014 -0.7449
31826SOL     OW 7455   6.712   1.232   8.959  0.9165 -0.7645  0.1240
31826SOL    HW1 7456   6.772   1.197   8.893  1.0212 -0.6482  0.1563
31826SOL    HW2 7457   6.706   1.325   8.938  1.1297 -0.6826  0.4177
31827SOL     OW 7458   6.364   9.266   0.453  0.0843 -0.5422 -0.3353
31827SOL    HW1 7459   6.426   9.217   0.507 -0.7804 -1.0212  0.2450
31827SOL    HW2 7460   6.375   9.230   0.365  0.8457 -0.3973 -0.3089
31828SOL     OW 7461   0.662   4.829   4.173  0.4258 -0.0115  0.3570
31828SOL    HW1 7462   0.623   4.803   4.257 -1.7679 -0.2404 -0.6767
31828SOL    HW2 7463   0.634   4.919   4.161  1.3986  0.2814  0.2108
31829SOL     OW 7464   6.808   9.174   7.101 -0.5018  0.5320 -0.2355
31829SOL    HW1 7465   6.751   9.099   7.116 -0.2054  0.2687 -0.4253
31829SOL    HW2 7466   6.892   9.148   7.140 -0.8836  1.4547  1.3104
31830SOL     OW 7467   2.999  10.008   8.730  0.1401 -0.0790  0.1140
31830SOL    HW1 7468   2.958  10.093   8.744  1.8587  0.6420  1.2147
31830SOL    HW2 7469   3.052  10.019   8.651 -1.0673 -0.7302 -0.8057
31831SOL     OW 7470   3.939   4.798   1.613 -0.1140  0.7472 -0.7223
31831SOL    HW1 7471   3.956   4.704   1.605  1.1412  1.0443 -2.1962
31831SOL    HW2 7472   3.949   4.832   1.524 -3.0554  1.9368 -0.6937
31832SOL     OW 7473   8.563   9.361   6.865 -0.1215  0.1228  0.1995
31832SOL    HW1 7474   8.652   9.382   6.894 -0.0497  0.9778 -0.6007
31832SOL    HW2 7475   8.541   9.281   6.913  0.5892  0.5991  1.3544
31833SOL     OW 7476   2.744   4.257   8.523  0.3828 -0.1459  0.1579
31833SOL    HW1 7477   2.651   4.276   8.536  0.2021 -0.4375 -0.6152
31833SOL    HW2 7478   2.784   4.342   8.508 -0.1372 -0.1520 -1.6052
31834SOL     OW 7479   1.712   1.752   2.438 -0.2863  0.4928 -0.3106
31834SOL    HW1 7480   1.694   1.661   2.416  0.1133  0.2201  0.4277
31834SOL    HW2 7481   1.756   1.788   2.361 -0.5044  0.0786 -0.6278
31835SOL     OW 7482   8.494   9.707   9.067  0.1825 -0.1601 -0.1100
31835SOL    HW1 7483   8.443   9.738   9.142 -1.3148  0.2175 -1.2297
31835SOL    HW2 7484   8.432   9.656   9.015  1.7377 -2.2873 -0.0291
31836SOL     OW 7485   4.643   0.263   0.119 -0.4148  0.0418  0.1679
31836SOL    HW1 7486   4.673   0.215   0.041  1.5602  0.3611  0.6862
31836SOL    HW2 7487   4.692   0.225   0.191 -0.4741  1.3421  0.9183
31837SOL     OW 7488   2.068   3.647   0.172 -0.1058 -0.1962  0.0070
31837SOL    HW1 7489   2.033   3.680   0.089 -2.5916  2.1795  1.7873
31837SOL    HW2 7490   2.016   3.568   0.190 -0.3994 -0.0424 -0.1552
31838SOL     OW 7491   4.574   9.611   5.236 -0.0024 -0.1019  0.4210
31838SOL    HW1 7492   4.526   9.538   5.275  1.0897 -1.5227 -0.7680
31838SOL    HW2 7493   4.662   9.605   5.273  0.1805  0.4448  0.0937
31839SOL     OW 7494   2.872   4.806  10.084 -0.4905  0.0293 -0.0267
31839SOL    HW1 7495   2.920   4.743  10.031 -1.9131  0.1164 -1.4887
31839SOL    HW2 7496   2.807   4.753  10.131  0.5419 -0.0028  1.4131
31840SOL     OW 7497   5.346   4.687   6.610 -0.0998 -0.1900  0.1952
31840SOL    HW1 7498   5.439   4.710   6.613 -0.3379  1.3544 -1.9624
31840SOL    HW2 7499   5.325   4.661   6.699  1.5869  2.8035  1.6009
31841SOL     OW 7500   7.876   9.510   5.327  0.1900 -0.0250 -0.1169
31841SOL    HW1 7501   7.800   9.544   5.374  1.0978  0.4271  1.0496
31841SOL    HW2 7502   7.908   9.438   5.382  0.4826 -0.3606 -0.7156
31842SOL     OW 7503   7.557   7.827   8.953 -0.2442 -0.1340 -0.5182
31842SOL    HW1 7504   7.489   7.865   8.898 -0.4529 -1.6669 -1.3686
31842SOL    HW2 7505   7.571   7.739   8.918  2.9375  0.4551 -1.0689
31843SOL     OW 7506   1.582   0.608  10.142  0.2305 -0.3820 -0.1740
31843SOL    HW1 7507   1.652   0.601  10.077  0.1702 -0.1659 -0.2647
31843SOL    HW2 7508   1.528   0.531  10.129  0.3131 -0.4239 -0.2680
31844SOL     OW 7509   5.944   4.911   3.184 -0.1181  0.0623  0.1069
31844SOL    HW1 7510   5.953   4.982   3.121 -0.7614  0.5173  0.5079
31844SOL    HW2 7511   5.871   4.939   3.240 -0.1862 -0.7805  0.4463
31845SOL     OW 7512   1.032   8.979   9.883 -0.2158 -0.2556 -0.2033
31845SOL    HW1 7513   0.958   9.040   9.877 -0.7024 -0.9766 -2.4796
31845SOL    HW2 7514   1.023   8.940   9.970 -1.1349  1.3425  0.4627
31846SOL     OW 7515   5.391   6.540   7.041  0.3039 -0.2985 -0.1194
31846SOL    HW1 7516   5.310   6.493   7.023  0.5089 -0.1752 -1.4801
31846SOL    HW2 7517   5.389   6.558   7.135 -0.9536 -0.8230 -0.0381
31847SOL     OW 7518  10.144   8.655   1.568  0.2160 -0.4815 -0.1363
31847SOL    HW1 7519  10.155   8.746   1.597  1.5668 -0.7334  0.1889
31847SOL    HW2 7520  10.155   8.659   1.473  0.4124 -0.3239 -0.1078
31848SOL     OW 7521   2.919   6.074   6.733  0.0690  0.3349 -0.3091
31848SOL    HW1 7522   2.833   6.034   6.734  0.8191 -1.4367 -1.3957
31848SOL    HW2 7523   2.906   6.161   6.772 -2.0006 -0.2132  0.3389
31849SOL     OW 7524   6.757   5.185   7.956  0.1860 -0.0009 -0.3820
31849SOL    HW1 7525   6.708   5.226   8.027  0.5997  1.6609 -1.0051
31849SOL    HW2 7526   6.708   5.105   7.935 -1.0834  0.5554  0.3767
31850SOL     OW 7527   0.386   6.526   4.134  0.0784 -0.2156 -0.2995
31850SOL    HW1 7528   0.333   6.559   4.062 -1.0806  1.0356  1.0672
31850SOL    HW2 7529   0.455   6.475   4.092 -0.4580  0.6234 -2.2830
31851SOL     OW 7530   8.262   9.383  10.014 -0.2660 -0.5811 -0.1948
31851SOL    HW1 7531   8.250   9.295  10.049 -1.5801 -1.1576 -1.9070
31851SOL    HW2 7532   8.202   9.386   9.939  0.6686  1.3560 -0.9140
31852SOL     OW 7533   0.426   0.939   8.978 -0.1834 -0.2433 -0.1420
31852SOL    HW1 7534   0.418   0.864   9.038  1.1672 -1.1665 -1.0498
31852SOL    HW2 7535   0.508   0.923   8.931 -2.2075 -0.8116 -3.8847
31853SOL     OW 7536   7.242   1.771   7.508 -0.0743  0.1853  0.0493
31853SOL    HW1 7537   7.155   1.767   7.468  0.1638 -1.5845 -0.3695
31853SOL    HW2 7538   7.285   1.690   7.480  1.8732  1.2234 -0.0948
31854SOL     OW 7539   3.521   2.602   5.716  0.2163 -0.2012 -0.0860
31854SOL    HW1 7540   3.606   2.643   5.702  0.9534 -0.4366  2.9569
31854SOL    HW2 7541   3.528   2.518   5.672  0.4854  0.8895 -2.2328
31855SOL     OW 7542   4.884   2.923   7.332  0.3175 -0.2711 -0.0599
31855SOL    HW1 7543   4.923   3.009   7.314 -1.7151  0.4543 -1.4940
31855SOL    HW2 7544   4.934   2.862   7.278  1.5328  0.0447  0.6696
31856SOL     OW 7545   9.069  10.111   7.861 -0.1132 -0.0494  0.3606
31856SOL    HW1 7546   9.068  10.116   7.956 -0.3255  0.0627  0.3549
31856SOL    HW2 7547   9.159  10.132   7.836 -0.3551  1.2085  0.4778
31857SOL     OW 7548   3.968   4.057   8.164  0.2487  0.5267 -0.3031
31857SOL    HW1 7549   4.059   4.036   8.182  1.1380  1.2486 -3.3820
31857SOL    HW2 7550   3.955   4.143   8.204  1.1761  0.7896 -0.5385
31858SOL     OW 7551   1.566   3.043   8.453  0.0722  0.0811 -0.0373
31858SOL    HW1 7552   1.571   2.952   8.426 -0.1941  0.1393 -0.2896
31858SOL    HW2 7553   1.537   3.090   8.375  0.8745  0.4782 -0.1046
31859SOL     OW 7554   2.721   3.906   7.105  1.0612  0.2816  0.6329
31859SOL    HW1 7555   2.744   3.925   7.196 -1.2819  0.2242  1.3032
31859SOL    HW2 7556   2.668   3.827   7.109  1.6785 -0.2568 -0.9177
31860SOL     OW 7557   2.763   3.381   5.070  0.2909 -0.2389  0.2860
31860SOL    HW1 7558   2.714   3.452   5.030  0.8300 -0.1289 -0.1927
31860SOL    HW2 7559   2.779   3.319   4.999  0.3915 -0.5243  0.5527
31861SOL     OW 7560   7.490   9.881   1.898 -0.0900  0.6470  0.2797
31861SOL    HW1 7561   7.451   9.940   1.962 -2.0673 -1.0974  0.8119
31861SOL    HW2 7562   7.511   9.936   1.823 -0.6265  2.2200  1.2481
31862SOL     OW 7563   6.255   1.386   3.463  0.4223  0.0094  0.1866
31862SOL    HW1 7564   6.193   1.328   3.508  1.6181 -1.6362 -0.1765
31862SOL    HW2 7565   6.218   1.396   3.375  0.1182 -0.0838  0.3024
31863SOL     OW 7566   4.291   0.342   5.043  0.8137 -0.4294  0.3433
31863SOL    HW1 7567   4.375   0.316   5.005  0.9949 -1.2636  1.2996
31863SOL    HW2 7568   4.273   0.277   5.110 -1.7954 -1.7247 -1.4354
31864SOL     OW 7569   0.149   7.895   1.614 -0.6811  1.1056  0.5714
31864SOL    HW1 7570   0.108   7.886   1.528  1.0405  0.8054 -0.2650
31864SOL    HW2 7571   0.140   7.808   1.654  1.2655  0.2780 -0.6458
31865SOL     OW 7572   9.687   6.958   9.150  0.2183  0.1295  0.2895
31865SOL    HW1 7573   9.598   6.940   9.181 -0.7420  2.8635 -0.5563
31865SOL    HW2 7574   9.744   6.922   9.217 -1.4609 -2.4638  0.4585
31866SOL     OW 7575   3.754   7.165   3.557 -0.1887 -0.6693  0.2583
31866SOL    HW1 7576   3.664   7.151   3.529  0.1144 -0.7306 -0.7266
31866SOL    HW2 7577   3.760   7.119   3.641 -0.9849 -0.9459  0.1753
31867SOL     OW 7578   7.504   4.501   8.477  0.0192 -0.0790  0.1217
31867SOL    HW1 7579   7.461   4.491   8.392 -0.4562  0.3457  0.3133
31867SOL    HW2 7580   7.546   4.416   8.492  0.3335 -0.0684 -0.6609
31868SOL     OW 7581   2.676   5.011   5.743  0.0851  0.3970 -0.1256
31868SOL    HW1 7582   2.744   5.052   5.690 -0.0336  0.2310 -0.4141
31868SOL    HW2 7583   2.626   4.958   5.680  0.1177 -0.0295  0.2084
31869SOL     OW 7584   3.768   0.781   3.892 -0.6675  0.6598 -0.0206
31869SOL    HW1 7585   3.765   0.876   3.904  1.9634  0.8121  0.0549
31869SOL    HW2 7586   3.732   0.767   3.804 -0.9219  1.7485 -0.1090
31870SOL     OW 7587   0.614   5.114   4.107 -0.2873 -0.0496  0.1340
31870SOL    HW1 7588   0.690   5.171   4.093 -0.6588  0.8921  1.6109
31870SOL    HW2 7589   0.600   5.071   4.023  0.5072  1.4503 -0.8118
31871SOL     OW 7590   9.054   1.594   9.548 -0.2794  0.4259 -0.2667
31871SOL    HW1 7591   8.995   1.632   9.613  0.8206 -1.4781  1.9809
31871SOL    HW2 7592   9.139   1.633   9.568  0.2430 -0.8271  0.0550
31872SOL     OW 7593   3.018   6.032   6.032  0.3463 -0.2344  0.0949
31872SOL    HW1 7594   2.982   5.965   6.090  0.6563  0.2648  0.8837
31872SOL    HW2 7595   2.948   6.051   5.970 -0.7813  0.7120  1.5903
31873SOL     OW 7596   7.903   9.918   4.521 -0.1966 -0.2990  0.2700
31873SOL    HW1 7597   7.814   9.948   4.541  0.0115  1.0610 -0.6440
31873SOL    HW2 7598   7.897   9.823   4.519 -1.4857 -0.2446  0.8768
31874SOL     OW 7599   9.554   9.661   6.575 -0.1550 -0.7291  0.0374
31874SOL    HW1 7600   9.497   9.649   6.650 -1.4199 -1.9478 -1.0640
31874SOL    HW2 7601   9.589   9.750   6.585 -1.8221 -0.1425  1.0392
31875SOL     OW 7602  10.121   9.386   4.674  0.7723  0.0319  0.6190
31875SOL    HW1 7603  10.084   9.419   4.756 -0.4086 -0.3429  0.2497
31875SOL    HW2 7604  10.200   9.338   4.701  0.4079 -0.0749  1.5297
31876SOL     OW 7605   5.702   7.629   6.193 -0.6256 -0.2345 -0.3785
31876SOL    HW1 7606   5.670   7.541   6.213 -1.6313  0.1593 -0.1860
31876SOL    HW2 7607   5.738   7.622   6.105 -1.1181 -0.7366 -0.5458
31877SOL     OW 7608  10.112   8.093   9.741  0.1215  0.5876  0.0021
31877SOL    HW1 7609  10.080   8.006   9.763 -1.0753  0.5385 -1.6497
31877SOL    HW2 7610  10.181   8.111   9.804  1.7061 -2.3083 -0.7351
31878SOL     OW 7611   8.448   0.751   3.803  0.3534  0.2005  0.0933
31878SOL    HW1 7612   8.444   0.832   3.853 -2.0124  0.3071 -0.1309
31878SOL    HW2 7613   8.375   0.698   3.837  0.2740 -0.7768 -1.4620
31879SOL     OW 7614   9.071   6.389   2.749 -0.2841 -0.1618 -0.1714
31879SOL    HW1 7615   9.072   6.485   2.743 -0.1028  0.0141  1.8034
31879SOL    HW2 7616   9.145   6.361   2.695 -0.7092  0.7528 -1.2760
31880SOL     OW 7617   3.058   8.071   4.153 -0.2120 -0.1324  0.1193
31880SOL    HW1 7618   3.119   8.094   4.223  1.9299 -3.2148 -0.5532
31880SOL    HW2 7619   3.108   8.083   4.072 -1.4228 -0.1630 -0.6616
31881SOL     OW 7620   3.784   0.966   6.514 -0.5799 -0.3566 -0.2372
31881SOL    HW1 7621   3.701   0.996   6.552 -0.4319 -0.6324  0.3172
31881SOL    HW2 7622   3.765   0.876   6.486  0.1275 -1.2349  1.9134
31882SOL     OW 7623   9.980   1.401   2.790  0.3525 -0.3919  0.2526
31882SOL    HW1 7624   9.926   1.362   2.858 -0.5781 -1.4415 -1.0403
31882SOL    HW2 7625   9.925   1.402   2.712  1.0144  1.7591 -0.2742
31883SOL     OW 7626   8.588   4.686   5.481  0.0712  0.3068 -0.0918
31883SOL    HW1 7627   8.522   4.750   5.454  0.4358  0.8832  0.3597
31883SOL    HW2 7628   8.631   4.659   5.399 -0.7610 -0.1355 -0.4015
31884SOL     OW 7629   6.909   6.398   3.263 -0.2016 -0.9935 -0.0006
31884SOL    HW1 7630   6.820   6.392   3.297 -0.4888 -1.9801 -0.8341
31884SOL    HW2 7631   6.897   6.422   3.171  0.5225  1.1229  0.4070
31885SOL     OW 7632   7.568   3.013   1.504  0.0702  0.3054 -0.1759
31885SOL    HW1 7633   7.506   2.972   1.444 -0.4809  0.6500  0.1514
31885SOL    HW2 7634   7.602   3.088   1.456  0.1964  0.1458 -0.3370
31886SOL     OW 7635   4.511  10.100   3.499  0.1682  0.1383 -0.2082
31886SOL    HW1 7636   4.463  10.031   3.455 -1.8193  0.7948  0.7743
31886SOL    HW2 7637   4.531  10.164   3.430 -0.4405 -0.1325 -0.6414
31887SOL     OW 7638   9.023   8.619   9.474  0.5666  0.2045 -0.6772
31887SOL    HW1 7639   9.065   8.651   9.394 -0.6567  1.6392 -0.7944
31887SOL    HW2 7640   9.044   8.684   9.541  0.2040 -0.1090 -0.2495
31888SOL     OW 7641   1.889   1.780   4.436  0.5638 -0.0587  0.2448
31888SOL    HW1 7642   1.914   1.868   4.408 -0.0988  0.3493  0.9004
31888SOL    HW2 7643   1.795   1.776   4.423  0.6565 -0.8539 -0.2425
31889SOL     OW 7644   7.974   9.561   8.376  0.4540  0.3712  0.0673
31889SOL    HW1 7645   8.016   9.597   8.298 -0.5302 -1.5339 -1.4335
31889SOL    HW2 7646   8.023   9.481   8.395  0.1822  0.4003  0.9489
31890SOL     OW 7647   7.198   8.045   2.161  0.1632 -0.5695 -0.6948
31890SOL    HW1 7648   7.158   8.033   2.247 -1.3071 -2.6000 -1.5912
31890SOL    HW2 7649   7.125   8.060   2.102  1.0969  0.1005 -1.7213
31891SOL     OW 7650   1.084   7.282   3.198 -0.8418 -0.3081 -0.3040
31891SOL    HW1 7651   1.151   7.227   3.238  0.2434  0.2280 -1.3247
31891SOL    HW2 7652   1.007   7.227   3.193 -1.3095 -0.1743  3.2144
31892SOL     OW 7653   4.879   0.528   9.143 -0.1071  0.1776 -0.2968
31892SOL    HW1 7654   4.817   0.540   9.215  0.7791 -1.7928  0.8779
31892SOL    HW2 7655   4.916   0.441   9.157  3.4800  1.4743 -0.4947
31893SOL     OW 7656   5.930   4.631   8.684  0.2521  0.1912  0.4852
31893SOL    HW1 7657   5.907   4.649   8.775 -0.3514  0.9951  0.1830
31893SOL    HW2 7658   5.922   4.716   8.640  1.1412 -0.0575 -0.1980
31894SOL     OW 7659   6.500   1.011   6.813  0.6860 -0.7020  0.0769
31894SOL    HW1 7660   6.460   0.984   6.730 -0.3066  0.4016  0.1686
31894SOL    HW2 7661   6.558   1.084   6.788 -1.2408  1.0987  0.5705
31895SOL     OW 7662   3.056   1.402   4.371  0.0487 -0.2800 -0.3540
31895SOL    HW1 7663   3.030   1.450   4.449  1.5853  1.5305 -0.8798
31895SOL    HW2 7664   2.974   1.379   4.328 -0.7717  1.5468  0.1343
31896SOL     OW 7665   5.451   0.670   4.652 -0.2997 -0.1982 -0.6859
31896SOL    HW1 7666   5.529   0.614   4.658  0.8364  1.3844 -0.0607
31896SOL    HW2 7667   5.388   0.629   4.711  0.7648 -0.4344  0.3178
31897SOL     OW 7668   6.968   1.323   9.167 -0.2567 -0.1991 -0.0896
31897SOL    HW1 7669   6.928   1.239   9.188  3.7379 -3.0132 -2.2738
31897SOL    HW2 7670   6.978   1.367   9.252 -3.2779 -1.4022  1.0061
31898SOL     OW 7671   4.550   1.535  10.199  0.1203  0.7974  0.5439
31898SOL    HW1 7672   4.604   1.470  10.245 -0.2545  0.7885  0.9706
31898SOL    HW2 7673   4.549   1.611  10.257  2.1887  1.9572 -0.8122
31899SOL     OW 7674   6.876   9.669  10.141  0.7428  0.2592  0.0812
31899SOL    HW1 7675   6.855   9.576  10.140  0.0942  0.4017 -0.7017
31899SOL    HW2 7676   6.852   9.698  10.229  3.4887 -0.8421  1.3055
31900SOL     OW 7677   2.429   2.525   7.743  0.0024 -0.4896  0.2317
31900SOL    HW1 7678   2.425   2.436   7.778 -0.1205 -0.1212  1.1737
31900SOL    HW2 7679   2.348   2.534   7.692  0.2364 -1.0672 -0.2507
31901SOL     OW 7680   9.406   0.829  10.140  0.1252 -0.0916  0.4709
31901SOL    HW1 7681   9.422   0.738  10.165  0.1328 -0.3631 -0.4701
31901SOL    HW2 7682   9.462   0.843  10.063  0.6464  0.9188  1.0199
31902SOL     OW 7683   0.263   3.910   5.571 -0.0105  0.4028 -0.3903
31902SOL    HW1 7684   0.245   3.990   5.521  0.3511  0.9457  0.3293
31902SOL    HW2 7685   0.325   3.938   5.639 -0.8838 -0.2126  0.6798
31903SOL     OW 7686   6.533   0.686   2.594  0.4153  0.0555 -0.1806
31903SOL    HW1 7687   6.510   0.764   2.544 -0.5523 -0.6644 -0.8821
31903SOL    HW2 7688   6.629   0.681   2.587  0.4259  0.8091 -0.6822
31904SOL     OW 7689   0.387   0.575   3.570  0.1398 -0.3230 -0.0330
31904SOL    HW1 7690   0.301   0.604   3.600 -0.3671  1.9227 -3.1683
31904SOL    HW2 7691   0.368   0.506   3.506  1.0301 -2.8549  2.2197
31905SOL     OW 7692   0.289   3.435   7.492 -0.2709 -0.0057 -0.3547
31905SOL    HW1 7693   0.196   3.439   7.469 -0.1062  0.4806 -0.9597
31905SOL    HW2 7694   0.334   3.473   7.417  0.2580  2.2304  1.0197
31906SOL     OW 7695   6.143   5.114   2.128 -0.6075 -0.1597 -0.2521
31906SOL    HW1 7696   6.138   5.028   2.087  0.2296  0.2786 -1.3476
31906SOL    HW2 7697   6.136   5.097   2.222  1.7290 -1.6790 -0.2597
31907SOL     OW 7698   3.162   8.131   3.918  0.4953  0.0432  0.4454
31907SOL    HW1 7699   3.119   8.211   3.888  0.0221 -0.8986 -1.5267
31907SOL    HW2 7700   3.253   8.141   3.890  0.0500 -0.8428 -1.4323
31908SOL     OW 7701   3.232   7.262   7.357 -0.2041  0.1308  0.5509
31908SOL    HW1 7702   3.321   7.278   7.389 -1.0684  1.0320  2.7002
31908SOL    HW2 7703   3.198   7.193   7.413 -0.9362 -0.0841 -0.1349
31909SOL     OW 7704   1.102   3.935   4.400  0.1603 -0.0434 -0.4737
31909SOL    HW1 7705   1.144   3.997   4.341 -0.8356 -0.7876 -2.0284
31909SOL    HW2 7706   1.011   3.930   4.368  0.0829 -1.8882 -0.0655
31910SOL     OW 7707   3.418   0.052   1.898 -0.0403 -0.2536  0.1014
31910SOL    HW1 7708   3.415  -0.009   1.825  1.4665 -1.1920  0.7722
31910SOL    HW2 7709   3.512   0.063   1.916 -0.3121  1.4883  0.6484
31911SOL     OW 7710   0.535   8.976   4.080 -0.5938  0.2634  0.0806
31911SOL    HW1 7711   0.601   9.026   4.032 -1.2668 -0.2171 -1.4135
31911SOL    HW2 7712   0.580   8.895   4.104 -0.5518  0.0232 -0.7571
31912SOL     OW 7713   6.144   5.592   7.620  0.4033  0.3916  0.2111
31912SOL    HW1 7714   6.093   5.523   7.579 -0.2723  0.9123  0.1634
31912SOL    HW2 7715   6.230   5.586   7.578  0.6148 -0.9276  0.7864
31913SOL     OW 7716   4.639   7.392   0.976  0.0216  0.1419 -0.6758
31913SOL    HW1 7717   4.561   7.393   1.031  1.1586 -2.3182  1.2332
31913SOL    HW2 7718   4.703   7.443   1.026 -0.0577  1.3376 -1.7607
31914SOL     OW 7719   0.663   5.760   0.892  0.3498 -0.1093 -0.4811
31914SOL    HW1 7720   0.674   5.851   0.862  0.5516 -0.6301 -2.0903
31914SOL    HW2 7721   0.572   5.739   0.870  0.1357 -0.1450  0.3938
31915SOL     OW 7722   6.415   4.585   6.699  0.2077 -0.1718 -0.2708
31915SOL    HW1 7723   6.457   4.534   6.768 -0.3305  0.3789  0.4861
31915SOL    HW2 7724   6.487   4.619   6.647  0.6923  0.2666  0.6508
31916SOL     OW 7725   6.773   2.281   8.541  0.3491 -0.0884  0.3064
31916SOL    HW1 7726   6.750   2.237   8.459 -0.0096  0.6452 -0.0010
31916SOL    HW2 7727   6.701   2.342   8.556 -0.3406 -1.2874  1.9864
31917SOL     OW 7728   8.113   1.280   3.961  0.0959  0.2022  0.4136
31917SOL    HW1 7729   8.157   1.292   4.045  1.6314 -0.1722 -0.2961
31917SOL    HW2 7730   8.116   1.185   3.945 -0.6457  0.2117  0.1671
31918SOL     OW 7731   3.492   5.109   7.861 -0.1715 -0.4133  0.6692
31918SOL    HW1 7732   3.525   5.091   7.773  0.4496  0.1137  0.7839
31918SOL    HW2 7733   3.570   5.103   7.917 -0.2385  0.9604  0.9284
31919SOL     OW 7734   8.414   8.597   1.130 -0.5686  0.0281  0.1071
31919SOL    HW1 7735   8.388   8.657   1.200  0.1264  0.8012 -0.2730
31919SOL    HW2 7736   8.381   8.638   1.050  0.7472  0.4320 -0.2592
31920SOL     OW 7737   1.242   0.097   0.852 -0.2263 -0.6347 -0.0949
31920SOL    HW1 7738   1.206   0.081   0.939  0.3443 -1.0986  0.0591
31920SOL    HW2 7739   1.228   0.014   0.805 -0.5480 -0.3824 -0.4545
31921SOL     OW 7740   3.829   2.800   1.155  0.3997 -0.0518 -0.1851
31921SOL    HW1 7741   3.749   2.839   1.192 -0.0380 -1.4237  0.3513
31921SOL    HW2 7742   3.811   2.706   1.152  2.3822 -0.5076  0.9273
31922SOL     OW 7743   7.989   8.707   2.040 -0.2618 -0.1968  0.5737
31922SOL    HW1 7744   7.987   8.739   1.950 -0.1990 -1.6433  0.0384
31922SOL    HW2 7745   7.938   8.627   2.039 -2.2394  0.9332  2.3508
31923SOL     OW 7746   6.299   4.934   3.706  0.2136 -0.1361 -0.0496
31923SOL    HW1 7747   6.303   4.959   3.798 -2.1085  0.3803 -0.0194
31923SOL    HW2 7748   6.386   4.954   3.672  0.8414  0.5435  1.8060
31924SOL     OW 7749  10.198   8.503   4.538 -0.8717  0.3016 -0.9381
31924SOL    HW1 7750  10.198   8.455   4.620 -1.3769 -2.2541 -2.3127
31924SOL    HW2 7751  10.220   8.436   4.472 -0.5189  2.2291 -2.8785
31925SOL     OW 7752   0.310   5.527   3.255 -0.0001 -0.4841  0.0182
31925SOL    HW1 7753   0.391   5.478   3.244 -0.4701 -1.3100  0.0940
31925SOL    HW2 7754   0.298   5.532   3.350  0.9934  1.4271  0.0837
31926SOL     OW 7755   7.263   4.978   1.140  0.0714  0.5470  0.0663
31926SOL    HW1 7756   7.208   5.008   1.067 -2.7280  0.3013  1.9331
31926SOL    HW2 7757   7.238   4.887   1.153 -0.1612  0.8420  1.8883
31927SOL     OW 7758  10.302  10.111   9.987 -0.8320  0.4245  0.3212
31927SOL    HW1 7759  10.346  10.170   9.926 -0.2766  1.3545  1.5815
31927SOL    HW2 7760  10.210  10.114   9.962 -0.3183 -1.3134 -2.1659
31928SOL     OW 7761   1.212   5.858   3.351  0.0785  0.1889 -0.8743
31928SOL    HW1 7762   1.197   5.794   3.280 -1.0025  1.2291 -1.6092
31928SOL    HW2 7763   1.220   5.804   3.429 -0.1087 -0.9129 -1.5818
31929SOL     OW 7764   9.489   4.788   3.977  0.1957  0.0086  1.3465
31929SOL    HW1 7765   9.463   4.815   3.889  1.5220  0.1858  0.9911
31929SOL    HW2 7766   9.479   4.693   3.977  1.6226 -0.1650  0.4933
31930SOL     OW 7767   4.450   0.439   2.503 -0.1186 -0.4672 -0.0641
31930SOL    HW1 7768   4.372   0.431   2.558  0.0071  0.0660  0.2010
31930SOL    HW2 7769   4.516   0.478   2.560  0.0092  0.1068 -0.5909
31931SOL     OW 7770   1.232   3.008   3.872 -0.4577  0.5844  0.1021
31931SOL    HW1 7771   1.215   2.957   3.952  2.0298 -0.2906  0.1396
31931SOL    HW2 7772   1.262   2.944   3.809  0.2234  1.6655 -0.6895
31932SOL     OW 7773   8.959   5.404  10.212 -0.4194  0.1155 -0.2083
31932SOL    HW1 7774   9.053   5.386  10.221 -0.2864  0.7535 -0.2148
31932SOL    HW2 7775   8.947   5.416  10.118 -0.4991  0.0773 -0.2024
31933SOL     OW 7776   6.740   7.192   8.128  0.0189  0.1325  0.2905
31933SOL    HW1 7777   6.776   7.202   8.216 -0.9062 -0.6421  0.7749
31933SOL    HW2 7778   6.691   7.110   8.131 -0.2150  0.2105 -0.8860
31934SOL     OW 7779   4.598   3.081   6.872 -0.3519 -0.5802  0.0162
31934SOL    HW1 7780   4.605   3.143   6.800 -0.1271  0.2806  0.7585
31934SOL    HW2 7781   4.537   3.122   6.933  2.0840  0.4188  1.9599
31935SOL     OW 7782   9.662  10.108   5.563  0.2655 -0.2045  0.0191
31935SOL    HW1 7783   9.679  10.141   5.474  2.0854 -1.1962 -0.0422
31935SOL    HW2 7784   9.678  10.014   5.557 -2.9335 -0.9099  0.6565
31936SOL     OW 7785   8.766  10.079   0.655  0.1875  0.4177 -0.1885
31936SOL    HW1 7786   8.809  10.144   0.711 -1.8043  1.3483  0.3404
31936SOL    HW2 7787   8.673  10.097   0.664 -0.3111 -0.9503 -1.9781
31937SOL     OW 7788   1.529   1.029   8.815 -0.5563  0.6387 -0.4203
31937SOL    HW1 7789   1.466   1.059   8.881 -0.1535 -0.5817  0.5621
31937SOL    HW2 7790   1.602   0.993   8.866 -0.1509 -0.1651 -1.5247
31938SOL     OW 7791   1.743   8.733   9.287  0.1277  0.2390  0.0389
31938SOL    HW1 7792   1.720   8.685   9.366 -0.3216  0.7105  0.1971
31938SOL    HW2 7793   1.662   8.735   9.236  0.2711  0.4167 -0.1801
31939SOL     OW 7794   0.214   9.267   6.356 -0.0671  0.7043  0.4141
31939SOL    HW1 7795   0.158   9.189   6.353 -0.7234  1.1810 -0.3539
31939SOL    HW2 7796   0.158   9.335   6.394  0.7045  0.6582  1.6739
31940SOL     OW 7797   0.701   4.411   1.782 -0.2143 -0.0621  0.5753
31940SOL    HW1 7798   0.618   4.423   1.828 -0.3820  1.3476 -0.0426
31940SOL    HW2 7799   0.740   4.498   1.781  1.5615 -0.8011  1.3403
31941SOL     OW 7800   5.727   0.613   6.664  0.1888 -0.3418  0.0910
31941SOL    HW1 7801   5.738   0.528   6.707 -1.2576 -0.3606  0.4678
31941SOL    HW2 7802   5.815   0.637   6.636  0.5421 -2.2106 -0.5210
31942SOL     OW 7803   0.058   3.582   3.413 -0.0657  0.0812  0.5924
31942SOL    HW1 7804   0.144   3.592   3.372 -0.3926 -0.6292 -0.3138
31942SOL    HW2 7805   0.066   3.504   3.467 -0.1658 -0.0292  0.4473
31943SOL     OW 7806   1.661   3.639   1.166 -0.3636  0.3534  0.4369
31943SOL    HW1 7807   1.702   3.611   1.247 -1.0674 -0.5104  0.5042
31943SOL    HW2 7808   1.722   3.703   1.129  1.2327 -1.1442  0.3462
31944SOL     OW 7809   0.108   7.001   6.135  0.1358 -0.1271  0.1832
31944SOL    HW1 7810   0.088   7.045   6.217 -1.4962 -1.6732  0.6592
31944SOL    HW2 7811   0.148   6.918   6.161  0.3343 -0.2832 -0.6012
31945SOL     OW 7812   3.201   0.029   9.834 -0.0180  0.2338  0.2278
31945SOL    HW1 7813   3.170  -0.023   9.908  0.6951  0.8365  0.9767
31945SOL    HW2 7814   3.252   0.099   9.874  0.0781  0.7881 -0.8255
31946SOL     OW 7815   7.741   2.105   7.291  0.3523 -0.0269  0.6753
31946SOL    HW1 7816   7.658   2.129   7.333 -0.7636 -2.6444  0.1400
31946SOL    HW2 7817   7.715   2.055   7.214  2.4468  0.9040 -0.7068
31947SOL     OW 7818   6.819   7.878   1.864  0.0554 -0.0218 -0.5114
31947SOL    HW1 7819   6.772   7.796   1.875  1.0734 -0.6246 -0.5315
31947SOL    HW2 7820   6.772   7.941   1.918 -0.9023 -0.5503 -0.7237
31948SOL     OW 7821   2.870   6.977   3.031  0.6710  0.0037  0.8014
31948SOL    HW1 7822   2.850   7.061   3.073 -0.4797  0.0229  0.2482
31948SOL    HW2 7823   2.939   6.939   3.085  0.8871  1.0984  1.3259
31949SOL     OW 7824   7.260   1.264   8.357  0.1412 -0.2358  0.3473
31949SOL    HW1 7825   7.318   1.198   8.318 -0.8006  0.2903 -2.1460
31949SOL    HW2 7826   7.183   1.264   8.300 -1.2613  0.7870  2.1635
31950SOL     OW 7827   2.846   1.564   9.309  0.4252  0.0537 -0.2297
31950SOL    HW1 7828   2.786   1.548   9.381  0.1562 -2.3098 -0.8796
31950SOL    HW2 7829   2.792   1.600   9.239 -0.1306 -1.3012 -0.5319
31951SOL     OW 7830   1.900   2.024   4.160  0.3229  0.1797 -0.2899
31951SOL    HW1 7831   1.948   1.984   4.087  0.5489 -0.2952  0.1072
31951SOL    HW2 7832   1.824   1.967   4.173 -0.8573  1.4340 -1.4986
31952SOL     OW 7833   6.370   9.747   6.317 -0.2044 -0.1785 -0.1415
31952SOL    HW1 7834   6.382   9.689   6.242  0.3123  1.1183 -1.1046
31952SOL    HW2 7835   6.379   9.835   6.280  0.4568  0.4774  1.5098
31953SOL     OW 7836   0.486   1.317   4.731 -0.8767  0.0401  0.7181
31953SOL    HW1 7837   0.426   1.392   4.722 -1.5049 -0.4131  1.0791
31953SOL    HW2 7838   0.497   1.285   4.642 -1.3413  0.0007  0.6694
31954SOL     OW 7839   9.393   7.276   3.024 -0.1307 -0.5158  0.3064
31954SOL    HW1 7840   9.413   7.315   3.109 -0.4684  2.1529 -0.7309
31954SOL    HW2 7841   9.298   7.288   3.015 -0.0924 -0.7476 -0.4364
31955SOL     OW 7842   8.445   5.211   4.328  0.1794 -0.2892 -0.0558
31955SOL    HW1 7843   8.376   5.265   4.367 -1.8160 -1.6472 -1.4803
31955SOL    HW2 7844   8.525   5.260   4.342 -0.8745  0.8569  2.7021
31956SOL     OW 7845   1.202  10.217   3.350  0.4233 -0.2997  0.1101
31956SOL    HW1 7846   1.106  10.222   3.356  0.2776  0.0045 -1.8362
31956SOL    HW2 7847   1.230  10.308   3.358  0.4691 -0.2698 -0.4022
31957SOL     OW 7848   9.611   5.674   5.005 -0.2605  0.6614  0.2550
31957SOL    HW1 7849   9.631   5.711   5.092  0.6536  0.9205 -0.0545
31957SOL    HW2 7850   9.685   5.616   4.987  0.1691  1.5412 -0.8750
31958SOL     OW 7851   5.787   1.082   1.281 -0.1580 -0.2630 -0.1611
31958SOL    HW1 7852   5.841   1.019   1.329  0.8758 -0.0374 -0.9998
31958SOL    HW2 7853   5.824   1.083   1.193  0.8037  2.5662  0.1740
31959SOL     OW 7854   6.038   0.692   0.245 -0.4139  0.5054  0.3304
31959SOL    HW1 7855   6.115   0.663   0.294 -0.6608  0.1618  0.5112
31959SOL    HW2 7856   5.975   0.621   0.254 -0.4519  0.4228 -0.5104
31960SOL     OW 7857   1.700   0.208   7.688  0.0258 -0.3615  0.2244
31960SOL    HW1 7858   1.648   0.248   7.619 -1.7157 -0.2104  1.5629
31960SOL    HW2 7859   1.791   0.232   7.668 -0.6831  1.7694 -0.6153
31961SOL     OW 7860   9.680   3.002   2.832 -0.5812  0.2289 -0.1757
31961SOL    HW1 7861   9.667   3.096   2.824 -1.2256  0.0684 -1.3429
31961SOL    HW2 7862   9.617   2.974   2.899  0.9744  0.8605  1.6469
31962SOL     OW 7863   4.479  10.047   2.806 -0.0449  0.4063  0.4732
31962SOL    HW1 7864   4.501  10.009   2.721  2.7989 -1.8304  2.0336
31962SOL    HW2 7865   4.408   9.992   2.839 -0.4540  0.6488  0.0165
31963SOL     OW 7866   8.272   6.832   6.548 -0.3892 -0.0555 -0.1476
31963SOL    HW1 7867   8.182   6.858   6.533 -0.9720  0.1884  3.0985
31963SOL    HW2 7868   8.320   6.914   6.556  0.0949 -0.1821 -1.5085
31964SOL     OW 7869   1.760   4.763   0.559  0.6522 -0.3976  0.0703
31964SOL    HW1 7870   1.807   4.683   0.537 -0.3922 -0.8500 -0.5894
31964SOL    HW2 7871   1.711   4.784   0.480  1.1822  1.1106  0.0996
31965SOL     OW 7872   9.811   8.504   5.941 -0.6271 -0.1064 -1.1588
31965SOL    HW1 7873   9.726   8.547   5.942 -0.5433  0.3420  2.9882
31965SOL    HW2 7874   9.798   8.422   5.988  1.2005 -0.0530 -0.4578
31966SOL     OW 7875   8.913   5.758   6.690  0.0243  0.0982  0.0383
31966SOL    HW1 7876   8.988   5.771   6.748 -1.8011 -0.1823  2.5906
31966SOL    HW2 7877   8.879   5.672   6.712 -1.0450  0.1913 -1.1053
31967SOL     OW 7878   1.394   8.185   6.485 -0.0726 -0.2192 -0.1165
31967SOL    HW1 7879   1.317   8.173   6.430  0.2332 -0.7106 -0.4464
31967SOL    HW2 7880   1.438   8.100   6.484  2.1321  0.8355 -2.4546
31968SOL     OW 7881   9.616   1.478   2.297 -0.5546  0.3477 -0.3720
31968SOL    HW1 7882   9.600   1.403   2.354 -0.2928 -0.5110 -1.4008
31968SOL    HW2 7883   9.535   1.488   2.247  0.1583 -0.6335 -1.7742
31969SOL     OW 7884   9.132   0.791   6.089 -0.1312  0.3400 -0.2015
31969SOL    HW1 7885   9.113   0.859   6.024 -1.5861  1.4393  1.2884
31969SOL    HW2 7886   9.140   0.839   6.172  3.6128 -0.7507  0.2647
31970SOL     OW 7887   9.777   1.201   2.668  0.4227  0.2083 -0.1771
31970SOL    HW1 7888   9.785   1.212   2.763 -0.0435 -1.1650  0.0490
31970SOL    HW2 7889   9.708   1.263   2.643 -0.7162 -0.6659  0.6803
31971SOL     OW 7890   5.550   5.697   8.005  0.9847 -0.2394 -0.7585
31971SOL    HW1 7891   5.590   5.752   7.937  0.8547  0.8402  0.0144
31971SOL    HW2 7892   5.618   5.687   8.072  0.2750  0.9293  0.1800
31972SOL     OW 7893   5.915   4.923   6.412  0.1178  0.5344 -0.6038
31972SOL    HW1 7894   6.008   4.900   6.417  0.0917  0.5287 -0.0809
31972SOL    HW2 7895   5.912   5.015   6.440 -0.0476  0.5038 -0.5218
31973SOL     OW 7896   2.808   6.165   4.791 -0.0339  0.6338  0.6318
31973SOL    HW1 7897   2.775   6.218   4.864  0.6185 -2.2111  3.1989
31973SOL    HW2 7898   2.903   6.162   4.805 -0.1453 -1.9897  1.2520
31974SOL     OW 7899   1.840   3.808   1.042 -0.2632  0.0281  0.1868
31974SOL    HW1 7900   1.916   3.848   1.084 -0.3117  0.4651 -0.1226
31974SOL    HW2 7901   1.863   3.806   0.949 -0.4296 -0.2946  0.1531
31975SOL     OW 7902   0.888   0.734   1.362  0.4635 -0.2262  0.0895
31975SOL    HW1 7903   0.881   0.663   1.426 -2.5071  0.4573  0.7042
31975SOL    HW2 7904   0.957   0.707   1.302  0.4090 -2.9320  1.1345
31976SOL     OW 7905   9.659   6.501   3.230  0.4581  0.1427  0.1172
31976SOL    HW1 7906   9.613   6.491   3.313 -0.7305  0.4708 -0.4851
31976SOL    HW2 7907   9.636   6.589   3.200  1.4075  0.2800 -0.2588
31977SOL     OW 7908   5.310   6.384   9.451 -0.2228  0.5701 -0.2222
31977SOL    HW1 7909   5.400   6.351   9.450 -0.1690  0.7251 -0.7225
31977SOL    HW2 7910   5.319   6.476   9.477 -0.3292  0.3345  0.6879
31978SOL     OW 7911   6.524   8.351   7.966  0.6092 -0.4052 -0.0421
31978SOL    HW1 7912   6.524   8.441   7.934  0.1219 -0.6664 -0.7950
31978SOL    HW2 7913   6.614   8.336   7.995  0.3193  0.8704  1.7172
31979SOL     OW 7914   6.454   3.415   2.237  0.3094 -0.0066 -0.4331
31979SOL    HW1 7915   6.422   3.400   2.326  1.7867  1.3170  0.3660
31979SOL    HW2 7916   6.379   3.452   2.191  0.5038  2.9964  1.3694
31980SOL     OW 7917   6.984   5.612   1.282 -0.0776  0.4205 -0.2084
31980SOL    HW1 7918   6.917   5.560   1.238 -0.2667  1.4441 -1.1796
31980SOL    HW2 7919   7.058   5.552   1.291 -1.4480 -1.0920  1.9215
31981SOL     OW 7920   6.792   0.186   5.260 -0.1118 -0.2321 -0.4148
31981SOL    HW1 7921   6.823   0.175   5.170  0.3305 -0.0213 -0.2925
31981SOL    HW2 7922   6.843   0.122   5.310  0.9604  0.9011 -0.0288
31982SOL     OW 7923   6.964  10.374   9.111  0.0208 -0.2830 -0.8869
31982SOL    HW1 7924   6.945  10.287   9.146  1.8489 -0.3653  0.0411
31982SOL    HW2 7925   6.936  10.435   9.180 -0.3249 -0.2024 -1.1006
31983SOL     OW 7926   3.318   5.387   9.457  0.0001  0.0592 -0.0522
31983SOL    HW1 7927   3.304   5.293   9.461  0.2347 -0.0459 -1.3578
31983SOL    HW2 7928   3.305   5.417   9.547 -1.4333 -1.0228  0.1301
31984SOL     OW 7929   8.715   3.028   9.053 -0.0667 -0.0145  0.3428
31984SOL    HW1 7930   8.722   3.089   8.979 -0.5199 -0.2151  0.1266
31984SOL    HW2 7931   8.781   2.961   9.035  2.1108  1.6123  1.7809
31985SOL     OW 7932   1.799   2.769   9.235 -0.3251  0.2284  0.1548
31985SOL    HW1 7933   1.820   2.843   9.291 -0.8856 -0.2169  0.9641
31985SOL    HW2 7934   1.814   2.692   9.290 -0.5036 -0.2311 -0.4255
31986SOL     OW 7935   7.544   8.888   4.533  0.2413  0.7117  0.5175
31986SOL    HW1 7936   7.531   8.807   4.583 -0.5174  0.1185 -0.5894
31986SOL    HW2 7937   7.621   8.928   4.573  0.6561 -0.5703  1.0877
31987SOL     OW 7938   4.504   4.048   6.058  0.1689  0.1031  0.2737
31987SOL    HW1 7939   4.506   4.125   6.002 -0.7270  0.1666  0.3176
31987SOL    HW2 7940   4.519   3.975   5.999 -0.9728  0.1545 -0.1012
31988SOL     OW 7941   7.231   9.381   5.039  0.4709 -0.0785  0.3361
31988SOL    HW1 7942   7.266   9.434   4.967 -1.6587  0.6339 -0.2468
31988SOL    HW2 7943   7.173   9.440   5.086  0.0261 -1.2052  1.2322
31989SOL     OW 7944   9.894   5.255   5.080  0.1843 -0.1501 -0.2628
31989SOL    HW1 7945   9.925   5.169   5.052  1.1015 -0.3782  1.3454
31989SOL    HW2 7946   9.817   5.236   5.134  1.1929 -0.1139  1.2507
31990SOL     OW 7947   2.935   7.620   2.384 -0.1437 -0.0385 -0.1972
31990SOL    HW1 7948   2.847   7.581   2.380 -0.1174 -0.1066 -0.1148
31990SOL    HW2 7949   2.937   7.681   2.311 -1.3853  2.2744  1.5312
31991SOL     OW 7950   5.453   7.167   5.136  0.0880  0.4811  0.4711
31991SOL    HW1 7951   5.416   7.171   5.048  2.2548  2.4134 -0.4623
31991SOL    HW2 7952   5.422   7.084   5.171  0.5018 -1.2394 -2.8006
31992SOL     OW 7953   6.123   3.580   2.513  0.2487  1.0491 -0.1082
31992SOL    HW1 7954   6.037   3.597   2.474  0.8404  0.1410 -1.9481
31992SOL    HW2 7955   6.105   3.567   2.606 -2.0137 -1.5134 -0.7603
31993SOL     OW 7956   2.253   4.193   9.986 -1.0945  1.0338 -0.4380
31993SOL    HW1 7957   2.213   4.173   9.901  1.2245 -0.8193 -1.2027
31993SOL    HW2 7958   2.347   4.189   9.970 -0.5662  1.8765  1.9877
31994SOL     OW 7959   3.432   4.270   3.925  0.5588  0.2924 -0.6590
31994SOL    HW1 7960   3.353   4.222   3.951  0.2249  1.3429  0.3193
31994SOL    HW2 7961   3.504   4.210   3.946  0.1314  0.0438  0.1566
31995SOL     OW 7962   2.678   4.641   9.296 -0.3093  0.1838 -0.3804
31995SOL    HW1 7963   2.774   4.642   9.293 -0.3150 -0.7756 -1.4535
31995SOL    HW2 7964   2.655   4.549   9.309 -1.0772  0.6451  2.2065
31996SOL     OW 7965   7.904   9.380   8.671  0.5821 -0.0399 -0.5232
31996SOL    HW1 7966   7.915   9.448   8.737 -0.0627  1.3951 -1.8326
31996SOL    HW2 7967   7.833   9.412   8.616  0.7564 -1.4473 -1.6130
31997SOL     OW 7968   5.961   3.493   0.892  0.0755  0.3703 -0.2894
31997SOL    HW1 7969   6.027   3.477   0.824  1.3742  0.2309  0.9514
31997SOL    HW2 7970   5.882   3.515   0.844  0.2441 -2.1948 -1.9353
31998SOL     OW 7971   1.923   1.301   1.854  0.4894  0.6199  0.0446
31998SOL    HW1 7972   2.016   1.308   1.875  0.6150  2.6382 -0.9246
31998SOL    HW2 7973   1.918   1.317   1.760 -0.6553 -1.8058 -0.3836
31999SOL     OW 7974   1.689   2.334   5.087 -0.6912 -0.2357 -0.0798
31999SOL    HW1 7975   1.673   2.254   5.137  0.1970  0.5169  1.4804
31999SOL    HW2 7976   1.763   2.314   5.031 -0.1794 -0.3925  0.6388
32000SOL     OW 7977   4.828   2.947   5.981 -0.0449 -0.2952 -0.2067
32000SOL    HW1 7978   4.854   2.855   5.990  0.4213 -0.0401  1.6069
32000SOL    HW2 7979   4.899   2.988   5.933  1.0779 -0.3986  1.2827
32001SOL     OW 7980   0.307   2.092   5.661 -0.0601 -0.0222  0.6409
32001SOL    HW1 7981   0.382   2.048   5.702  0.6702  0.3540 -0.2515
32001SOL    HW2 7982   0.343   2.131   5.581 -0.9545  1.1841  0.7964
32002SOL     OW 7983   0.698   6.484   4.911 -0.1660  0.6372 -0.1702
32002SOL    HW1 7984   0.613   6.445   4.935 -0.3047  0.8818 -0.2603
32002SOL    HW2 7985   0.754   6.467   4.986  0.8463 -2.8708 -1.5312
32003SOL     OW 7986   1.799   0.294   4.762 -0.3664 -0.0646  0.4192
32003SOL    HW1 7987   1.786   0.205   4.793 -0.0509 -0.7401 -1.2671
32003SOL    HW2 7988   1.893   0.309   4.769 -0.3478 -0.0687  0.1842
32004SOL     OW 7989   0.674   7.655   6.162 -0.6159  0.4636 -0.0698
32004SOL    HW1 7990   0.716   7.739   6.179 -2.6300  1.5258 -0.0199
32004SOL    HW2 7991   0.697   7.601   6.238 -0.1546  1.3342  0.4253
32005SOL     OW 7992   3.643   7.628  10.169 -0.4774  0.0350 -0.6058
32005SOL    HW1 7993   3.664   7.587  10.085  0.2402 -0.1020 -0.3666
32005SOL    HW2 7994   3.683   7.714  10.165 -0.3003 -0.0344 -0.3366
32006SOL     OW 7995   9.594   1.042   4.070 -0.0248 -0.1806 -0.1831
32006SOL    HW1 7996   9.546   1.005   3.996 -0.8320  3.2278 -1.5509
32006SOL    HW2 7997   9.663   0.978   4.089 -0.8034 -1.9342 -2.7892
32007SOL     OW 7998   0.948   8.263   9.964  0.7009  0.3083 -0.0433
32007SOL    HW1 7999   0.935   8.179  10.007 -1.8496  0.0080 -1.2003
32007SOL    HW2 8000   0.931   8.246   9.872 -4.0501  2.6343  0.0546
32008SOL     OW 8001   3.428   0.303   2.604  0.5329 -0.1862  0.5259
32008SOL    HW1 8002   3.361   0.364   2.631  0.7581 -0.5792  2.0369
32008SOL    HW2 8003   3.411   0.289   2.510 -1.0282  0.2677  0.7129
32009SOL     OW 8004   6.551  10.028   4.094 -0.5633 -0.2621 -0.4315
32009SOL    HW1 8005   6.563  10.122   4.109  0.7540 -0.6866  1.6208
32009SOL    HW2 8006   6.530  10.020   4.001 -1.1745  2.0855 -0.5499
32010SOL     OW 8007   4.287   5.022   6.936  0.1475  0.5361 -0.4741
32010SOL    HW1 8008   4.270   4.930   6.956  0.0506  0.9320  1.5128
32010SOL    HW2 8009   4.310   5.023   6.843  1.5415 -1.6773 -0.2213
32011SOL     OW 8010   8.695  10.049   7.212  0.4265 -0.0446 -0.2006
32011SOL    HW1 8011   8.625  10.039   7.148  2.0811 -3.0491 -1.7317
32011SOL    HW2 8012   8.688   9.972   7.268  0.8027  1.0667  1.4418
32012SOL     OW 8013   5.796   7.624   9.654 -0.1660 -0.1638 -0.9822
32012SOL    HW1 8014   5.795   7.686   9.581 -0.5655 -0.7814 -1.5139
32012SOL    HW2 8015   5.880   7.580   9.646 -0.0503  0.0270 -0.8397
32013SOL     OW 8016   9.284   4.348   3.931  0.0198 -0.0514  0.0401
32013SOL    HW1 8017   9.368   4.393   3.927 -0.4169  1.2125  2.6983
32013SOL    HW2 8018   9.272   4.328   4.024 -1.5470 -2.3836 -0.5726
32014SOL     OW 8019   1.622  10.138   2.180  0.2497 -0.0902 -0.5436
32014SOL    HW1 8020   1.536  10.179   2.193  1.1453  2.3513 -1.7091
32014SOL    HW2 8021   1.625  10.068   2.245 -2.2658  0.3078  0.1101
32015SOL     OW 8022   2.242   6.303   0.850 -0.5231 -0.1375  0.0539
32015SOL    HW1 8023   2.298   6.369   0.809 -0.4855 -0.6538 -0.7327
32015SOL    HW2 8024   2.176   6.354   0.897 -0.7748  0.4665 -0.9303
32016SOL     OW 8025   8.346   5.368   6.454  0.1928  0.0797  0.3648
32016SOL    HW1 8026   8.332   5.319   6.373 -0.5903  1.5785 -0.4475
32016SOL    HW2 8027   8.287   5.328   6.518 -0.1898 -0.2361 -0.1856
32017SOL     OW 8028   1.785   0.086   3.875  0.2428  0.3104 -0.0757
32017SOL    HW1 8029   1.779   0.131   3.790  0.2888 -1.6396 -1.1712
32017SOL    HW2 8030   1.867   0.037   3.870  0.1338 -0.0094  1.0125
32018SOL     OW 8031   0.152   3.020   6.827  0.0710  0.3217  0.2672
32018SOL    HW1 8032   0.067   3.010   6.869 -0.1334 -1.8959 -0.5418
32018SOL    HW2 8033   0.200   3.082   6.883 -1.7899  1.0665  1.1214
32019SOL     OW 8034   6.865  10.272  10.022  0.0705 -0.0750  0.1505
32019SOL    HW1 8035   6.900  10.183  10.015 -0.1595 -0.3830  2.0673
32019SOL    HW2 8036   6.773  10.258  10.047  0.0506  0.6858  0.5242
32020SOL     OW 8037   8.144   8.929   3.087  0.3456  0.4250  0.2423
32020SOL    HW1 8038   8.079   8.859   3.097  1.0951 -0.2087  0.8882
32020SOL    HW2 8039   8.195   8.903   3.010  0.5841  0.2889  0.4447
32021SOL     OW 8040   2.153   0.845   5.678 -0.8241 -0.4551 -0.2827
32021SOL    HW1 8041   2.173   0.753   5.657  0.8975 -0.4927  1.2613
32021SOL    HW2 8042   2.130   0.844   5.770  0.1160  0.7612 -0.0132
32022SOL     OW 8043   7.720   5.564   6.497 -0.2097  0.3115  0.0386
32022SOL    HW1 8044   7.771   5.585   6.575  1.5385 -0.4484 -0.8539
32022SOL    HW2 8045   7.667   5.488   6.523  0.7968 -0.3141  0.3337
32023SOL     OW 8046   1.710   0.409   6.390 -0.1693 -0.3099  0.6768
32023SOL    HW1 8047   1.630   0.430   6.342  0.5200 -1.0178 -0.8368
32023SOL    HW2 8048   1.688   0.329   6.438 -0.2299 -0.8060 -0.1533
32024SOL     OW 8049   9.220   0.318   9.877 -0.1139  0.4213 -0.4133
32024SOL    HW1 8050   9.248   0.227   9.873 -0.0315  0.4043  0.4157
32024SOL    HW2 8051   9.279   0.359   9.941 -1.0395  0.7157  0.2816
32025SOL     OW 8052   7.872   7.511   3.417 -0.7650 -0.0728  0.5362
32025SOL    HW1 8053   7.919   7.563   3.482  0.9713 -2.1018  1.0009
32025SOL    HW2 8054   7.862   7.570   3.342  1.0714  0.9644  1.0546
32026SOL     OW 8055   4.251   8.392   2.124 -0.2702 -0.0614 -0.5125
32026SOL    HW1 8056   4.197   8.314   2.133  1.8528 -1.7777 -1.8082
32026SOL    HW2 8057   4.302   8.377   2.045  1.3120  1.9700  0.0323
32027SOL     OW 8058   3.533   0.468   2.176  0.2335 -0.0291 -0.0017
32027SOL    HW1 8059   3.544   0.562   2.164  1.6870  0.0455  1.4810
32027SOL    HW2 8060   3.542   0.430   2.089  3.2766  0.9457 -0.2227
32028SOL     OW 8061   7.172   6.431   9.414  0.2831  0.3381 -0.4391
32028SOL    HW1 8062   7.238   6.420   9.346 -0.0881  1.0784 -0.9361
32028SOL    HW2 8063   7.144   6.523   9.406 -2.0515 -0.3850 -1.4221
32029SOL     OW 8064   9.897   4.116   0.692 -0.0474  0.0626  0.1852
32029SOL    HW1 8065   9.846   4.193   0.668  1.0933  0.2946 -1.6007
32029SOL    HW2 8066   9.984   4.150   0.713  0.3902 -0.6948 -0.3611
32030SOL     OW 8067   6.565  10.383   2.993  0.0646  0.1703 -0.7300
32030SOL    HW1 8068   6.587  10.306   2.941 -0.4751 -2.6953  2.8597
32030SOL    HW2 8069   6.643  10.400   3.046 -1.3654 -1.2261  2.0486
32031SOL     OW 8070   4.482   5.907   7.257  0.2835 -0.0340 -0.2901
32031SOL    HW1 8071   4.505   5.845   7.188  2.9885 -0.0783  0.5599
32031SOL    HW2 8072   4.397   5.941   7.230  0.4337 -1.3426 -2.7186
32032SOL     OW 8073   2.283   9.898   8.993 -0.0783 -0.1486 -0.5039
32032SOL    HW1 8074   2.283   9.881   8.899 -0.7411  1.3801 -0.8012
32032SOL    HW2 8075   2.224   9.973   9.004  0.2586 -0.0871  1.0892
32033SOL     OW 8076   7.666   1.982   4.980 -0.2628 -0.3317  0.1744
32033SOL    HW1 8077   7.734   2.032   4.935 -0.0281 -0.3414  0.5126
32033SOL    HW2 8078   7.588   2.037   4.973 -0.3583 -0.5680 -0.6892
32034SOL     OW 8079   2.138   9.764   0.919 -0.1172 -0.2653 -0.0388
32034SOL    HW1 8080   2.219   9.717   0.901  2.0476  2.2783  2.3117
32034SOL    HW2 8081   2.165   9.853   0.941 -3.3874  0.2953  2.5725
32035SOL     OW 8082   0.841   7.621   5.821 -0.6441 -0.1343  0.5534
32035SOL    HW1 8083   0.920   7.641   5.869 -1.2778 -1.5610  2.3096
32035SOL    HW2 8084   0.786   7.699   5.831  1.0879  1.6027 -2.1582
32036SOL     OW 8085   4.618   2.309   6.954  0.3210  0.2789 -0.0333
32036SOL    HW1 8086   4.539   2.262   6.982  0.9280 -1.3148 -0.8866
32036SOL    HW2 8087   4.586   2.373   6.890 -0.1946 -1.0217 -1.1169
32037SOL     OW 8088   3.402   3.606   7.385 -0.1006  0.2391 -0.3497
32037SOL    HW1 8089   3.361   3.553   7.317 -3.0003  1.2377  0.4669
32037SOL    HW2 8090   3.442   3.680   7.338  1.9836 -1.3519 -1.2705
32038SOL     OW 8091   9.409   1.746   7.277  0.0545 -0.1441  0.4333
32038SOL    HW1 8092   9.385   1.708   7.193  2.2584 -1.2123  0.2258
32038SOL    HW2 8093   9.443   1.833   7.256  1.3498 -0.7157  0.0947
32039SOL     OW 8094   8.879   3.011   6.293  0.3757 -0.3314  0.1987
32039SOL    HW1 8095   8.946   2.956   6.335 -0.1386 -1.1682 -0.0474
32039SOL    HW2 8096   8.797   2.963   6.307 -0.2405  0.8710  0.8428
32040SOL     OW 8097   1.112   3.697   0.308  0.1904 -0.6340 -0.0117
32040SOL    HW1 8098   1.031   3.653   0.284 -0.6521  1.0086 -0.3707
32040SOL    HW2 8099   1.084   3.781   0.344  1.7114 -0.3477  0.6120
32041SOL     OW 8100   7.830   4.081   5.256  0.1041  0.2675  0.1698
32041SOL    HW1 8101   7.919   4.045   5.255 -0.5208 -1.3466 -0.3304
32041SOL    HW2 8102   7.843   4.175   5.243  1.7403  0.0720  0.1049
32042SOL     OW 8103   6.297   8.029   8.218 -0.0080  0.0326  0.1042
32042SOL    HW1 8104   6.358   7.983   8.275  0.4757  2.5080  1.7055
32042SOL    HW2 8105   6.348   8.052   8.141  0.9165  1.4369  1.1075
32043SOL     OW 8106   8.666   5.822   4.154  0.7073 -0.8774  0.0948
32043SOL    HW1 8107   8.661   5.771   4.235 -2.0097  0.9937  1.2718
32043SOL    HW2 8108   8.693   5.909   4.182  0.2063 -0.3223 -1.0665
32044SOL     OW 8109   5.110   8.805   9.772  0.2979 -0.7894  0.1160
32044SOL    HW1 8110   5.076   8.794   9.683  1.4435 -1.2447 -0.2878
32044SOL    HW2 8111   5.057   8.875   9.810 -0.8975 -1.2985 -0.5625
32045SOL     OW 8112   1.536   8.472   8.798 -0.0483 -0.2619  0.0742
32045SOL    HW1 8113   1.527   8.390   8.749 -1.3547  0.0087 -0.1877
32045SOL    HW2 8114   1.478   8.460   8.874  0.7982 -0.0960  0.7549
32046SOL     OW 8115   2.689   6.000   2.542  0.3655 -0.0998 -0.0927
32046SOL    HW1 8116   2.700   5.922   2.596  0.4878 -0.6912 -0.9401
32046SOL    HW2 8117   2.691   5.966   2.452  0.6496  0.9102 -0.4771
32047SOL     OW 8118  10.010   5.796   4.256 -0.1938  0.0381 -0.8197
32047SOL    HW1 8119   9.918   5.783   4.280 -0.7930  0.3182 -2.8067
32047SOL    HW2 8120  10.032   5.721   4.201  0.8594 -0.1364 -0.1934
32048SOL     OW 8121   9.504   7.075   1.424 -0.7628 -0.1877  0.8214
32048SOL    HW1 8122   9.550   6.994   1.449  0.9595 -0.2621 -2.1469
32048SOL    HW2 8123   9.441   7.047   1.357 -0.8217  0.7978  0.4545
32049SOL     OW 8124   0.961   3.727   7.738 -0.2330 -0.0633  0.1604
32049SOL    HW1 8125   0.934   3.648   7.785 -0.4285  0.5162  1.0619
32049SOL    HW2 8126   0.882   3.757   7.693  0.1344 -1.0208 -1.1533
32050SOL     OW 8127   4.656   9.131   5.539 -0.2721 -0.7328 -0.2336
32050SOL    HW1 8128   4.658   9.144   5.633  0.2915 -1.9387 -0.0592
32050SOL    HW2 8129   4.745   9.108   5.515 -0.8916 -2.9646 -0.6364
32051SOL     OW 8130   6.151   2.056   8.965 -0.3522  0.2450  0.0920
32051SOL    HW1 8131   6.209   2.096   9.029  0.7980 -0.5569 -0.4248
32051SOL    HW2 8132   6.119   1.976   9.008  0.4964 -0.3437 -0.3555
32052SOL     OW 8133   1.186   6.155   1.705  0.1525  0.4032  0.2527
32052SOL    HW1 8134   1.139   6.235   1.728  1.2067  0.5052  2.3333
32052SOL    HW2 8135   1.119   6.095   1.674 -0.9045  1.5276  0.2931
32053SOL     OW 8136   7.802   0.728   5.997  0.1555 -0.7143  0.0002
32053SOL    HW1 8137   7.867   0.797   6.004  1.5870 -1.9372 -0.7578
32053SOL    HW2 8138   7.821   0.685   5.913  0.1964 -2.8741  1.0546
32054SOL     OW 8139   9.841   1.642   2.293 -0.3214  0.1697  0.6926
32054SOL    HW1 8140   9.796   1.705   2.236 -0.6070 -0.6894 -0.0528
32054SOL    HW2 8141   9.778   1.571   2.305  0.0592 -0.0595  1.3974
32055SOL     OW 8142   4.276   2.296   5.939  0.0767 -0.4815  0.0210
32055SOL    HW1 8143   4.258   2.356   6.011  1.0963  0.4032 -0.4355
32055SOL    HW2 8144   4.221   2.327   5.867 -0.5915 -1.0821  0.2615
32056SOL     OW 8145   6.698   9.541   6.668  0.1731  0.4893  0.4163
32056SOL    HW1 8146   6.766   9.492   6.621 -1.3337  0.0109 -1.4181
32056SOL    HW2 8147   6.680   9.490   6.746  1.6892  0.4873  0.7999
32057SOL     OW 8148   1.345   9.702   9.476 -0.2717 -0.0948 -0.4333
32057SOL    HW1 8149   1.301   9.786   9.488  0.9685  0.5556 -0.2439
32057SOL    HW2 8150   1.382   9.683   9.562 -1.0773 -1.1760 -0.3020
32058SOL     OW 8151   9.102   9.732  10.182 -0.0498 -0.3149 -0.3823
32058SOL    HW1 8152   9.022   9.686  10.208 -1.2656  0.9729 -1.6962
32058SOL    HW2 8153   9.116   9.796  10.252  1.8509 -2.7596  1.6427
32059SOL     OW 8154   8.170   4.459   0.857  0.0001 -0.2569  0.1611
32059SOL    HW1 8155   8.159   4.465   0.952 -1.1261  1.4094 -0.0407
32059SOL    HW2 8156   8.118   4.383   0.832  0.7452 -1.0449  0.9148
32060SOL     OW 8157   3.960   8.315   8.047  0.1028 -0.0867  0.6161
32060SOL    HW1 8158   4.018   8.242   8.070  0.8748  0.0746 -0.7430
32060SOL    HW2 8159   3.927   8.346   8.132  0.9238 -1.0487  1.3197
32061SOL     OW 8160   1.140   4.094   9.854  0.0359 -0.5276  0.2945
32061SOL    HW1 8161   1.168   4.113   9.764  1.9802  0.6381  1.0903
32061SOL    HW2 8162   1.160   4.173   9.903  3.1128 -2.4972  2.6080
32062SOL     OW 8163   0.157   6.255   9.924  0.1539  0.0396  0.2983
32062SOL    HW1 8164   0.179   6.248  10.017  0.2653 -2.5827  0.1464
32062SOL    HW2 8165   0.241   6.240   9.879 -0.1943 -0.3603 -0.2247
32063SOL     OW 8166   9.577   1.502   6.520 -0.1660 -0.2648  0.3849
32063SOL    HW1 8167   9.623   1.577   6.484  0.0072 -0.8483 -0.6367
32063SOL    HW2 8168   9.484   1.525   6.514 -0.0988  0.0489  0.5039
32064SOL     OW 8169   3.212   6.357   3.635  0.4272  0.4065  0.0372
32064SOL    HW1 8170   3.156   6.305   3.578  1.1204 -0.3894  0.0674
32064SOL    HW2 8171   3.152   6.397   3.698 -0.0999 -0.4121  0.0571
32065SOL     OW 8172   5.290   5.288   2.106  0.4228 -0.4277  0.5771
32065SOL    HW1 8173   5.294   5.382   2.094 -2.0258 -0.5288 -2.2347
32065SOL    HW2 8174   5.362   5.253   2.053  0.0697 -0.2013 -0.0562
32066SOL     OW 8175   5.207   8.878   6.563 -0.3898  0.0447  0.0424
32066SOL    HW1 8176   5.285   8.879   6.507  0.8538 -0.0988  1.7089
32066SOL    HW2 8177   5.192   8.785   6.581 -1.3726  0.0225 -0.7971
32067SOL     OW 8178   5.944   7.408   8.510  0.3267 -0.0786  0.4852
32067SOL    HW1 8179   6.015   7.350   8.483  0.4899 -0.0949  0.9490
32067SOL    HW2 8180   5.979   7.456   8.586 -0.4229 -0.6409  1.1980
32068SOL     OW 8181   5.174   9.377   5.899  0.3543  0.2446  0.6439
32068SOL    HW1 8182   5.162   9.462   5.857  3.6347  0.4266 -0.1991
32068SOL    HW2 8183   5.130   9.315   5.841  0.0666  1.1120 -0.0900
32069SOL     OW 8184   3.835   6.531   4.711  0.0417 -0.3491 -0.4398
32069SOL    HW1 8185   3.781   6.577   4.776 -0.1273 -1.4308  0.2061
32069SOL    HW2 8186   3.891   6.599   4.674 -0.0920  0.3497  0.6137
32070SOL     OW 8187   7.475   8.589   2.341  0.0839  0.2717 -0.0610
32070SOL    HW1 8188   7.460   8.522   2.407 -0.9112 -0.2205 -0.7717
32070SOL    HW2 8189   7.567   8.613   2.352 -0.1752  0.5423  1.8062
32071SOL     OW 8190   5.679   3.035   9.913  0.5306 -0.1504  0.4466
32071SOL    HW1 8191   5.667   3.002   9.824 -0.5683 -0.6079  0.7573
32071SOL    HW2 8192   5.772   3.019   9.931  1.1676  1.3319 -1.1429
32072SOL     OW 8193   9.868   3.247   9.399  0.7725 -0.7595 -0.5172
32072SOL    HW1 8194   9.904   3.200   9.475 -0.0871  0.3217  0.6126
32072SOL    HW2 8195   9.859   3.337   9.430 -1.6176 -0.7140 -1.1674
32073SOL     OW 8196   5.746   2.086   9.879  0.2181 -0.1078 -0.0537
32073SOL    HW1 8197   5.780   2.019   9.820  0.8247  0.2108 -0.0716
32073SOL    HW2 8198   5.710   2.038   9.953  1.3035 -0.4309  0.2793
32074SOL     OW 8199   2.518   6.524   9.215  0.4845  0.2396 -0.4130
32074SOL    HW1 8200   2.438   6.532   9.265 -0.2708  0.4331 -1.6134
32074SOL    HW2 8201   2.499   6.457   9.150  0.2573  2.2682 -2.5693
32075SOL     OW 8202  10.354   8.410   8.441  0.7837  0.7273  0.3835
32075SOL    HW1 8203  10.301   8.373   8.511 -1.9907  0.9235 -1.4127
32075SOL    HW2 8204  10.384   8.335   8.390 -0.7714  0.6493 -0.5102
32076SOL     OW 8205   8.470   7.300   5.903  0.4117  0.0015  0.5984
32076SOL    HW1 8206   8.413   7.375   5.881  1.6055  0.1572 -2.5259
32076SOL    HW2 8207   8.542   7.339   5.952 -1.1551  0.0771  3.0144
32077SOL     OW 8208   3.993  10.074   7.918  0.1531  0.0348 -0.3513
32077SOL    HW1 8209   3.999  10.142   7.852  0.6590  0.4242  0.0854
32077SOL    HW2 8210   4.069  10.018   7.903 -1.1167 -1.4215 -1.7510
32078SOL     OW 8211   9.203   9.777   3.309 -0.1117  0.1406  0.1676
32078SOL    HW1 8212   9.176   9.831   3.383 -1.5459 -0.1930 -0.0896
32078SOL    HW2 8213   9.240   9.699   3.349  0.6131  0.6555  0.5278
32079SOL     OW 8214   7.102   8.748   3.525 -0.2695  0.0694 -0.0461
32079SOL    HW1 8215   7.090   8.657   3.550  1.9732 -0.5337 -0.8893
32079SOL    HW2 8216   7.015   8.779   3.501 -1.1557 -1.6683  0.7933
32080SOL     OW 8217   8.603   8.507   5.537 -0.0654  0.1059  0.5372
32080SOL    HW1 8218   8.515   8.536   5.560 -0.1709 -1.8457  3.0227
32080SOL    HW2 8219   8.592   8.416   5.508  1.0115  0.2332 -0.3774
32081SOL     OW 8220   2.905   6.920   0.786 -0.6019  0.2511 -0.2995
32081SOL    HW1 8221   2.831   6.886   0.736 -1.1755  1.5763 -0.4014
32081SOL    HW2 8222   2.967   6.951   0.720  0.2251 -1.1551 -0.2227
32082SOL     OW 8223   8.546   7.087   1.448 -0.1570  0.1240 -0.1894
32082SOL    HW1 8224   8.456   7.059   1.432 -0.3913 -0.0397  1.3513
32082SOL    HW2 8225   8.583   7.097   1.360 -1.1032 -1.6555 -0.8404
32083SOL     OW 8226   8.983  10.217   0.182  0.0493 -0.5311 -0.4996
32083SOL    HW1 8227   9.065  10.231   0.134  0.2895  0.6022  0.2110
32083SOL    HW2 8228   8.995  10.264   0.264 -0.9640 -1.1414  0.0050
32084SOL     OW 8229   3.866   2.010   7.177  0.5898 -0.4648  0.2398
32084SOL    HW1 8230   3.846   1.922   7.147  1.6066 -0.4560 -0.5373
32084SOL    HW2 8231   3.960   2.021   7.158  0.6009  0.5874  0.8125
32085SOL     OW 8232   2.294  10.272   4.416 -0.3982 -0.3611 -0.5436
32085SOL    HW1 8233   2.299  10.366   4.436 -3.1099 -0.2668  0.0546
32085SOL    HW2 8234   2.246  10.268   4.333  0.8463 -1.2066 -1.2547
32086SOL     OW 8235   8.716   1.291   8.336 -0.3956  0.1478 -0.1079
32086SOL    HW1 8236   8.677   1.277   8.423 -2.1843 -0.6620 -0.9806
32086SOL    HW2 8237   8.649   1.260   8.275  1.5477 -1.0534 -1.7544
32087SOL     OW 8238   2.473   5.663   2.807  0.1672 -0.3099  0.8714
32087SOL    HW1 8239   2.549   5.631   2.856  0.1530 -0.6342  0.6848
32087SOL    HW2 8240   2.497   5.652   2.715  0.0495 -0.0439  0.8079
32088SOL     OW 8241   4.627   7.606   7.212 -0.6681  0.2704 -0.2961
32088SOL    HW1 8242   4.557   7.547   7.184 -1.1799  1.2407 -1.1391
32088SOL    HW2 8243   4.665   7.638   7.130 -0.9580  1.7502  0.1139
32089SOL     OW 8244   8.042   6.530   0.730 -0.0974  0.0814  0.2072
32089SOL    HW1 8245   8.078   6.455   0.683 -1.7637 -1.7961  1.7599
32089SOL    HW2 8246   8.105   6.600   0.713  0.9227 -1.2908 -2.2754
32090SOL     OW 8247   7.060   7.740   1.119  0.1199  0.1349  0.2548
32090SOL    HW1 8248   7.045   7.834   1.131 -0.3524  0.3470 -1.6561
32090SOL    HW2 8249   6.972   7.702   1.121  0.3686 -0.4093  1.8714
32091SOL     OW 8250   7.501   5.041   9.282  0.0032 -0.7960  0.5887
32091SOL    HW1 8251   7.568   5.106   9.299 -0.8520 -0.4785  3.2635
32091SOL    HW2 8252   7.418   5.087   9.300 -0.8699 -1.6072 -1.1083
32092SOL     OW 8253   4.242   8.641   9.292 -0.2444 -0.3285 -0.3748
32092SOL    HW1 8254   4.290   8.563   9.265  0.8546 -0.5255  1.8975
32092SOL    HW2 8255   4.160   8.608   9.329  0.1130 -0.3964  0.3638
32093SOL     OW 8256   9.249   8.671   7.831 -0.3637  0.1578 -0.1003
32093SOL    HW1 8257   9.280   8.596   7.881 -0.6713  0.3442  0.3840
32093SOL    HW2 8258   9.223   8.735   7.898  2.7721  1.9667 -0.4139
32094SOL     OW 8259   7.686   2.955   3.769  0.3565 -0.0541 -0.2364
32094SOL    HW1 8260   7.711   2.866   3.796  2.3258 -0.1195 -1.9848
32094SOL    HW2 8261   7.769   3.001   3.761 -0.5870  1.7052 -0.2346
32095SOL     OW 8262   9.755   2.634   2.086 -0.4754 -0.4332  0.0779
32095SOL    HW1 8263   9.670   2.601   2.057 -0.9074  1.0221 -0.3860
32095SOL    HW2 8264   9.803   2.653   2.005 -0.8090  1.4344  0.2726
32096SOL     OW 8265  10.078   7.958   5.428  0.4628  0.1480  0.0402
32096SOL    HW1 8266  10.154   7.991   5.476  0.8595 -2.3039  1.2592
32096SOL    HW2 8267  10.065   7.869   5.463 -2.2603  0.0767 -0.9632
32097SOL     OW 8268   3.989   7.450   4.192  0.5283 -0.0708  0.2088
32097SOL    HW1 8269   3.976   7.415   4.104  0.1659  0.0432  0.2187
32097SOL    HW2 8270   4.028   7.377   4.241  0.7239 -0.1355 -0.0406
32098SOL     OW 8271   3.641   4.352   5.375 -0.3993  0.4789 -0.1600
32098SOL    HW1 8272   3.675   4.288   5.437 -0.2942  1.0507  0.3942
32098SOL    HW2 8273   3.562   4.312   5.338 -1.1672  0.6120  1.2656
32099SOL     OW 8274   7.245  10.327   7.622 -0.1408  0.1978  0.1154
32099SOL    HW1 8275   7.299  10.406   7.624  1.9622 -1.1929  1.0959
32099SOL    HW2 8276   7.308  10.254   7.623 -1.9655 -1.5280 -1.4627
32100SOL     OW 8277   0.027   6.312   9.391  0.2775  0.2192  0.1166
32100SOL    HW1 8278  -0.056   6.291   9.346  0.3837  0.2087 -0.0745
32100SOL    HW2 8279   0.053   6.229   9.431  1.3818 -0.3900 -1.7481
32101SOL     OW 8280   7.207   5.702   7.501 -0.0257 -0.3641  0.3897
32101SOL    HW1 8281   7.173   5.778   7.454  0.7595 -0.7964 -0.9280
32101SOL    HW2 8282   7.212   5.731   7.592  0.1267  1.1167 -0.0620
32102SOL     OW 8283   9.726  10.167   3.369 -0.2859  0.5143  0.4315
32102SOL    HW1 8284   9.687  10.118   3.441 -0.1075 -2.1700 -1.1463
32102SOL    HW2 8285   9.801  10.113   3.341 -1.3793  0.4507 -2.8149
32103SOL     OW 8286   9.239   2.841   7.227 -0.1165  0.2901 -0.1520
32103SOL    HW1 8287   9.293   2.890   7.165 -0.1290 -1.4544 -1.6569
32103SOL    HW2 8288   9.231   2.754   7.187 -1.3093 -0.4851  1.6505
32104SOL     OW 8289   1.165   8.439   0.790  0.0062 -0.4613  0.4335
32104SOL    HW1 8290   1.072   8.418   0.781 -0.1637 -0.1623  1.4057
32104SOL    HW2 8291   1.166   8.524   0.835  0.7357  0.2277 -0.8373
32105SOL     OW 8292   9.887   7.105   3.048 -0.4447 -0.5781  0.7102
32105SOL    HW1 8293   9.961   7.048   3.066  0.4672 -0.2565 -1.6683
32105SOL    HW2 8294   9.865   7.088   2.956 -0.0054  2.9441 -0.1981
32106SOL     OW 8295   7.357   5.257   8.081  0.2516  0.7090  0.1637
32106SOL    HW1 8296   7.452   5.260   8.071  0.1764 -0.0200 -1.0526
32106SOL    HW2 8297   7.342   5.257   8.175  1.4777  0.3696  0.3781
32107SOL     OW 8298   8.548   4.688   3.294 -0.4174 -0.3020  0.0989
32107SOL    HW1 8299   8.630   4.639   3.299 -0.5494 -0.5854 -0.4080
32107SOL    HW2 8300   8.502   4.650   3.220  0.0292  1.4210 -1.1330
32108SOL     OW 8301   8.362   9.155   7.353  0.0993 -0.4753  0.1482
32108SOL    HW1 8302   8.291   9.150   7.289  0.2425  2.4677 -0.4130
32108SOL    HW2 8303   8.318   9.155   7.438 -0.2722 -2.0729 -0.0250
32109SOL     OW 8304   0.190   2.182   0.125 -0.1997  0.2108 -0.5695
32109SOL    HW1 8305   0.142   2.109   0.165 -1.3791  1.6104  0.6949
32109SOL    HW2 8306   0.276   2.180   0.167 -0.5098  0.0322  0.0715
32110SOL     OW 8307   6.655   9.431   1.198 -0.2011 -0.1526  0.8292
32110SOL    HW1 8308   6.612   9.351   1.168 -0.1736  0.6682 -1.6762
32110SOL    HW2 8309   6.743   9.426   1.161 -0.3608  1.2252  0.1778
32111SOL     OW 8310  10.370   7.489   2.974  0.4945  0.1885  0.1359
32111SOL    HW1 8311  10.354   7.461   2.884  2.1697  3.2392 -1.2883
32111SOL    HW2 8312  10.414   7.415   3.015  2.2426 -0.3608 -2.4783
32112SOL     OW 8313   7.429   8.529   8.636 -0.1834 -0.8227 -0.9108
32112SOL    HW1 8314   7.512   8.573   8.654 -0.6405  0.0091 -0.8034
32112SOL    HW2 8315   7.451   8.435   8.637  1.3377 -0.6102 -3.6943
32113SOL     OW 8316   5.625  10.117   5.089 -0.6163  0.0434  0.1730
32113SOL    HW1 8317   5.561  10.098   5.158  0.7864  0.4911  1.6615
32113SOL    HW2 8318   5.578  10.099   5.008 -2.4400 -0.2068  1.2153
32114SOL     OW 8319   8.387   4.750   8.666  0.4738 -0.5006  0.1558
32114SOL    HW1 8320   8.322   4.741   8.735  2.4512  0.6557  2.3498
32114SOL    HW2 8321   8.458   4.691   8.691  0.1805 -2.0788 -2.4026
32115SOL     OW 8322   3.338   0.447   0.246 -0.0120 -0.4429  0.4942
32115SOL    HW1 8323   3.251   0.422   0.278 -0.4181  1.2616  0.8379
32115SOL    HW2 8324   3.393   0.451   0.324  0.1275 -0.5742  0.4028
32116SOL     OW 8325   2.619   5.742   5.184  0.0706  0.1988  0.1523
32116SOL    HW1 8326   2.706   5.769   5.153 -0.1011  1.3145  0.5746
32116SOL    HW2 8327   2.631   5.654   5.219  1.0399  0.3575  0.2328
32117SOL     OW 8328   9.406   4.971   6.502  0.2754  0.2582 -0.4442
32117SOL    HW1 8329   9.379   4.957   6.411  1.4901 -1.6875 -0.5843
32117SOL    HW2 8330   9.483   4.914   6.513 -0.7308 -0.7685  2.2120
32118SOL     OW 8331   2.573   0.378   9.805  0.5098  0.4150  0.6797
32118SOL    HW1 8332   2.486   0.350   9.776  0.1242 -0.9183  2.8822
32118SOL    HW2 8333   2.625   0.381   9.725 -1.6281  1.6381 -0.7748
32119SOL     OW 8334   9.528   3.214   8.543 -0.0038 -0.3970  0.0442
32119SOL    HW1 8335   9.477   3.240   8.620  0.7571  0.8655  0.1490
32119SOL    HW2 8336   9.616   3.199   8.576  0.5113  0.8875 -0.6689
32120SOL     OW 8337   6.677   4.207   7.085  0.4814 -0.0057  0.1938
32120SOL    HW1 8338   6.729   4.148   7.141  2.0968 -0.0749 -1.2859
32120SOL    HW2 8339   6.610   4.151   7.046  1.1923 -0.5968 -0.1972
32121SOL     OW 8340   4.558   2.504   2.805  0.0314 -0.1089 -0.0204
32121SOL    HW1 8341   4.593   2.430   2.756  0.3523  0.7501 -1.1299
32121SOL    HW2 8342   4.467   2.512   2.776  0.4636  0.9243 -1.1446
32122SOL     OW 8343   7.099   0.678   4.282  0.2491  0.6894  0.4044
32122SOL    HW1 8344   7.088   0.677   4.187  0.3404 -0.6552  0.3895
32122SOL    HW2 8345   7.193   0.690   4.295  0.4005 -0.3209  0.2929
32123SOL     OW 8346   2.866   3.708   7.985  0.7579 -0.1810 -0.2491
32123SOL    HW1 8347   2.875   3.682   7.893  1.0281 -1.0079 -0.0020
32123SOL    HW2 8348   2.837   3.628   8.030 -3.3987  1.1226 -0.2101
32124SOL     OW 8349   4.636   1.740   7.020  0.3789  0.2687 -0.0042
32124SOL    HW1 8350   4.712   1.684   7.033 -0.1594 -0.3359  0.6344
32124SOL    HW2 8351   4.610   1.766   7.109  0.6321  1.5578 -0.2882
32125SOL     OW 8352   0.872   2.463  10.250  0.2947  0.6949 -0.4811
32125SOL    HW1 8353   0.814   2.460  10.326  0.1867 -1.2821 -0.5951
32125SOL    HW2 8354   0.947   2.408  10.275 -0.7308 -1.8283 -2.5220
32126SOL     OW 8355   9.625   0.391   6.062 -0.1363  0.7069 -0.2543
32126SOL    HW1 8356   9.541   0.352   6.038  0.2944  0.8447 -2.0799
32126SOL    HW2 8357   9.605   0.484   6.073 -0.3028  0.6715 -0.2510
32127SOL     OW 8358   6.776   6.877   5.302 -0.0495 -0.1704 -0.1706
32127SOL    HW1 8359   6.761   6.783   5.313  0.7575 -0.1914  0.9450
32127SOL    HW2 8360   6.730   6.917   5.376  0.9316  0.1709  0.2707
32128SOL     OW 8361   4.524  10.360   4.217 -0.3992 -0.1532 -0.1397
32128SOL    HW1 8362   4.512  10.293   4.151  0.2141 -1.0922  0.6802
32128SOL    HW2 8363   4.443  10.358   4.269 -0.3749 -0.2592 -0.1069
32129SOL     OW 8364   3.542   6.663   2.401 -0.5560  0.3480 -0.2066
32129SOL    HW1 8365   3.574   6.736   2.454 -0.5276  0.1689  0.0277
32129SOL    HW2 8366   3.448   6.677   2.393 -0.4038  0.9804 -1.0560
32130SOL     OW 8367   9.270   9.816   6.564 -0.3188 -0.2981  0.3686
32130SOL    HW1 8368   9.352   9.865   6.569 -0.2344 -0.4806  0.9205
32130SOL    HW2 8369   9.208   9.868   6.614 -0.1309 -0.9177  1.2930
32131SOL     OW 8370   3.047   5.789   0.038 -1.0510 -0.4149  0.2021
32131SOL    HW1 8371   3.141   5.774   0.045 -0.5314  1.9397 -1.0806
32131SOL    HW2 8372   3.017   5.725  -0.027 -0.4324 -1.3074  0.7600
32132SOL     OW 8373   2.566   3.580  10.285 -0.2112 -0.0771 -0.2186
32132SOL    HW1 8374   2.510   3.536  10.348 -1.7591  1.1094 -0.7015
32132SOL    HW2 8375   2.603   3.655  10.334 -0.2092 -0.0184 -0.3105
32133SOL     OW 8376   1.689   7.071   4.743 -0.0209 -0.0310 -0.0194
32133SOL    HW1 8377   1.633   7.148   4.744 -1.2725 -0.9167  1.0481
32133SOL    HW2 8378   1.645   7.011   4.682  0.6662 -0.1123 -0.4448
32134SOL     OW 8379   3.148   0.511   3.181 -0.1223 -0.4640  0.3596
32134SOL    HW1 8380   3.062   0.540   3.214 -0.4598  0.0918 -0.9602
32134SOL    HW2 8381   3.171   0.437   3.238 -2.1512 -1.5685 -0.1516
32135SOL     OW 8382   1.044   3.935   1.081  0.3899 -0.6375 -0.1524
32135SOL    HW1 8383   1.018   3.868   1.019 -0.7182 -0.6056  0.2567
32135SOL    HW2 8384   0.983   3.926   1.154  0.0675  0.9271 -0.1745
32136SOL     OW 8385   9.413   7.635   4.655  0.3185  0.1370 -0.4751
32136SOL    HW1 8386   9.323   7.625   4.684  0.3119  1.6229  0.0750
32136SOL    HW2 8387   9.458   7.559   4.692 -0.3951  0.2073  0.5905
32137SOL     OW 8388   9.772   0.465   6.685 -0.2232 -0.1818  0.8788
32137SOL    HW1 8389   9.857   0.498   6.715 -0.4366  1.8396 -0.4888
32137SOL    HW2 8390   9.794   0.391   6.628  0.5944 -0.0160  0.9645
32138SOL     OW 8391   7.186  10.054   9.765 -0.4526  0.2493 -0.1609
32138SOL    HW1 8392   7.128  10.125   9.735  0.4523  0.8316 -0.5673
32138SOL    HW2 8393   7.273  10.094   9.768  0.1182 -0.9213 -0.6249
32139SOL     OW 8394   7.771   5.678  10.105 -0.5299 -0.0745  0.1065
32139SOL    HW1 8395   7.825   5.604  10.074 -0.4546  0.2297 -0.5000
32139SOL    HW2 8396   7.809   5.701  10.190 -0.9605 -1.1478  0.6085
32140SOL     OW 8397   8.137  10.288   4.889  0.1016  0.0547  0.4806
32140SOL    HW1 8398   8.058  10.300   4.837 -0.8145  1.8816  2.1676
32140SOL    HW2 8399   8.115  10.220   4.953  0.6357 -0.9198 -0.3356
32141SOL     OW 8400   0.325   3.488   9.082  0.2396  0.0591  0.2988
32141SOL    HW1 8401   0.253   3.455   9.028  0.2019  0.2454  0.2338
32141SOL    HW2 8402   0.330   3.427   9.156  0.8449 -0.6960 -0.3443
32142SOL     OW 8403   9.268   1.325   2.762  0.1644  0.1918  0.2315
32142SOL    HW1 8404   9.329   1.260   2.797 -1.3515 -0.3184  2.0674
32142SOL    HW2 8405   9.202   1.274   2.715  0.8639  0.7104 -1.3985
32143SOL     OW 8406   2.306   9.119   8.438 -0.0521  0.0059  0.2406
32143SOL    HW1 8407   2.336   9.048   8.381  2.1709 -0.2052  1.5430
32143SOL    HW2 8408   2.357   9.195   8.409 -0.7003  0.4991  0.3726
32144SOL     OW 8409   1.534   2.856   9.126 -0.2566  0.3467  0.0673
32144SOL    HW1 8410   1.512   2.841   9.034  1.1343  1.4788 -0.4811
32144SOL    HW2 8411   1.617   2.810   9.139  0.6618  1.9620  0.1380
32145SOL     OW 8412   3.863   7.428   3.442 -0.4535 -0.1621  0.1602
32145SOL    HW1 8413   3.836   7.461   3.528  0.7590  0.7625  0.2219
32145SOL    HW2 8414   3.782   7.400   3.400 -1.6891  3.0621  0.0711
32146SOL     OW 8415   9.094   2.653   0.586  0.2729  0.1612 -0.4384
32146SOL    HW1 8416   9.115   2.742   0.616  1.5609 -0.3960  0.4572
32146SOL    HW2 8417   9.054   2.664   0.500 -1.5781  1.7246  0.5592
32147SOL     OW 8418   4.326   3.974   0.165  0.1276 -0.4538 -0.2045
32147SOL    HW1 8419   4.420   3.990   0.179  0.2814 -0.8724 -0.7086
32147SOL    HW2 8420   4.289   3.967   0.253  0.2711  1.3724  0.0327
32148SOL     OW 8421  10.194   4.002   9.771 -0.6247  0.6424  0.0512
32148SOL    HW1 8422  10.226   4.019   9.859 -0.9682  1.7160 -0.0205
32148SOL    HW2 8423  10.099   4.017   9.777 -0.5811  1.2144 -0.6139
32149SOL     OW 8424   9.309   7.957  10.007  0.3051 -0.6811  0.2686
32149SOL    HW1 8425   9.232   7.906   9.984  1.2196 -2.4864  1.0456
32149SOL    HW2 8426   9.279   8.015  10.077 -0.3147 -1.4711  0.6695
32150SOL     OW 8427   8.289   6.627   0.256 -0.2873 -0.1230  0.3062
32150SOL    HW1 8428   8.331   6.666   0.179  0.5056 -1.4990 -0.0008
32150SOL    HW2 8429   8.206   6.673   0.264  0.8938  2.1045  0.4155
32151SOL     OW 8430   2.725   2.564   9.335  0.0090  0.5640 -0.3136
32151SOL    HW1 8431   2.759   2.653   9.344 -1.6307  1.0768  1.1839
32151SOL    HW2 8432   2.716   2.552   9.240 -2.0128  2.9251 -0.5082
32152SOL     OW 8433   9.847   0.781   9.519 -0.0636  0.0791  0.7330
32152SOL    HW1 8434   9.774   0.722   9.537 -0.3984  0.1229 -0.4433
32152SOL    HW2 8435   9.916   0.753   9.579  0.9355 -3.5895 -1.8358
32153SOL     OW 8436   5.388   6.070   6.302  0.7275 -0.1795 -0.1632
32153SOL    HW1 8437   5.461   6.009   6.309  1.7387  1.1126  1.1391
32153SOL    HW2 8438   5.338   6.039   6.227  2.9133 -0.7866 -1.4629
32154SOL     OW 8439   3.634   9.353   8.882 -0.0029  0.2484  0.3780
32154SOL    HW1 8440   3.616   9.361   8.788  0.9037 -2.4173 -0.1108
32154SOL    HW2 8441   3.713   9.300   8.887 -1.4140 -1.8345  2.6608
32155SOL     OW 8442   8.766   2.681   9.073  0.3559  0.3617  0.0315
32155SOL    HW1 8443   8.788   2.588   9.081  1.0852  0.5428  0.1798
32155SOL    HW2 8444   8.693   2.693   9.134  0.0688 -0.1668 -0.1966
32156SOL     OW 8445   3.895   1.491   0.125 -0.1645  0.2540  0.1035
32156SOL    HW1 8446   3.962   1.532   0.179 -0.3292  0.0515  0.4645
32156SOL    HW2 8447   3.825   1.469   0.186  0.2292 -1.2559  0.0364
32157SOL     OW 8448   7.811   9.086   2.037  0.5914  0.4734  0.0082
32157SOL    HW1 8449   7.779   9.136   1.962  0.0192  0.0410 -0.0437
32157SOL    HW2 8450   7.836   9.001   2.000  0.3318  0.2669  0.3051
32158SOL     OW 8451   7.316   1.342   6.785 -0.1326 -0.2908 -0.4227
32158SOL    HW1 8452   7.346   1.351   6.694  2.2119 -0.2751  0.2748
32158SOL    HW2 8453   7.276   1.255   6.788  2.5015 -1.6430 -0.8747
32159SOL     OW 8454   0.404   3.601   4.255 -0.0766  0.1507  1.0448
32159SOL    HW1 8455   0.444   3.526   4.298  0.1338 -0.3074  0.0891
32159SOL    HW2 8456   0.477   3.647   4.213 -0.4020 -0.1520  0.0998
32160SOL     OW 8457   9.514   9.910   5.899 -0.3683 -0.0543 -0.5127
32160SOL    HW1 8458   9.481   9.862   5.823  0.9837 -2.1359  0.1538
32160SOL    HW2 8459   9.525   9.844   5.967 -0.7646  1.6246  1.2778
32161SOL     OW 8460   1.140   6.182   8.594  0.0919  0.3318 -0.1716
32161SOL    HW1 8461   1.207   6.114   8.598 -0.2075  0.0072 -0.5523
32161SOL    HW2 8462   1.059   6.137   8.620 -0.1830  0.4357 -0.8120
32162SOL     OW 8463   1.283   5.154   7.798  0.4543 -0.5514 -0.0903
32162SOL    HW1 8464   1.340   5.231   7.795  1.6736 -1.4408 -0.9021
32162SOL    HW2 8465   1.212   5.179   7.857  0.8941  1.1310 -0.2162
32163SOL     OW 8466   0.835   4.245   6.181  0.3298 -0.1846 -0.1922
32163SOL    HW1 8467   0.920   4.247   6.225  0.9399 -1.6662 -1.2333
32163SOL    HW2 8468   0.821   4.153   6.160 -1.1834  0.1406 -0.7213
32164SOL     OW 8469   8.500   6.778   8.932 -0.3196  0.1272  0.0866
32164SOL    HW1 8470   8.469   6.717   8.999  0.1725  1.7841  1.9164
32164SOL    HW2 8471   8.443   6.854   8.941 -0.3444  0.3299 -1.5286
32165SOL     OW 8472   1.818   2.770   3.753  0.0606 -0.3027  0.5933
32165SOL    HW1 8473   1.803   2.858   3.788  1.1179 -0.0442  0.4278
32165SOL    HW2 8474   1.788   2.712   3.823  0.1748  0.1915  1.0651
32166SOL     OW 8475   5.940   7.611   7.178 -0.0556 -0.2193 -0.2624
32166SOL    HW1 8476   5.876   7.542   7.162 -1.3357  1.1656 -1.4510
32166SOL    HW2 8477   6.023   7.573   7.151 -0.2913 -2.1210  1.4731
32167SOL     OW 8478   7.465   0.451   6.918  0.1958 -0.4177 -0.2094
32167SOL    HW1 8479   7.540   0.460   6.859 -0.2102 -0.2401 -0.7094
32167SOL    HW2 8480   7.498   0.477   7.004  0.4008  0.8127 -0.6439
32168SOL     OW 8481   2.138   5.128   4.179  0.1621  0.4164  0.7579
32168SOL    HW1 8482   2.065   5.149   4.121  0.0766 -1.5110  0.0937
32168SOL    HW2 8483   2.147   5.205   4.235  0.5276  2.6095 -2.0606
32169SOL     OW 8484   2.393   7.104   0.644  0.6588  0.4937  0.2026
32169SOL    HW1 8485   2.470   7.049   0.632 -0.4241 -0.7573 -1.4081
32169SOL    HW2 8486   2.332   7.050   0.694  0.6932  1.4024  1.2940
32170SOL     OW 8487   7.406   1.687   8.124  0.9838 -0.1031  0.4481
32170SOL    HW1 8488   7.409   1.753   8.194  0.2277 -1.4696  1.8529
32170SOL    HW2 8489   7.425   1.735   8.044  2.9559  1.3644  1.7040
32171SOL     OW 8490   3.999   5.650   6.068  0.4277 -0.4815  0.5072
32171SOL    HW1 8491   3.949   5.695   6.000  0.8299 -0.4910  0.1999
32171SOL    HW2 8492   3.982   5.557   6.052  1.0493 -0.5116  0.0042
32172SOL     OW 8493   4.200   8.697   3.103 -0.1964  0.8979 -0.2681
32172SOL    HW1 8494   4.108   8.724   3.096 -0.1391  1.3201  0.5285
32172SOL    HW2 8495   4.197   8.603   3.120 -0.4042  0.3338 -3.0031
32173SOL     OW 8496   9.409   2.851   0.151 -0.2198 -0.1848  0.2520
32173SOL    HW1 8497   9.375   2.844   0.239 -1.8406 -1.6220 -0.4311
32173SOL    HW2 8498   9.349   2.911   0.106 -0.2461 -0.5716 -0.2372
32174SOL     OW 8499   9.378   8.678   4.100 -0.2715 -0.1639 -0.1563
32174SOL    HW1 8500   9.419   8.635   4.175  0.0086 -1.4014 -0.9900
32174SOL    HW2 8501   9.362   8.607   4.037 -3.5607  0.2255  0.0438
32175SOL     OW 8502   6.278   9.213   4.690 -0.0357 -0.2418  0.2671
32175SOL    HW1 8503   6.281   9.186   4.782  1.1139  1.5461  0.8017
32175SOL    HW2 8504   6.354   9.270   4.679 -0.4395 -0.0143 -1.6696
32176SOL     OW 8505   0.002  10.339   5.281  0.7463 -0.2733  0.4089
32176SOL    HW1 8506   0.027  10.276   5.213 -0.4122 -0.2386 -0.0595
32176SOL    HW2 8507   0.009  10.290   5.363  1.7919 -0.4181  0.2513
32177SOL     OW 8508   0.563   2.077   1.466 -0.5720 -0.5444 -0.4369
32177SOL    HW1 8509   0.570   2.001   1.524 -1.2883 -0.3994 -0.1492
32177SOL    HW2 8510   0.615   2.145   1.509 -0.4998 -0.6600 -0.3422
32178SOL     OW 8511   0.482   7.845   3.681 -0.4246 -0.3956  0.2274
32178SOL    HW1 8512   0.404   7.842   3.625 -0.8901 -0.5617  0.8758
32178SOL    HW2 8513   0.503   7.938   3.688  0.8060 -0.4417 -1.7882
32179SOL     OW 8514   2.751   9.815   8.328 -0.1176  0.5242 -0.6075
32179SOL    HW1 8515   2.705   9.874   8.387  0.3141  1.8615 -1.5573
32179SOL    HW2 8516   2.695   9.809   8.250  0.0169 -0.0363 -0.6709
32180SOL     OW 8517   9.381   1.729   6.172 -0.2143  0.2095  0.5624
32180SOL    HW1 8518   9.356   1.768   6.089  1.9069 -2.7760 -1.6819
32180SOL    HW2 8519   9.475   1.747   6.180  0.2943 -2.1646  0.6448
32181SOL     OW 8520   0.370   2.497   5.910 -0.1912  0.0567  0.0740
32181SOL    HW1 8521   0.389   2.424   5.969 -1.0613  0.0306  0.3312
32181SOL    HW2 8522   0.312   2.460   5.843 -0.5546  0.4804  0.1465
32182SOL     OW 8523   9.714   4.256   8.420 -0.0219 -0.2867  0.3364
32182SOL    HW1 8524   9.629   4.277   8.458 -0.4758 -1.1343 -0.1914
32182SOL    HW2 8525   9.710   4.162   8.402  0.3926 -0.0233 -1.2756
32183SOL     OW 8526   4.401   9.334  10.305 -0.5399 -0.3582 -0.0362
32183SOL    HW1 8527   4.414   9.426  10.281 -1.0503 -0.1828  0.3175
32183SOL    HW2 8528   4.305   9.325  10.312 -0.4616 -0.7024  0.7226
32184SOL     OW 8529   9.501  10.054   4.231 -0.7965  0.1798 -0.0903
32184SOL    HW1 8530   9.425  10.070   4.287 -0.4032  0.2263  0.4332
32184SOL    HW2 8531   9.568  10.115   4.263 -0.9301  1.0269 -1.3461
32185SOL     OW 8532   1.423   1.221   8.348  0.6279  0.1025  0.1120
32185SOL    HW1 8533   1.380   1.190   8.428  1.5996 -0.0176  0.6075
32185SOL    HW2 8534   1.352   1.258   8.296 -0.0736 -0.0882  0.8995
32186SOL     OW 8535   0.746   9.215   1.156 -0.2823 -0.0065  0.1015
32186SOL    HW1 8536   0.676   9.204   1.092 -0.3151  1.7184 -0.2008
32186SOL    HW2 8537   0.714   9.169   1.234 -0.0958 -2.4143 -1.1652
32187SOL     OW 8538   2.230   1.858   0.168 -0.1693  0.0997 -0.3150
32187SOL    HW1 8539   2.262   1.869   0.078  1.3150  0.8163  0.2618
32187SOL    HW2 8540   2.219   1.947   0.200  2.6582 -0.0032  1.2928
32188SOL     OW 8541   4.056   6.658   1.846  0.1446 -0.4461 -0.0046
32188SOL    HW1 8542   4.135   6.638   1.896  1.2787  1.0278 -1.1362
32188SOL    HW2 8543   4.061   6.751   1.828 -0.7932 -0.7054 -1.8937
32189SOL     OW 8544   4.876  10.129   5.209 -0.5366 -0.0951  0.0678
32189SOL    HW1 8545   4.854  10.161   5.121  0.6047 -1.1869 -0.6459
32189SOL    HW2 8546   4.842  10.040   5.211 -1.4740  0.2592  1.1376
32190SOL     OW 8547   3.374   7.870   4.724 -0.2157 -0.0454  0.3035
32190SOL    HW1 8548   3.441   7.875   4.793 -0.1221  0.7578  0.1671
32190SOL    HW2 8549   3.311   7.806   4.756  0.2928 -0.3357  0.7295
32191SOL     OW 8550   7.733   3.699   7.863 -0.6590  0.1308 -0.1082
32191SOL    HW1 8551   7.823   3.668   7.857 -0.5529  0.5984 -1.1847
32191SOL    HW2 8552   7.692   3.641   7.927  0.2561 -0.4461 -0.0260
32192SOL     OW 8553   6.587  10.097   0.692 -0.7638  0.2374 -0.1509
32192SOL    HW1 8554   6.596  10.106   0.787  1.6658  1.2806 -0.4151
32192SOL    HW2 8555   6.593  10.186   0.658 -2.7369  0.0025 -1.2599
32193SOL     OW 8556   1.935   0.063   4.415 -0.1504 -0.0029 -0.5424
32193SOL    HW1 8557   1.900   0.049   4.327 -0.6888  0.5083 -0.4165
32193SOL    HW2 8558   1.928  -0.022   4.458  1.3520 -0.6155 -1.4092
32194SOL     OW 8559   9.453  10.386   6.241  0.1742 -0.3698  0.3787
32194SOL    HW1 8560   9.363  10.368   6.213  0.1900  1.6567 -1.1637
32194SOL    HW2 8561   9.482  10.303   6.280 -2.0573 -1.3350  0.1850
32195SOL     OW 8562   8.695   0.394   5.569 -0.6342 -0.6817  0.0030
32195SOL    HW1 8563   8.694   0.311   5.520 -0.6749 -1.6190  1.5355
32195SOL    HW2 8564   8.749   0.452   5.516  0.7247 -2.1933 -0.3344
32196SOL     OW 8565   6.139   7.821   1.242 -0.2593  0.4765 -0.9584
32196SOL    HW1 8566   6.105   7.807   1.153  0.7571 -0.8961 -1.1721
32196SOL    HW2 8567   6.161   7.914   1.245 -0.5699  0.6061 -2.0534
32197SOL     OW 8568   2.716  10.198   9.409 -0.7699 -0.2489 -0.5238
32197SOL    HW1 8569   2.803  10.160   9.396 -0.0996  1.0263  0.0223
32197SOL    HW2 8570   2.668  10.132   9.459  0.0856 -0.7075 -0.2893
32198SOL     OW 8571   1.654   4.049   8.971  0.4050  0.4095  0.3048
32198SOL    HW1 8572   1.649   4.144   8.983  0.6960  0.4265  0.2922
32198SOL    HW2 8573   1.582   4.015   9.025  1.0560  0.5595  1.2994
32199SOL     OW 8574   8.560   2.180   4.754  0.3934 -0.6815  0.2866
32199SOL    HW1 8575   8.597   2.268   4.766 -0.8117 -0.1034 -0.1121
32199SOL    HW2 8576   8.604   2.146   4.676  2.0365 -1.0908  1.3459
32200SOL     OW 8577  10.185   6.972   9.405  0.4973 -0.0649 -0.0233
32200SOL    HW1 8578  10.120   6.904   9.425 -0.2236  0.9648  1.2583
32200SOL    HW2 8579  10.224   6.943   9.322 -1.1818 -1.0198 -0.5389
32201SOL     OW 8580   9.339   1.320   1.459 -0.4169  0.5646 -0.0029
32201SOL    HW1 8581   9.294   1.285   1.382 -1.4503  0.9870  0.3925
32201SOL    HW2 8582   9.427   1.339   1.428 -0.5270 -0.1769 -0.8279
32202SOL     OW 8583   4.049   4.268   9.233 -1.1053 -0.1108  0.0372
32202SOL    HW1 8584   4.021   4.181   9.207  0.5692 -0.2551 -1.4927
32202SOL    HW2 8585   4.145   4.265   9.229 -0.8557  1.0291  2.6298
32203SOL     OW 8586   2.019   0.968   1.501 -0.0426 -0.1844 -0.7329
32203SOL    HW1 8587   2.107   0.977   1.463  0.3174 -0.4388  0.0124
32203SOL    HW2 8588   2.010   0.874   1.518 -1.4926 -0.5527 -3.1680
32204SOL     OW 8589   1.137   7.912   9.570  0.2010  0.1275  0.0820
32204SOL    HW1 8590   1.122   7.905   9.665  0.4623  2.8209  0.3882
32204SOL    HW2 8591   1.229   7.889   9.559 -0.1259 -1.4148  0.2576
32205SOL     OW 8592   6.973   5.456   6.680 -0.2726  0.5718  0.0407
32205SOL    HW1 8593   6.942   5.418   6.762 -0.2853  0.6115  0.0548
32205SOL    HW2 8594   6.957   5.388   6.614  0.7073  0.1358  0.2467
32206SOL     OW 8595   8.634   7.718   6.669 -0.1552  0.1701 -0.3216
32206SOL    HW1 8596   8.696   7.786   6.642  0.6345 -0.6558 -0.6040
32206SOL    HW2 8597   8.685   7.659   6.724 -1.2761  0.7630  1.4355
32207SOL     OW 8598   5.191   3.175   2.680  0.1464 -0.3897  0.1039
32207SOL    HW1 8599   5.210   3.107   2.745  1.1914 -0.3527 -0.1508
32207SOL    HW2 8600   5.144   3.129   2.611  0.3320 -0.7339  0.2043
32208SOL     OW 8601   1.918   6.595   1.684 -0.3804 -0.6040 -0.2098
32208SOL    HW1 8602   1.885   6.684   1.695 -1.6197 -0.9976 -0.5047
32208SOL    HW2 8603   1.906   6.554   1.770 -0.4235 -0.6738 -0.2487
32209SOL     OW 8604   7.003   5.482   9.378 -0.0883 -0.6451  0.2019
32209SOL    HW1 8605   7.026   5.488   9.285  0.2746  0.1678  0.3391
32209SOL    HW2 8606   6.913   5.515   9.382  0.0105 -0.3688  0.1830
32210SOL     OW 8607   4.648   3.419   8.810 -0.2126 -0.0825 -0.4403
32210SOL    HW1 8608   4.699   3.386   8.884 -0.8664 -1.5908 -0.6207
32210SOL    HW2 8609   4.572   3.460   8.850  0.5660  1.2194 -0.2169
32211SOL     OW 8610   1.489   8.036   7.481 -0.2398  0.0586 -0.0734
32211SOL    HW1 8611   1.460   8.003   7.566  1.6691  0.4819  0.7948
32211SOL    HW2 8612   1.506   8.129   7.496  0.6860  0.0088 -0.7458
32212SOL     OW 8613   7.346   0.373   9.234  0.6030  0.3163 -0.6421
32212SOL    HW1 8614   7.282   0.303   9.247 -0.0778  1.1429  0.7927
32212SOL    HW2 8615   7.429   0.328   9.219  0.5112 -0.8687  1.8762
32213SOL     OW 8616   9.591   0.272   8.441  0.0033  0.2397 -0.2303
32213SOL    HW1 8617   9.659   0.222   8.394  0.5742  0.7891 -0.0007
32213SOL    HW2 8618   9.597   0.241   8.531  0.3749  0.7160 -0.0820
32214SOL     OW 8619   1.756   9.890   7.176  0.1729  0.3344 -0.3046
32214SOL    HW1 8620   1.679   9.932   7.213  1.4575  1.9951  0.6088
32214SOL    HW2 8621   1.759   9.803   7.218 -0.5342  0.7188  0.5653
32215SOL     OW 8622  10.206   5.478   7.616 -0.0306  0.3057 -0.1537
32215SOL    HW1 8623  10.148   5.541   7.658  1.3986  0.6762  1.3773
32215SOL    HW2 8624  10.215   5.407   7.680 -1.0217 -1.1263 -1.5467
32216SOL     OW 8625   3.615   0.627  10.138 -0.6940 -0.6058  0.3937
32216SOL    HW1 8626   3.588   0.715  10.111  0.6567 -0.5648 -0.9809
32216SOL    HW2 8627   3.568   0.568  10.078 -0.7013 -0.7630  0.5519
32217SOL     OW 8628   6.303   3.428   6.289 -0.3023 -0.6033  0.0325
32217SOL    HW1 8629   6.389   3.385   6.295 -0.0719 -0.4084 -1.5452
32217SOL    HW2 8630   6.244   3.367   6.332  0.6044 -0.7813  1.0799
32218SOL     OW 8631   2.083   3.122   0.104 -0.2352 -0.0209  0.0362
32218SOL    HW1 8632   2.134   3.078   0.172  0.1389 -0.8292 -0.7451
32218SOL    HW2 8633   2.057   3.051   0.045 -0.6840  0.6460 -0.5749
32219SOL     OW 8634   4.832   6.168   5.003  0.2998  0.2315 -0.1463
32219SOL    HW1 8635   4.807   6.215   5.083  0.4241 -0.7634  0.5001
32219SOL    HW2 8636   4.759   6.107   4.988  0.7756 -0.3491 -0.1580
32220SOL     OW 8637   5.322   8.521   4.664  0.1687 -0.3377  0.2740
32220SOL    HW1 8638   5.393   8.529   4.728 -0.2646 -1.2680  0.8839
32220SOL    HW2 8639   5.342   8.441   4.617  1.5018  1.2435 -2.0759
32221SOL     OW 8640   0.166   2.611   0.122  0.3532 -0.3835  0.0441
32221SOL    HW1 8641   0.154   2.683   0.060  0.7417 -0.0546  0.3498
32221SOL    HW2 8642   0.200   2.539   0.069 -0.9676 -0.6627 -0.4454
32222SOL     OW 8643   7.568   9.935   3.454  0.2496  0.6078  0.0495
32222SOL    HW1 8644   7.601  10.020   3.482 -0.1682  1.1204 -0.9610
32222SOL    HW2 8645   7.547   9.947   3.361 -0.4350 -0.4062  0.0573
32223SOL     OW 8646   2.201   5.670   7.510  0.5688  0.0882  0.8247
32223SOL    HW1 8647   2.216   5.624   7.427 -0.7113  4.9966 -2.5635
32223SOL    HW2 8648   2.284   5.713   7.529  1.0056 -1.3799  2.5413
32224SOL     OW 8649   7.693  10.186   7.632 -0.0162  0.4285 -0.2073
32224SOL    HW1 8650   7.718  10.120   7.697  0.4930  1.6982  0.9646
32224SOL    HW2 8651   7.607  10.159   7.601  0.2447 -0.8478  0.1182
32225SOL     OW 8652   0.082   2.335  10.309 -0.1323 -0.2638  0.5074
32225SOL    HW1 8653  -0.012   2.334  10.327 -0.2619 -1.0443 -0.1863
32225SOL    HW2 8654   0.120   2.277  10.375 -0.4266 -1.8529 -0.6697
32226SOL     OW 8655   9.074   9.162   7.522  0.1526  0.3083  0.0976
32226SOL    HW1 8656   9.009   9.200   7.463  0.5459  0.3380 -0.3252
32226SOL    HW2 8657   9.090   9.075   7.486  2.3027  1.2473 -1.3924
32227SOL     OW 8658   0.463   4.060   6.321 -0.2030 -0.1431  0.1190
32227SOL    HW1 8659   0.521   3.983   6.322  0.3669  0.2765 -0.3628
32227SOL    HW2 8660   0.487   4.109   6.400  0.2318  0.1273 -0.1796
32228SOL     OW 8661   1.777   2.049   9.907  0.7135 -0.1614 -0.1927
32228SOL    HW1 8662   1.737   2.036   9.993  0.7870  0.5021 -0.0540
32228SOL    HW2 8663   1.771   2.143   9.892 -0.6515 -0.4240 -1.5677
32229SOL     OW 8664   7.427   3.744   7.221  0.4162  0.1237  0.2615
32229SOL    HW1 8665   7.458   3.808   7.286  0.1770  0.1911  0.3110
32229SOL    HW2 8666   7.412   3.796   7.142 -1.5659  0.4791  0.8276
32230SOL     OW 8667   1.050   0.799   0.702 -0.7828 -0.1664  0.2605
32230SOL    HW1 8668   1.063   0.727   0.764  0.4420 -0.5132 -0.3678
32230SOL    HW2 8669   1.029   0.756   0.619 -0.4164  0.1997 -0.0296
32231SOL     OW 8670   8.554   8.399   4.377  0.5391 -0.6026 -0.1797
32231SOL    HW1 8671   8.584   8.461   4.311 -0.8157 -0.6341 -0.8600
32231SOL    HW2 8672   8.602   8.423   4.456 -1.0200  2.3787  0.0093
32232SOL     OW 8673  10.005   9.427   7.300 -0.3907 -0.2288 -0.0869
32232SOL    HW1 8674  10.014   9.432   7.395 -3.0346  2.1290  0.1714
32232SOL    HW2 8675   9.951   9.350   7.285 -0.1726 -0.4634  0.3253
32233SOL     OW 8676   7.392   8.488  10.203  0.2211  0.0543  0.3387
32233SOL    HW1 8677   7.415   8.533  10.284  3.5015  0.4556 -0.6533
32233SOL    HW2 8678   7.455   8.521  10.139 -3.4059  1.2208 -2.9929
32234SOL     OW 8679   1.313   8.164   1.500 -0.3998  0.3708  0.1708
32234SOL    HW1 8680   1.319   8.213   1.418  1.8645 -0.8611 -0.5007
32234SOL    HW2 8681   1.262   8.220   1.558 -1.3931  1.6361 -1.8036
32235SOL     OW 8682   8.393  10.101   1.141 -0.0663  0.3529  0.3875
32235SOL    HW1 8683   8.475  10.094   1.190  0.5293 -0.8370 -0.7060
32235SOL    HW2 8684   8.408  10.174   1.081  0.7711 -0.6962 -0.7526
32236SOL     OW 8685   3.448   2.181   7.894 -0.0572  0.6593  0.1842
32236SOL    HW1 8686   3.496   2.263   7.906 -0.5063  0.8146  1.0287
32236SOL    HW2 8687   3.516   2.115   7.880  0.3914  0.9541  0.8814
32237SOL     OW 8688   7.238   7.790   6.555  0.3039 -0.1680 -0.2475
32237SOL    HW1 8689   7.176   7.758   6.490 -0.0648  0.2603 -0.1108
32237SOL    HW2 8690   7.313   7.819   6.503  0.1589 -0.1669 -0.4568
32238SOL     OW 8691   5.808   9.695   5.458 -0.1837  0.2316  0.6057
32238SOL    HW1 8692   5.770   9.769   5.505 -0.8976 -0.5125  1.2367
32238SOL    HW2 8693   5.817   9.726   5.368 -0.4085  1.1017  0.8749
32239SOL     OW 8694   7.750   4.316   9.042 -0.4153 -0.2063 -0.2739
32239SOL    HW1 8695   7.663   4.278   9.034 -0.1679 -0.9031  0.1992
32239SOL    HW2 8696   7.772   4.346   8.954 -0.4500 -1.5830 -0.7745
32240SOL     OW 8697   0.558   5.582   9.595  0.6102  0.2652 -0.2912
32240SOL    HW1 8698   0.561   5.500   9.547  2.2326 -0.2449  0.6203
32240SOL    HW2 8699   0.468   5.588   9.626 -0.2925  0.2249 -2.6331
32241SOL     OW 8700   6.108   6.704   7.168 -0.4773 -0.1661  0.0451
32241SOL    HW1 8701   6.186   6.661   7.133 -0.3769 -0.4879  0.6593
32241SOL    HW2 8702   6.055   6.724   7.090  0.9657  1.5883 -0.5586
32242SOL     OW 8703   9.619   4.596   6.645 -0.0826 -0.3390  0.3833
32242SOL    HW1 8704   9.652   4.675   6.603  0.1043 -0.6735 -0.1138
32242SOL    HW2 8705   9.524   4.600   6.635 -0.0070 -0.7548 -0.7197
32243SOL     OW 8706   8.019   9.782   7.189  0.1885  0.3257 -0.3126
32243SOL    HW1 8707   8.064   9.778   7.104  1.1688  1.5723  0.1053
32243SOL    HW2 8708   8.080   9.830   7.245 -0.7157  0.0562  0.9362
32244SOL     OW 8709   0.237   4.555   6.237  0.1855 -0.0576  0.2410
32244SOL    HW1 8710   0.182   4.480   6.259 -0.1430  0.7102  2.2921
32244SOL    HW2 8711   0.310   4.550   6.299 -0.1587  1.6265  0.8239
32245SOL     OW 8712   1.811   7.690   7.708 -0.2441  0.0625 -0.3839
32245SOL    HW1 8713   1.743   7.757   7.715  1.7135  2.3484 -1.8448
32245SOL    HW2 8714   1.803   7.657   7.618  0.8733  0.7679 -0.7650
32246SOL     OW 8715   3.562   1.097   0.500  0.4659  0.3562  0.0979
32246SOL    HW1 8716   3.657   1.087   0.504  0.3755 -2.1599 -1.6278
32246SOL    HW2 8717   3.540   1.077   0.409 -1.7849  0.0578  0.6535
32247SOL     OW 8718   6.333   5.496   6.824 -0.4582 -0.3463 -0.0176
32247SOL    HW1 8719   6.417   5.454   6.841 -0.1084  0.3634  0.0173
32247SOL    HW2 8720   6.293   5.442   6.755 -0.7285 -1.6794  1.1462
32248SOL     OW 8721   7.566   7.300   7.544  0.2693 -0.0710  0.7991
32248SOL    HW1 8722   7.584   7.206   7.541 -0.0624 -0.3505  4.0430
32248SOL    HW2 8723   7.639   7.337   7.594 -0.9127  0.9654  1.8345
32249SOL     OW 8724   8.458   3.117   8.754 -0.1877  0.6067 -0.0561
32249SOL    HW1 8725   8.419   3.192   8.710 -2.7732 -1.8238 -2.2690
32249SOL    HW2 8726   8.542   3.103   8.709 -1.9578 -0.7167 -3.2530
32250SOL     OW 8727   4.840   4.801   1.332 -0.3064 -0.7861  0.1880
32250SOL    HW1 8728   4.803   4.749   1.262 -1.5530  0.6199 -0.2526
32250SOL    HW2 8729   4.784   4.783   1.408 -0.9000  0.0554 -0.0324
32251SOL     OW 8730   3.841  10.069   8.748 -0.0410  0.5059 -0.0708
32251SOL    HW1 8731   3.872  10.059   8.657  1.2842  0.5330  0.3541
32251SOL    HW2 8732   3.746  10.058   8.742  0.0834 -0.0912 -1.3773
32252SOL     OW 8733   6.212   6.158   1.194  0.1414  0.2435 -0.4165
32252SOL    HW1 8734   6.221   6.173   1.100 -2.2438 -0.8908 -0.9034
32252SOL    HW2 8735   6.139   6.213   1.221 -0.3422 -0.7526  0.3859
32253SOL     OW 8736   0.411   3.731   2.457  0.1007 -0.4836 -0.3901
32253SOL    HW1 8737   0.403   3.664   2.390 -0.3768  0.3753 -1.2210
32253SOL    HW2 8738   0.323   3.768   2.464  0.1937 -0.4240  0.5722
32254SOL     OW 8739   2.862   8.981   0.128  0.2076 -0.3217 -0.2453
32254SOL    HW1 8740   2.824   8.902   0.089 -0.6787 -1.1497  2.1237
32254SOL    HW2 8741   2.812   8.995   0.209  2.9953  0.2797  1.5191
32255SOL     OW 8742   5.045   3.207   1.923 -0.4765 -0.5083 -0.1995
32255SOL    HW1 8743   4.979   3.268   1.891 -0.9653  0.1587  1.9435
32255SOL    HW2 8744   5.128   3.249   1.902 -0.6792 -1.0417 -2.3188
32256SOL     OW 8745   4.819  10.128   7.686  0.4072  0.4437 -0.3304
32256SOL    HW1 8746   4.903  10.124   7.641  0.0321  0.2664 -1.0244
32256SOL    HW2 8747   4.840  10.166   7.772  1.5770 -1.8081  0.4607
32257SOL     OW 8748   0.482   7.481   5.325  0.4612 -0.0821  0.5557
32257SOL    HW1 8749   0.447   7.443   5.406  0.7903 -1.3562  0.1241
32257SOL    HW2 8750   0.565   7.435   5.311 -0.0720 -0.5901 -1.0283
32258SOL     OW 8751   8.213   6.356   4.425 -0.1268  0.9800  0.7192
32258SOL    HW1 8752   8.265   6.344   4.504 -0.1480 -1.3883  0.4486
32258SOL    HW2 8753   8.270   6.325   4.354 -2.0097 -2.4726  0.4914
32259SOL     OW 8754  10.096   3.104   0.653 -0.3363 -0.1004 -0.1117
32259SOL    HW1 8755  10.020   3.153   0.622  0.0434  0.1639 -0.6453
32259SOL    HW2 8756  10.073   3.075   0.741 -0.8606  0.3938 -0.0885
32260SOL     OW 8757   1.769   9.876   1.587  0.2297  0.2882 -0.2208
32260SOL    HW1 8758   1.805   9.944   1.644  1.5649 -1.2670  0.9219
32260SOL    HW2 8759   1.835   9.865   1.518 -0.3013  0.6109 -0.7837
32261SOL     OW 8760   7.290   8.275   4.045  0.2890  0.5756  0.1418
32261SOL    HW1 8761   7.229   8.345   4.069 -0.2770  0.2791 -0.3823
32261SOL    HW2 8762   7.351   8.316   3.984  0.4134  0.7956  0.4127
32262SOL     OW 8763   4.109   0.780   1.035  0.0601 -0.5551 -0.5555
32262SOL    HW1 8764   4.019   0.755   1.053 -0.3204 -0.7253 -2.4851
32262SOL    HW2 8765   4.103   0.864   0.989  1.0064  0.2626  0.7215
32263SOL     OW 8766   1.115   6.379  10.113 -0.1621 -0.2709  0.1662
32263SOL    HW1 8767   1.033   6.429  10.117 -1.6517 -2.5721  0.5013
32263SOL    HW2 8768   1.165   6.421  10.043 -1.1911  1.8033  0.6107
32264SOL     OW 8769   8.926   6.621   8.334  0.2668 -0.5214  0.4901
32264SOL    HW1 8770   8.933   6.714   8.354 -0.6089 -0.5040  0.7749
32264SOL    HW2 8771   8.964   6.613   8.246  0.2867  0.1151  0.4319
32265SOL     OW 8772   6.748   3.037   8.530  0.2068  0.3702 -0.5522
32265SOL    HW1 8773   6.674   3.003   8.480  0.5101  0.5570 -1.1369
32265SOL    HW2 8774   6.797   3.090   8.467  0.5021  0.7498 -0.0121
32266SOL     OW 8775   3.672   5.555   1.417  0.4749 -0.4303  0.0634
32266SOL    HW1 8776   3.686   5.552   1.512 -1.5829  1.9379  0.5118
32266SOL    HW2 8777   3.647   5.465   1.394 -2.7079 -0.3085  2.4548
32267SOL     OW 8778  10.244   3.569   3.051  0.2387  0.4138  0.1714
32267SOL    HW1 8779  10.153   3.583   3.024 -0.4215  0.5153  2.3060
32267SOL    HW2 8780  10.266   3.482   3.016  0.1571  1.3070 -2.3290
32268SOL     OW 8781   0.396   5.392   4.799  0.4104  0.0042 -0.5304
32268SOL    HW1 8782   0.426   5.350   4.719  0.2317  0.1590 -0.6787
32268SOL    HW2 8783   0.301   5.392   4.792  0.3492 -0.8914  0.1447
32269SOL     OW 8784   2.380   0.748   0.365  0.2652  0.1950  0.0916
32269SOL    HW1 8785   2.389   0.708   0.452 -0.8367 -1.2003 -0.4013
32269SOL    HW2 8786   2.379   0.674   0.304 -1.6376  0.9312 -0.8779
32270SOL     OW 8787   7.372   0.182   7.745  0.3226  0.1646  0.1323
32270SOL    HW1 8788   7.347   0.274   7.740  1.0292  0.3391 -0.3163
32270SOL    HW2 8789   7.429   0.168   7.669  0.7256 -0.4805  0.5394
32271SOL     OW 8790   8.811   0.210   8.834  0.0217 -0.2767  0.1190
32271SOL    HW1 8791   8.901   0.194   8.862  0.1900 -2.3561 -1.3969
32271SOL    HW2 8792   8.809   0.303   8.813  1.3065  0.1947  1.8388
32272SOL     OW 8793   8.829   2.465   9.652 -0.2423  0.7152  0.4789
32272SOL    HW1 8794   8.859   2.420   9.573  0.3928  1.0493  0.5297
32272SOL    HW2 8795   8.883   2.430   9.723 -0.1857  1.0841  0.6218
32273SOL     OW 8796   2.848   8.996   7.943  0.4659  0.3834  0.1235
32273SOL    HW1 8797   2.841   8.931   8.013 -0.2146  2.4763  2.1210
32273SOL    HW2 8798   2.883   8.947   7.868  2.3180 -1.7509  2.2200
32274SOL     OW 8799   3.803   1.448   2.652 -0.1054 -0.0080  0.5911
32274SOL    HW1 8800   3.843   1.363   2.634  0.7581  0.5705 -0.3559
32274SOL    HW2 8801   3.768   1.440   2.740 -0.3972 -1.4768  0.3733
32275SOL     OW 8802   7.095   8.029   5.143 -0.0449 -0.5397 -0.1428
32275SOL    HW1 8803   7.031   8.093   5.174  1.3786  1.0190 -0.2552
32275SOL    HW2 8804   7.057   7.944   5.164 -1.6071  0.3579  0.8221
32276SOL     OW 8805   3.620   9.129   4.159 -0.0807  0.0773 -0.7771
32276SOL    HW1 8806   3.640   9.222   4.151 -1.0575  0.3094 -0.6836
32276SOL    HW2 8807   3.537   9.126   4.208  0.7500 -0.8975  0.6638
32277SOL     OW 8808   8.962   8.256  10.277  0.2031 -0.1671  0.8967
32277SOL    HW1 8809   9.002   8.305  10.205 -1.3738  1.0691  0.7909
32277SOL    HW2 8810   9.032   8.200  10.311  2.0617  2.0399  0.9247
32278SOL     OW 8811   2.102   4.783   6.160  0.1861  0.3058  0.2671
32278SOL    HW1 8812   2.140   4.701   6.194 -0.0741 -0.7663 -1.8757
32278SOL    HW2 8813   2.040   4.810   6.228 -0.7003 -2.0227  0.4729
32279SOL     OW 8814   9.237   9.387   7.185 -0.2761  0.2437  0.2069
32279SOL    HW1 8815   9.205   9.300   7.207  1.0613 -0.4404 -0.4094
32279SOL    HW2 8816   9.241   9.388   7.090  0.9758  0.4854  0.2452
32280SOL     OW 8817   6.749   7.841   6.260 -0.3595  0.0507  0.7135
32280SOL    HW1 8818   6.720   7.752   6.242 -0.5520  0.4096 -0.9252
32280SOL    HW2 8819   6.786   7.837   6.347 -0.5077 -1.5957  0.7326
32281SOL     OW 8820   3.641   1.930   5.735 -0.6205  0.5089 -0.1271
32281SOL    HW1 8821   3.570   1.967   5.787  0.9860  1.3064  1.5522
32281SOL    HW2 8822   3.626   1.835   5.739 -1.1029  0.6182  0.9377
32282SOL     OW 8823  10.048   9.797   0.180 -0.0914 -0.1850  0.0079
32282SOL    HW1 8824  10.123   9.854   0.160 -0.4646  0.5032  0.5348
32282SOL    HW2 8825  10.040   9.801   0.275 -2.8213  2.4389 -0.1723
32283SOL     OW 8826   0.598   1.701   7.134  0.7053  1.0173 -0.4095
32283SOL    HW1 8827   0.618   1.727   7.223 -1.6259  3.4988 -0.4679
32283SOL    HW2 8828   0.620   1.777   7.080  0.6368  0.1431 -1.7457
32284SOL     OW 8829   2.299   7.963   0.451  0.3835 -0.5488  0.2506
32284SOL    HW1 8830   2.364   8.019   0.494 -0.7593  1.7274 -0.7883
32284SOL    HW2 8831   2.297   7.883   0.504  3.9715 -0.7294  0.3205
32285SOL     OW 8832   3.710   7.051   4.980 -0.0948  0.0080  0.7801
32285SOL    HW1 8833   3.733   7.036   5.072  1.2210 -0.4338  0.4104
32285SOL    HW2 8834   3.616   7.069   4.981  0.0500  0.8374  2.2967
32286SOL     OW 8835   8.915   2.653   2.058  0.2440  0.1857 -0.1936
32286SOL    HW1 8836   8.977   2.674   2.128  1.5302 -2.0838 -0.5288
32286SOL    HW2 8837   8.829   2.661   2.098  0.9063  0.2290  1.2631
32287SOL     OW 8838   6.235   7.569   1.270  0.5495  0.3384 -0.1045
32287SOL    HW1 8839   6.220   7.662   1.287 -1.6194 -0.1033  0.8065
32287SOL    HW2 8840   6.181   7.549   1.194 -0.6587 -0.5475  0.9291
32288SOL     OW 8841   7.532   7.352   0.557  0.0226  0.0287 -0.1490
32288SOL    HW1 8842   7.528   7.422   0.622  0.3207  1.2381 -1.3828
32288SOL    HW2 8843   7.442   7.319   0.552 -0.3253  0.9604 -0.2020
32289SOL     OW 8844   7.738   5.721   8.130  0.3691 -0.5379  0.4201
32289SOL    HW1 8845   7.800   5.785   8.093 -0.1039 -0.2886  0.0496
32289SOL    HW2 8846   7.693   5.769   8.199 -1.1232  0.0543 -0.9066
32290SOL     OW 8847   2.036   6.044   0.090  0.4260 -0.6623 -0.1266
32290SOL    HW1 8848   1.976   5.975   0.063  0.2647 -0.1534 -1.1273
32290SOL    HW2 8849   1.984   6.124   0.086  1.2683 -0.1494 -1.4756
32291SOL     OW 8850   5.547   9.107   5.414  0.5108  0.2556  0.6750
32291SOL    HW1 8851   5.532   9.133   5.323  2.1847  2.2187  0.8869
32291SOL    HW2 8852   5.635   9.070   5.415  0.6046  0.4808  1.5166
32292SOL     OW 8853   2.369   2.172   8.116 -0.1234  0.4614  0.5611
32292SOL    HW1 8854   2.447   2.121   8.138 -1.6340 -1.1424  2.5629
32292SOL    HW2 8855   2.319   2.115   8.058 -1.6210 -0.2875  2.4682
32293SOL     OW 8856   8.638   2.699   8.792 -0.4378  0.2040 -0.1381
32293SOL    HW1 8857   8.651   2.784   8.835 -2.1481  0.1110  0.6315
32293SOL    HW2 8858   8.554   2.668   8.825 -0.8150 -0.8542 -1.9859
32294SOL     OW 8859   4.614   8.596  10.236 -0.1453  0.1205  0.2205
32294SOL    HW1 8860   4.633   8.589  10.143  1.2349  0.6512  0.4390
32294SOL    HW2 8861   4.678   8.659  10.269 -0.8451  0.2191  1.4667
32295SOL     OW 8862   3.544   8.179   9.148 -0.8783 -0.2907 -0.0331
32295SOL    HW1 8863   3.580   8.254   9.195  1.0415 -1.7507  0.9578
32295SOL    HW2 8864   3.478   8.143   9.208 -1.1358  0.0574 -0.1059
32296SOL     OW 8865   9.903   9.030   6.753  0.0767 -0.7509  0.3218
32296SOL    HW1 8866   9.941   8.944   6.772  2.6640 -0.1596 -1.6098
32296SOL    HW2 8867   9.888   9.029   6.658  0.5583  1.0715  0.1910
32297SOL     OW 8868   9.085   6.629   0.769 -0.0777 -0.0994  0.1404
32297SOL    HW1 8869   9.099   6.687   0.695 -0.0015 -0.5987 -0.2363
32297SOL    HW2 8870   9.170   6.623   0.812  0.2640 -1.0633 -0.6458
32298SOL     OW 8871  10.042   4.788   3.350 -0.5811 -0.2614  0.1236
32298SOL    HW1 8872   9.993   4.856   3.396  0.3651 -0.4869  1.5406
32298SOL    HW2 8873  10.098   4.835   3.289 -1.6476  0.0617 -0.6494
32299SOL     OW 8874   4.106   8.643   2.776 -0.0131 -0.3272 -0.4724
32299SOL    HW1 8875   4.137   8.682   2.857  0.5900 -0.7772 -0.4822
32299SOL    HW2 8876   4.141   8.700   2.707  1.1674 -1.0524 -0.5049
32300SOL     OW 8877   6.928   5.693   8.575 -0.3325 -0.1535 -0.2602
32300SOL    HW1 8878   6.992   5.719   8.510 -1.0013  0.4846 -0.6747
32300SOL    HW2 8879   6.847   5.680   8.526 -0.3769 -1.6289  0.1486
32301SOL     OW 8880  10.076   0.897   4.671 -0.2137  0.0737  0.9341
32301SOL    HW1 8881  10.169   0.880   4.653  0.1731 -2.1876  4.1188
32301SOL    HW2 8882  10.065   0.990   4.653  2.7482  0.5017  0.7307
32302SOL     OW 8883   7.838   4.838   7.151 -0.5013 -0.1226  0.6669
32302SOL    HW1 8884   7.881   4.903   7.206  0.0567 -0.1517  0.2774
32302SOL    HW2 8885   7.829   4.881   7.066  0.9681 -0.9588  0.0637
32303SOL     OW 8886   9.273   6.172   5.641 -0.2340  0.4083 -0.5208
32303SOL    HW1 8887   9.189   6.137   5.612 -0.5909 -1.1749  2.1261
32303SOL    HW2 8888   9.259   6.198   5.732  1.7058  1.8179 -0.5450
32304SOL     OW 8889   8.479   1.933   6.264  0.2894  0.3570  0.0046
32304SOL    HW1 8890   8.483   1.899   6.174 -2.3051 -0.3465  0.0933
32304SOL    HW2 8891   8.540   1.877   6.313 -0.1210 -0.8777 -0.8446
32305SOL     OW 8892   1.897   1.782   7.507  0.3971  0.3069 -0.5951
32305SOL    HW1 8893   1.988   1.773   7.481  0.2306  0.3618 -1.2037
32305SOL    HW2 8894   1.888   1.724   7.583  0.7940 -0.1528 -0.8916
32306SOL     OW 8895   5.994   3.124   8.780  0.4385  1.0179 -0.7654
32306SOL    HW1 8896   5.908   3.089   8.801  0.5378  1.0588 -0.2776
32306SOL    HW2 8897   6.056   3.063   8.820  0.6293  1.1848 -0.8020
32307SOL     OW 8898   2.144   3.007   2.999 -0.4661  0.5216 -0.3062
32307SOL    HW1 8899   2.221   2.956   3.022  0.6228  2.0873 -0.3196
32307SOL    HW2 8900   2.072   2.966   3.048  0.8823  0.7220  1.9481
32308SOL     OW 8901   8.789   1.387   6.760 -0.6825  0.3201 -0.2045
32308SOL    HW1 8902   8.830   1.306   6.791 -0.9261  0.0580 -0.5547
32308SOL    HW2 8903   8.811   1.452   6.827 -0.0206  0.0955 -0.1986
32309SOL     OW 8904   6.844   1.974   6.956 -0.0014 -0.0691 -0.6898
32309SOL    HW1 8905   6.831   2.038   7.026 -0.7529 -1.9584  0.9808
32309SOL    HW2 8906   6.776   1.994   6.892 -0.6512  0.3922  0.1250
32310SOL     OW 8907   3.700   4.133   6.698 -0.0832 -0.0438 -0.4240
32310SOL    HW1 8908   3.626   4.181   6.660 -1.3028 -1.8350 -0.4075
32310SOL    HW2 8909   3.690   4.144   6.792  1.4157  2.1515 -0.4357
32311SOL     OW 8910   9.512   4.018   7.905  0.0524  0.2988 -0.1486
32311SOL    HW1 8911   9.506   4.111   7.926  0.1768  0.1953  0.3470
32311SOL    HW2 8912   9.427   3.982   7.930  0.0171  0.2678 -0.3089
32312SOL     OW 8913   4.463   8.612   7.377  0.0714  0.3592 -0.1262
32312SOL    HW1 8914   4.444   8.519   7.391  0.0711  0.4210  0.2755
32312SOL    HW2 8915   4.410   8.635   7.300 -2.3078  0.7568  1.5290
32313SOL     OW 8916   4.008   5.157   4.341 -0.1686  0.1688  0.1113
32313SOL    HW1 8917   3.993   5.063   4.346  0.5067  0.0230 -0.4409
32313SOL    HW2 8918   4.034   5.182   4.429  1.2268 -0.4584 -0.0905
32314SOL     OW 8919   8.864   3.561   6.464  0.1199  0.5228  0.2768
32314SOL    HW1 8920   8.941   3.547   6.409 -1.1723  0.4495 -1.6034
32314SOL    HW2 8921   8.791   3.565   6.402 -1.4151  0.4390  2.0077
32315SOL     OW 8922   4.543   4.632   7.031 -0.5628  0.3017 -0.1676
32315SOL    HW1 8923   4.469   4.693   7.028 -0.1373  0.8774  0.6524
32315SOL    HW2 8924   4.514   4.561   7.088  0.1814  1.4886  1.7868
32316SOL     OW 8925   1.215   5.604   7.556 -0.2225  0.2643 -0.5478
32316SOL    HW1 8926   1.290   5.569   7.603 -0.9210 -1.8937 -0.9413
32316SOL    HW2 8927   1.175   5.666   7.617  1.0592  0.3977  0.1912
32317SOL     OW 8928   2.122  10.304   6.168  0.1363  0.3918 -0.0079
32317SOL    HW1 8929   2.166  10.327   6.250  0.6814 -1.2599  0.1951
32317SOL    HW2 8930   2.037  10.269   6.196  0.0569  0.4393 -0.1889
32318SOL     OW 8931   0.198   3.024   5.718 -0.3241  0.4634  0.6427
32318SOL    HW1 8932   0.273   2.979   5.758 -0.8246 -0.4745  0.5623
32318SOL    HW2 8933   0.232   3.109   5.692  0.6944  0.0809  0.6745
32319SOL     OW 8934   8.719   7.232   2.180  0.0912 -0.3338  0.0862
32319SOL    HW1 8935   8.791   7.169   2.181 -1.5319 -2.2852  0.7045
32319SOL    HW2 8936   8.657   7.197   2.115 -1.5151 -0.2129  1.4940
32320SOL     OW 8937   9.260  10.207   1.598  0.1030 -0.0983 -0.0897
32320SOL    HW1 8938   9.181  10.261   1.602  0.7105  0.8261 -0.3320
32320SOL    HW2 8939   9.316  10.251   1.534  0.5740 -1.0726 -0.3576
32321SOL     OW 8940   4.263   7.662   7.315  0.4101  0.0036  0.2856
32321SOL    HW1 8941   4.284   7.630   7.227  1.3233 -0.4150  0.6429
32321SOL    HW2 8942   4.214   7.591   7.356  0.9209 -0.2434  0.4777
32322SOL     OW 8943   2.749   9.248   4.922 -0.1805  0.5570 -0.0974
32322SOL    HW1 8944   2.658   9.268   4.899  0.1001  0.4605 -1.3547
32322SOL    HW2 8945   2.788   9.217   4.840  0.8411  0.0699  0.5583
32323SOL     OW 8946   8.714  10.332   0.001 -0.3478 -0.1133  0.0097
32323SOL    HW1 8947   8.778  10.325   0.072  0.1516 -0.4151 -0.4588
32323SOL    HW2 8948   8.675  10.245  -0.005  0.2006 -0.3269 -0.6171
32324SOL     OW 8949   4.763   0.967   1.762 -0.8107 -0.9648 -0.8372
32324SOL    HW1 8950   4.845   0.933   1.727  0.6072 -1.2160  2.4065
32324SOL    HW2 8951   4.695   0.915   1.720  0.8451 -2.5360 -1.6916
32325SOL     OW 8952   5.227   7.384   3.433  0.4680  0.2123 -0.2421
32325SOL    HW1 8953   5.154   7.444   3.451  0.4718  0.3666 -0.7292
32325SOL    HW2 8954   5.217   7.361   3.340  1.0039  0.1815 -0.2947
32326SOL     OW 8955   6.270   3.120   8.050 -0.3378 -0.3542  0.0298
32326SOL    HW1 8956   6.181   3.107   8.084  0.1111  0.0335  1.4023
32326SOL    HW2 8957   6.264   3.200   7.997 -0.4050  0.8387  1.7612
32327SOL     OW 8958   3.935   0.365   1.111 -0.4298 -0.3321 -0.1746
32327SOL    HW1 8959   3.971   0.302   1.049 -0.6562 -0.6688  0.0382
32327SOL    HW2 8960   3.872   0.315   1.163 -0.4210  0.0078  0.1650
32328SOL     OW 8961   1.180   4.530   4.222  0.1417  0.3617  0.2494
32328SOL    HW1 8962   1.237   4.456   4.197 -0.3391 -0.4077  1.3648
32328SOL    HW2 8963   1.239   4.605   4.226  0.5543  0.1791 -1.4286
32329SOL     OW 8964   4.886   1.310   2.932  0.2239 -0.7218 -0.0992
32329SOL    HW1 8965   4.958   1.355   2.888  0.4393  0.2760  1.2076
32329SOL    HW2 8966   4.918   1.222   2.947  0.4800 -0.8152 -1.1128
32330SOL     OW 8967   3.043   1.244   9.785 -0.1412 -0.5482  0.3795
32330SOL    HW1 8968   3.127   1.270   9.823  0.5709 -2.7612  0.4750
32330SOL    HW2 8969   2.995   1.206   9.859 -0.2697 -1.4027 -0.1306
32331SOL     OW 8970   0.881   1.255   0.512 -0.1504  0.3582  0.7988
32331SOL    HW1 8971   0.900   1.291   0.599  0.3439 -0.2727  0.9633
32331SOL    HW2 8972   0.965   1.222   0.481 -0.3364  0.5198  0.1008
32332SOL     OW 8973   6.502   9.916   9.724 -0.3502  0.1808 -0.1305
32332SOL    HW1 8974   6.562   9.842   9.717  0.6168  1.0319 -1.3071
32332SOL    HW2 8975   6.427   9.891   9.670  1.2511  1.1723 -3.0655
32333SOL     OW 8976   7.626   7.590   3.977  0.5204 -0.3155 -0.2414
32333SOL    HW1 8977   7.623   7.552   4.065  0.7902  0.6220  0.1869
32333SOL    HW2 8978   7.565   7.664   3.982  0.4321 -0.3447 -0.8887
32334SOL     OW 8979   6.769   9.967   6.551 -0.1214 -0.0877  0.3517
32334SOL    HW1 8980   6.714   9.890   6.534  0.4294 -0.7076  1.2962
32334SOL    HW2 8981   6.725  10.013   6.622 -1.6297  1.7040 -1.6043
32335SOL     OW 8982   4.352   0.936   1.499 -0.4986  0.1943 -0.4926
32335SOL    HW1 8983   4.419   0.870   1.517 -0.6881  0.1902  0.2208
32335SOL    HW2 8984   4.346   0.987   1.580 -0.0774  1.3467 -1.1484
32336SOL     OW 8985   6.187   9.241   9.906  0.3985  0.4032  0.0789
32336SOL    HW1 8986   6.094   9.243   9.925  0.1419  0.7319 -1.1069
32336SOL    HW2 8987   6.226   9.192   9.978 -0.4283  1.8897  1.6017
32337SOL     OW 8988  10.033   4.869   9.235 -0.1918  0.4740 -0.0095
32337SOL    HW1 8989  10.118   4.834   9.264 -0.5203 -0.1940  0.1591
32337SOL    HW2 8990   9.992   4.797   9.188  0.0262  1.3176 -1.5432
32338SOL     OW 8991   8.665   7.271   4.753  0.2861 -0.6076  0.1430
32338SOL    HW1 8992   8.573   7.243   4.754  0.1935 -0.3404 -0.3700
32338SOL    HW2 8993   8.683   7.295   4.843 -0.1263 -0.7489  0.2686
32339SOL     OW 8994   7.432   0.066   8.022  0.7616 -0.3434  0.4369
32339SOL    HW1 8995   7.430   0.115   7.940 -0.8399  0.2404  0.7829
32339SOL    HW2 8996   7.468  -0.019   7.999 -0.1430 -0.3654 -0.9729
32340SOL     OW 8997   0.668   1.866   0.599 -0.1047 -0.5565  0.5008
32340SOL    HW1 8998   0.687   1.783   0.643 -3.5918 -1.6480  0.2696
32340SOL    HW2 8999   0.723   1.864   0.520  1.7303 -1.4034  1.7329
32341SOL     OW 9000   5.971   3.855   2.753  0.5389  0.4138  0.2199
32341SOL    HW1 9001   5.941   3.812   2.673  1.0999  0.7173 -0.1631
32341SOL    HW2 9002   6.021   3.788   2.799  1.0364  0.5207 -0.1590
32342SOL     OW 9003   1.145   6.737   6.500  0.1915  0.0743  0.0269
32342SOL    HW1 9004   1.072   6.725   6.439  0.2960 -0.5540  0.0218
32342SOL    HW2 9005   1.214   6.777   6.448  0.3861 -0.7348 -0.3495
32343SOL     OW 9006   0.829   3.121   8.111  0.3387 -0.3135  0.2958
32343SOL    HW1 9007   0.740   3.133   8.144  0.6007 -1.5733  1.5849
32343SOL    HW2 9008   0.821   3.130   8.016 -1.0615  0.0885  0.4255
32344SOL     OW 9009   1.685   6.611   5.943  0.1125  0.4922 -0.1119
32344SOL    HW1 9010   1.713   6.579   6.029 -1.2852 -0.1622  0.1398
32344SOL    HW2 9011   1.712   6.542   5.882 -0.7572 -0.0676  0.1096
32345SOL     OW 9012   6.885   7.141   3.358 -0.5654  0.8359  0.3951
32345SOL    HW1 9013   6.929   7.151   3.442  0.4437  1.1960 -0.1670
32345SOL    HW2 9014   6.933   7.198   3.298 -1.8737  1.3395 -0.2122
32346SOL     OW 9015   2.255  10.236   9.394  0.3923 -0.0807  0.1966
32346SOL    HW1 9016   2.177  10.226   9.339  2.1941 -1.7402 -2.2604
32346SOL    HW2 9017   2.285  10.147   9.411  2.2109  0.5225  0.3915
32347SOL     OW 9018   5.228   9.152   0.560 -0.1525  0.3680  0.0399
32347SOL    HW1 9019   5.232   9.247   0.552  0.2135  0.5231  1.6194
32347SOL    HW2 9020   5.315   9.127   0.594 -1.2366 -0.1312  2.7044
32348SOL     OW 9021   5.419   3.212   3.269 -0.4170 -0.1035  0.2716
32348SOL    HW1 9022   5.512   3.216   3.290 -0.3175 -2.3442  0.5124
32348SOL    HW2 9023   5.416   3.197   3.175 -0.5486  0.1445  0.2348
32349SOL     OW 9024   5.691   9.699   6.141 -0.4639  0.2041 -0.2519
32349SOL    HW1 9025   5.767   9.755   6.128  0.6075 -1.0268  0.4379
32349SOL    HW2 9026   5.666   9.714   6.232 -2.5078  2.2947 -1.0773
32350SOL     OW 9027   2.276   9.246   4.362  0.1993 -0.1267 -0.3887
32350SOL    HW1 9028   2.216   9.191   4.311  1.7275 -0.1912 -2.2541
32350SOL    HW2 9029   2.293   9.195   4.441 -0.2333 -1.2653 -1.0047
32351SOL     OW 9030   8.333   3.747   7.416  0.3623  0.7686 -0.1778
32351SOL    HW1 9031   8.311   3.710   7.330 -1.1344 -0.9251  0.8687
32351SOL    HW2 9032   8.400   3.687   7.450 -0.2424  0.4730  0.4990
32352SOL     OW 9033   6.096   4.037   0.234  0.4468  0.6406  0.1272
32352SOL    HW1 9034   6.159   4.006   0.169 -1.2060  0.6947 -1.5815
32352SOL    HW2 9035   6.041   3.960   0.251  0.3424  0.8701  0.8266
32353SOL     OW 9036   9.884   9.297   2.152 -0.0243  0.5743  0.1860
32353SOL    HW1 9037   9.821   9.282   2.082 -1.1823  0.3827  1.2189
32353SOL    HW2 9038   9.911   9.388   2.141  1.1809  0.0506 -1.5423
32354SOL     OW 9039   5.577   8.250   4.736  0.0699  0.0280 -0.3137
32354SOL    HW1 9040   5.495   8.241   4.784 -0.2822 -3.1161 -1.2937
32354SOL    HW2 9041   5.550   8.286   4.651  0.5389  4.3058  1.0922
32355SOL     OW 9042   8.588   3.477   9.899  0.3127  0.4274 -0.5319
32355SOL    HW1 9043   8.533   3.452   9.973  0.9889 -3.1438 -1.0408
32355SOL    HW2 9044   8.526   3.492   9.827 -0.1570 -0.8046 -0.4013
32356SOL     OW 9045  10.139   6.197   3.124 -1.1138  0.4389 -0.2310
32356SOL    HW1 9046  10.095   6.273   3.162 -3.4001 -1.7124  1.7928
32356SOL    HW2 9047  10.211   6.178   3.185 -1.3500  0.2448 -0.0086
32357SOL     OW 9048   1.284   7.131   5.732 -0.5702 -0.3668 -0.2041
32357SOL    HW1 9049   1.265   7.220   5.763 -1.0347 -0.5313 -0.0016
32357SOL    HW2 9050   1.305   7.083   5.812 -0.4315 -0.4667 -0.3012
32358SOL     OW 9051   2.680   0.747   0.216  0.0129 -0.3061 -0.2175
32358SOL    HW1 9052   2.677   0.819   0.279  1.2556 -1.5100  1.2922
32358SOL    HW2 9053   2.616   0.684   0.249 -1.1583  0.1089 -1.5980
32359SOL     OW 9054   0.771   0.769   9.879 -0.0027 -0.3860 -0.3523
32359SOL    HW1 9055   0.829   0.819   9.936  0.4309 -4.4196  3.2651
32359SOL    HW2 9056   0.683   0.790   9.909 -0.0081  0.2440 -0.7903
32360SOL     OW 9057   1.963  10.117   8.569 -0.4324 -0.2656  0.5919
32360SOL    HW1 9058   2.042  10.062   8.564 -0.5427 -0.3086 -2.1153
32360SOL    HW2 9059   1.914  10.081   8.643  0.7715 -2.0888  0.5762
32361SOL     OW 9060   7.071   6.271   4.258  0.0996 -0.2862 -0.1921
32361SOL    HW1 9061   7.142   6.283   4.321 -0.5088  2.4795  0.0985
32361SOL    HW2 9062   7.029   6.357   4.252 -0.8936 -0.8461 -3.1581
32362SOL     OW 9063   2.054   7.814   6.105  0.0314  0.0807  0.5489
32362SOL    HW1 9064   2.065   7.904   6.136  2.3900 -0.6676  2.1592
32362SOL    HW2 9065   2.100   7.812   6.021  1.4624  0.0430  1.2973
32363SOL     OW 9066   2.045   5.057   7.414  0.2743  0.4523  0.1546
32363SOL    HW1 9067   2.014   4.994   7.479  0.6163  0.8729  0.7350
32363SOL    HW2 9068   2.003   5.030   7.332  0.8815 -0.8890  0.2615
32364SOL     OW 9069   3.489   4.502  10.155  0.2051 -0.6127 -0.7804
32364SOL    HW1 9070   3.418   4.456  10.201 -0.6543 -0.8660 -2.2798
32364SOL    HW2 9071   3.565   4.444  10.164  0.0463 -0.6688  0.2667
32365SOL     OW 9072   0.866   2.533   7.727  0.2075  0.2931 -0.1306
32365SOL    HW1 9073   0.875   2.529   7.632 -1.3561  0.5815 -0.3247
32365SOL    HW2 9074   0.791   2.591   7.741 -0.3538 -0.7157  1.2371
32366SOL     OW 9075   1.521   0.148   5.134 -0.0310  0.0655  0.3970
32366SOL    HW1 9076   1.472   0.103   5.065  2.8189 -1.0980 -1.0375
32366SOL    HW2 9077   1.540   0.234   5.097 -1.3945  0.7505  1.2023
32367SOL     OW 9078   2.860  10.126   8.371 -0.0308 -0.2421 -0.2206
32367SOL    HW1 9079   2.946  10.106   8.406  0.2794  0.6984 -0.4176
32367SOL    HW2 9080   2.873  10.133   8.277 -0.4090 -0.5107 -0.2957
32368SOL     OW 9081   7.326   9.201   1.683  0.1175  0.2469  0.0631
32368SOL    HW1 9082   7.265   9.216   1.755 -0.3632  3.1648 -0.8452
32368SOL    HW2 9083   7.329   9.105   1.674  0.1590 -0.2570  3.8395
32369SOL     OW 9084   3.411   0.804   3.699  0.2071 -0.0597 -0.2390
32369SOL    HW1 9085   3.435   0.878   3.753  1.8518 -1.9244  1.7690
32369SOL    HW2 9086   3.475   0.803   3.627  0.3286  0.3123 -0.1335
32370SOL     OW 9087   2.341   0.639   1.344 -0.1276 -0.2412  0.4277
32370SOL    HW1 9088   2.283   0.593   1.405 -1.6632  0.6279 -0.3437
32370SOL    HW2 9089   2.402   0.571   1.314  0.1815 -0.8607  2.3016
32371SOL     OW 9090   4.837   9.282   3.550  0.3386 -0.0708 -0.0534
32371SOL    HW1 9091   4.867   9.371   3.571  1.1381 -0.9060  2.7555
32371SOL    HW2 9092   4.746   9.280   3.579  1.0176 -0.7974  2.2127
32372SOL     OW 9093   6.408   4.320   6.846  0.1548  0.6380  0.2684
32372SOL    HW1 9094   6.378   4.287   6.930 -0.9394  0.0900 -0.3166
32372SOL    HW2 9095   6.347   4.282   6.782  1.9297 -0.2919 -0.9537
32373SOL     OW 9096   2.574   4.203   0.707 -0.7588 -0.3455 -0.9405
32373SOL    HW1 9097   2.665   4.174   0.706 -0.8026 -0.4935 -0.5388
32373SOL    HW2 9098   2.553   4.218   0.614  0.3533  1.8304 -0.9157
32374SOL     OW 9099   9.392   8.118   3.667  0.1522 -0.6919  0.4671
32374SOL    HW1 9100   9.309   8.133   3.621 -0.2484  1.8308  1.8504
32374SOL    HW2 9101   9.366   8.085   3.753  0.6307 -0.7606  0.5865
32375SOL     OW 9102   0.219   6.665   7.684  0.4838  0.1766  0.3420
32375SOL    HW1 9103   0.308   6.694   7.704  0.7095 -0.1675 -0.1366
32375SOL    HW2 9104   0.230   6.578   7.647 -0.1420 -0.2681  1.1768
32376SOL     OW 9105   0.375   9.258   1.790 -0.1413  0.2791  0.3076
32376SOL    HW1 9106   0.323   9.334   1.819 -1.7562 -0.0078 -1.6202
32376SOL    HW2 9107   0.348   9.244   1.699  2.8828 -0.3545 -0.5763
32377SOL     OW 9108   6.289   0.721   6.007  0.3932  0.5371 -0.1386
32377SOL    HW1 9109   6.214   0.715   6.066 -0.4539  1.0253 -1.1306
32377SOL    HW2 9110   6.362   0.686   6.058 -0.5158 -0.0256  0.8296
32378SOL     OW 9111   4.604   1.190  10.031 -0.1303 -0.1202 -0.4143
32378SOL    HW1 9112   4.636   1.279  10.011  0.6619 -0.4761 -0.8103
32378SOL    HW2 9113   4.643   1.136   9.962  0.5399 -0.9941  0.6296
32379SOL     OW 9114   6.870   4.916   7.174  0.0625 -0.4355  0.2741
32379SOL    HW1 9115   6.855   4.843   7.235 -0.6263 -1.9410 -1.5760
32379SOL    HW2 9116   6.885   4.873   7.090  2.4751  1.4993 -0.4017
32380SOL     OW 9117   2.290   7.200   1.823 -0.3943  0.1032  0.0512
32380SOL    HW1 9118   2.250   7.181   1.739 -1.2234  0.1831  0.4182
32380SOL    HW2 9119   2.225   7.253   1.869  0.7592  1.5467  0.0828
32381SOL     OW 9120   8.206   9.264   1.858  0.4050 -0.1598 -0.1902
32381SOL    HW1 9121   8.225   9.193   1.797 -0.8586  0.2905 -1.1396
32381SOL    HW2 9122   8.292   9.292   1.889  0.9302 -2.3797  0.5671
32382SOL     OW 9123   2.927  10.256   8.130  0.5324 -0.5112  0.7154
32382SOL    HW1 9124   2.852  10.309   8.157 -0.2621 -1.5483  0.5650
32382SOL    HW2 9125   2.993  10.321   8.105  0.2437  0.4339  2.2749
32383SOL     OW 9126   6.771   5.255   8.635  0.5637  0.0207 -0.7449
32383SOL    HW1 9127   6.713   5.216   8.701  0.3225  0.3956 -0.7328
32383SOL    HW2 9128   6.712   5.283   8.565  0.8043 -0.2210 -1.0431
32384SOL     OW 9129   0.302   9.043   0.425 -0.0991 -0.0422  0.6468
32384SOL    HW1 9130   0.271   8.977   0.487  0.5854 -1.5680 -0.5473
32384SOL    HW2 9131   0.365   8.996   0.370 -1.0597  1.0698 -1.5557
32385SOL     OW 9132   7.789   0.449   3.179 -0.0927 -0.2688 -0.2329
32385SOL    HW1 9133   7.707   0.424   3.137 -0.2803  1.1317 -0.7574
32385SOL    HW2 9134   7.762   0.495   3.258  0.1638  0.3674 -0.5053
32386SOL     OW 9135   9.160   7.892   5.985  0.3367 -0.2980 -0.0333
32386SOL    HW1 9136   9.165   7.886   6.080 -1.2656 -0.3466  0.0758
32386SOL    HW2 9137   9.138   7.983   5.967  3.3630  0.4305 -0.5539
32387SOL     OW 9138   9.238   1.920   1.940  0.0214 -0.8599 -0.6394
32387SOL    HW1 9139   9.298   1.856   1.978 -0.4108 -1.6102 -1.1980
32387SOL    HW2 9140   9.295   1.983   1.896  0.5375  0.0137  1.1688
32388SOL     OW 9141   6.852   3.288   9.204  0.0192  0.0939 -0.2856
32388SOL    HW1 9142   6.830   3.195   9.203  2.1076 -0.4640  0.9075
32388SOL    HW2 9143   6.856   3.312   9.111  0.0944 -1.1557 -0.6270
32389SOL     OW 9144   6.262   1.345   2.966 -0.1067  0.2605 -0.0654
32389SOL    HW1 9145   6.313   1.264   2.974 -0.7737 -0.1400  0.2308
32389SOL    HW2 9146   6.272   1.371   2.875 -0.5298 -0.5929 -0.3607
32390SOL     OW 9147   4.492   1.321   7.262  0.2783 -0.3256  0.2604
32390SOL    HW1 9148   4.531   1.304   7.176  1.1359  0.6051  0.4505
32390SOL    HW2 9149   4.565   1.352   7.316 -0.6846  1.3460  0.6660
32391SOL     OW 9150   2.429   4.004   1.527 -0.1623 -0.0865 -0.2508
32391SOL    HW1 9151   2.384   3.921   1.508  0.5449 -0.5115 -0.0753
32391SOL    HW2 9152   2.519   3.979   1.546 -0.6443  0.3281  3.2173
32392SOL     OW 9153   8.902   0.946   7.607  0.6279 -0.0768  0.3327
32392SOL    HW1 9154   8.828   0.930   7.666 -1.1313  0.4063 -1.6124
32392SOL    HW2 9155   8.963   0.999   7.658 -0.7159  0.1426  1.7823
32393SOL     OW 9156   1.881   9.956   8.055 -0.0214 -0.3349  0.3861
32393SOL    HW1 9157   1.827  10.002   7.990 -1.4702 -0.5487  1.4021
32393SOL    HW2 9158   1.918  10.026   8.109  0.2079 -0.2272  0.0967
32394SOL     OW 9159   6.423   1.552   1.766 -0.0139  0.3715  0.5698
32394SOL    HW1 9160   6.440   1.505   1.848 -0.2220 -0.7935 -0.0263
32394SOL    HW2 9161   6.417   1.644   1.791  2.1016  0.2988  1.5517
32395SOL     OW 9162   0.029   0.401   6.849  0.4131 -0.3177 -0.0242
32395SOL    HW1 9163   0.033   0.475   6.909 -1.3158 -0.3056  0.1207
32395SOL    HW2 9164  -0.022   0.335   6.896 -0.7465 -0.4086 -1.3429
32396SOL     OW 9165   8.546   7.063   7.054  0.4118  0.4876 -0.0422
32396SOL    HW1 9166   8.552   7.141   7.109  0.1109  0.8546 -0.5173
32396SOL    HW2 9167   8.452   7.045   7.049  0.5606 -0.8675  1.3765
32397SOL     OW 9168   0.827   7.263   0.432 -0.3919 -0.0353 -0.4329
32397SOL    HW1 9169   0.776   7.237   0.355 -0.4513  1.8507 -1.0871
32397SOL    HW2 9170   0.760   7.282   0.498 -0.3944 -0.4566 -0.3114
32398SOL     OW 9171   6.330   3.525   7.689  0.5818 -0.2659 -0.5989
32398SOL    HW1 9172   6.342   3.549   7.597 -0.0851  1.2101 -0.3323
32398SOL    HW2 9173   6.346   3.606   7.737 -2.5962 -0.0126  0.2913
32399SOL     OW 9174   4.715   3.497   1.737 -0.2582  0.4755  0.1394
32399SOL    HW1 9175   4.682   3.541   1.658 -0.3272 -0.3804 -0.3288
32399SOL    HW2 9176   4.722   3.405   1.711  2.9577  0.6337  0.0588
32400SOL     OW 9177   8.211   8.793   8.650  0.4525 -0.4979  0.5441
32400SOL    HW1 9178   8.281   8.729   8.660 -2.4805 -3.8795  1.7956
32400SOL    HW2 9179   8.156   8.758   8.580 -0.7132  1.2851  0.4947
32401SOL     OW 9180   5.858   4.044   7.499  0.5551 -0.2308 -0.3091
32401SOL    HW1 9181   5.792   4.055   7.430 -0.0278 -0.1455  0.2518
32401SOL    HW2 9182   5.810   4.058   7.580  1.3577  0.2275  0.0986
32402SOL     OW 9183   4.148   9.527   2.383  0.2118  0.1884  0.4735
32402SOL    HW1 9184   4.056   9.521   2.359  0.4123  0.0123 -0.2947
32402SOL    HW2 9185   4.193   9.472   2.318  1.0057  1.3926 -0.0249
32403SOL     OW 9186   0.546   4.897   4.425 -0.2392  0.1255  0.0348
32403SOL    HW1 9187   0.463   4.863   4.458  0.7624 -1.3994  1.1503
32403SOL    HW2 9188   0.590   4.933   4.503 -0.1739  1.6688 -0.6830
32404SOL     OW 9189   0.708   1.374   0.313 -0.2871 -0.1111  0.1634
32404SOL    HW1 9190   0.747   1.330   0.238 -0.9326 -1.0389  0.3634
32404SOL    HW2 9191   0.775   1.369   0.381 -0.4910 -1.1432  0.3076
32405SOL     OW 9192   6.566   3.759   9.948 -0.1129  0.4642  0.1302
32405SOL    HW1 9193   6.498   3.760  10.015 -0.4026  0.8644 -0.1636
32405SOL    HW2 9194   6.620   3.684   9.970 -0.5450  0.2475  0.4746
32406SOL     OW 9195   3.163   7.848   9.618 -0.6762 -0.1104  0.0234
32406SOL    HW1 9196   3.071   7.845   9.644 -1.4712  1.8303 -2.2159
32406SOL    HW2 9197   3.174   7.772   9.560 -0.6869 -0.6700  0.7422
32407SOL     OW 9198   1.146   2.490   3.312 -0.4197  0.3690  0.2086
32407SOL    HW1 9199   1.109   2.405   3.334  0.3633  0.3084  1.3722
32407SOL    HW2 9200   1.238   2.483   3.336  0.1588  0.8387 -1.7209
32408SOL     OW 9201   4.957   6.931   0.740  0.4492 -0.0467  0.6223
32408SOL    HW1 9202   5.007   7.013   0.738  1.4021 -0.6378  0.0611
32408SOL    HW2 9203   4.867   6.959   0.758  0.6156  1.2005 -0.3542
32409SOL     OW 9204   7.156   1.016   1.192  0.9423  0.2354  0.1881
32409SOL    HW1 9205   7.124   1.099   1.158  2.3438  0.4316 -0.7226
32409SOL    HW2 9206   7.089   0.989   1.256 -0.6600  0.9364 -1.1115
32410SOL     OW 9207   7.985   4.731   4.499  0.1514  0.3205  0.1028
32410SOL    HW1 9208   7.984   4.811   4.445 -0.6066  0.0728 -0.2650
32410SOL    HW2 9209   8.008   4.762   4.586 -0.2565  0.9660 -0.0064
32411SOL     OW 9210   2.538   4.816   7.435 -0.2213 -0.2269 -0.4004
32411SOL    HW1 9211   2.478   4.861   7.494  0.2151 -2.1316  1.6650
32411SOL    HW2 9212   2.621   4.814   7.482  0.1682 -1.7927 -1.0794
32412SOL     OW 9213   1.895   5.473   4.942  0.1216 -0.3840 -0.3950
32412SOL    HW1 9214   1.868   5.562   4.920 -0.0433 -0.3897 -0.2154
32412SOL    HW2 9215   1.955   5.483   5.016  2.3022 -0.1803 -2.0710
32413SOL     OW 9216  10.184   6.870   3.826 -0.2190  0.5544 -0.5413
32413SOL    HW1 9217  10.147   6.957   3.844  0.8304  1.0833 -0.8339
32413SOL    HW2 9218  10.153   6.815   3.898 -0.1375  1.4173  0.1729
32414SOL     OW 9219   3.621   1.679   5.363 -0.2249 -0.1667 -0.2874
32414SOL    HW1 9220   3.638   1.773   5.367 -0.6607 -0.1101  0.4320
32414SOL    HW2 9221   3.706   1.640   5.341  0.3434  0.2792  1.0138
32415SOL     OW 9222   2.134   3.312   3.848 -0.2608 -0.5006 -0.2104
32415SOL    HW1 9223   2.213   3.259   3.860  0.1423  0.1217 -0.1110
32415SOL    HW2 9224   2.107   3.294   3.758  2.1240  2.1069 -1.5885
32416SOL     OW 9225   9.401  10.106   5.678  0.6367 -0.0872 -0.2827
32416SOL    HW1 9226   9.388  10.136   5.768  2.0884  1.7410 -0.6009
32416SOL    HW2 9227   9.484  10.057   5.680  0.5248 -0.2926 -0.5589
32417SOL     OW 9228   2.684   3.691   5.034 -0.1128 -0.2900 -0.0993
32417SOL    HW1 9229   2.701   3.727   4.947 -1.1076  2.9485  0.9110
32417SOL    HW2 9230   2.597   3.652   5.027  0.2431 -0.9880 -0.7880
32418SOL     OW 9231   9.253   0.080   8.724  0.2356  0.2229 -0.3671
32418SOL    HW1 9232   9.325   0.137   8.698  0.3728  0.3764  0.3144
32418SOL    HW2 9233   9.283   0.040   8.806  0.7674 -1.9717 -1.5525
32419SOL     OW 9234   7.695   5.509   7.557  0.0403 -0.1795  0.0196
32419SOL    HW1 9235   7.627   5.536   7.495 -0.7804  0.4282  1.1240
32419SOL    HW2 9236   7.773   5.556   7.529 -0.9762  2.3141  0.9912
32420SOL     OW 9237   4.312   2.422   6.191 -0.0064  0.0960 -0.8358
32420SOL    HW1 9238   4.338   2.468   6.271 -2.0240 -0.6035  0.2850
32420SOL    HW2 9239   4.297   2.332   6.219 -1.9844  0.1109 -1.6906
32421SOL     OW 9240   9.975   9.789   9.672  0.0266  0.2536 -0.4237
32421SOL    HW1 9241   9.987   9.821   9.582 -0.5773  0.0354 -0.5942
32421SOL    HW2 9242   9.889   9.824   9.698 -1.1352 -1.9965 -0.9891
32422SOL     OW 9243   0.384   8.077   5.567 -0.3373 -0.4854  0.5240
32422SOL    HW1 9244   0.414   8.047   5.653  0.3978 -0.3536  0.3250
32422SOL    HW2 9245   0.394   8.001   5.510  2.7693  0.3714 -0.2800
32423SOL     OW 9246   4.231   3.161   7.929  0.5470 -0.0752 -0.4084
32423SOL    HW1 9247   4.287   3.155   8.006  1.4860 -1.6045 -1.1692
32423SOL    HW2 9248   4.168   3.230   7.950  1.1140 -0.0957  1.4967
32424SOL     OW 9249   9.440   9.186   4.958 -0.1749 -0.1896 -0.7033
32424SOL    HW1 9250   9.408   9.179   5.048 -0.5877 -0.0777 -0.8390
32424SOL    HW2 9251   9.510   9.251   4.962  0.1248 -0.5284 -0.3791
32425SOL     OW 9252   1.830   0.593   0.691  0.7531 -0.1841 -0.2366
32425SOL    HW1 9253   1.767   0.529   0.657  0.8908 -0.2840 -0.3100
32425SOL    HW2 9254   1.906   0.540   0.717  1.1423  0.0076 -0.9397
32426SOL     OW 9255   0.989   4.349   3.318 -0.6986  0.2055  0.1669
32426SOL    HW1 9256   0.899   4.320   3.331 -0.6374  0.0457  0.2410
32426SOL    HW2 9257   1.020   4.370   3.406 -0.0750 -1.4898  0.3914
32427SOL     OW 9258   7.555   1.903   3.187  0.3805 -0.4123 -0.4797
32427SOL    HW1 9259   7.610   1.865   3.256 -1.4767  0.2948  1.4618
32427SOL    HW2 9260   7.485   1.839   3.174 -0.5827  0.5114  0.0123
32428SOL     OW 9261   6.318   8.811   9.011 -0.1064 -0.0141 -0.1889
32428SOL    HW1 9262   6.333   8.855   8.927 -1.1094  0.9706  0.1223
32428SOL    HW2 9263   6.228   8.832   9.033 -0.4241 -1.7593  0.2864
32429SOL     OW 9264   0.793   3.186   1.819 -0.6867  0.0127  0.1808
32429SOL    HW1 9265   0.730   3.127   1.860  0.2884 -3.5316 -2.7715
32429SOL    HW2 9266   0.876   3.138   1.823  0.5522  1.9172 -1.0162
32430SOL     OW 9267   6.732   4.658   6.153 -0.0929  0.1328  0.2533
32430SOL    HW1 9268   6.673   4.594   6.112 -1.0145  0.7082  0.6359
32430SOL    HW2 9269   6.795   4.605   6.201  0.6722 -0.5416 -1.4300
32431SOL     OW 9270   9.880   1.342   4.264 -0.5189  0.4028  0.6042
32431SOL    HW1 9271   9.849   1.431   4.249 -1.3524  0.6795  3.3279
32431SOL    HW2 9272   9.808   1.300   4.312  0.2308 -1.4665  0.1916
32432SOL     OW 9273   2.902   0.177   8.342 -0.3301 -0.6357 -0.0407
32432SOL    HW1 9274   2.979   0.135   8.305  0.3393  0.7251 -0.2446
32432SOL    HW2 9275   2.917   0.176   8.437  0.9223  1.3552 -0.1589
32433SOL     OW 9276   8.474   2.379   9.412  0.3997 -0.6010  0.3188
32433SOL    HW1 9277   8.414   2.353   9.481 -1.0557 -0.7582 -0.9441
32433SOL    HW2 9278   8.555   2.333   9.432 -0.6668 -2.4013  0.7197
32434SOL     OW 9279   3.921   3.606   7.114 -0.1427 -0.1643  0.1195
32434SOL    HW1 9280   4.014   3.588   7.100  0.2031  0.6947  1.1802
32434SOL    HW2 9281   3.896   3.660   7.040 -0.4216 -2.2866 -1.4358
32435SOL     OW 9282   7.384   6.108   8.615  0.3440 -0.3271  0.4219
32435SOL    HW1 9283   7.402   6.124   8.523 -0.2608 -1.1495  0.1476
32435SOL    HW2 9284   7.304   6.158   8.633 -1.4085 -2.6307 -0.3746
32436SOL     OW 9285   8.329  10.352   1.775 -0.1055  0.0033  0.5561
32436SOL    HW1 9286   8.372  10.416   1.718 -2.3038  0.2490 -0.9699
32436SOL    HW2 9287   8.274  10.405   1.832 -3.2907 -0.3917 -1.8656
32437SOL     OW 9288   2.082   7.768  10.350  0.0365  0.6329 -0.4326
32437SOL    HW1 9289   2.094   7.695  10.289 -0.6010 -0.9959  1.2867
32437SOL    HW2 9290   2.168   7.781  10.389 -0.2827 -0.6908  0.7944
32438SOL     OW 9291   0.966   5.994   8.881  0.0482  0.4185 -0.3294
32438SOL    HW1 9292   0.902   5.963   8.945 -2.0458  2.1550 -1.4559
32438SOL    HW2 9293   0.978   5.919   8.822 -0.8029 -0.0255  0.0337
32439SOL     OW 9294   9.520   8.643   6.689  0.6961  0.7848 -0.0847
32439SOL    HW1 9295   9.605   8.664   6.649  0.6930 -0.7074 -0.9704
32439SOL    HW2 9296   9.531   8.554   6.724 -0.1453  1.0374  0.8640
32440SOL     OW 9297   6.970   1.437   3.436 -0.3159  0.4065  0.6246
32440SOL    HW1 9298   7.012   1.516   3.468  3.0234 -0.7011 -0.5711
32440SOL    HW2 9299   6.985   1.371   3.504  0.1145 -0.0568  0.0972
32441SOL     OW 9300   3.069   4.586   2.575 -1.0177  0.7671  0.8346
32441SOL    HW1 9301   3.157   4.572   2.542 -2.4542 -0.1507 -3.2103
32441SOL    HW2 9302   3.038   4.499   2.600 -1.3294  0.7913  0.5505
32442SOL     OW 9303   2.734   9.311   8.170  0.1438  0.3962  0.4704
32442SOL    HW1 9304   2.770   9.328   8.084 -1.7159  1.1743 -0.2204
32442SOL    HW2 9305   2.720   9.398   8.208  0.5727  0.0722  1.4014
32443SOL     OW 9306   4.184   9.492   4.236 -0.5055  0.1368  0.9386
32443SOL    HW1 9307   4.186   9.563   4.171  2.1105  1.5805  2.4162
32443SOL    HW2 9308   4.199   9.412   4.185 -2.9006  0.6135 -0.6914
32444SOL     OW 9309   7.301   7.366   3.699 -0.2950 -0.2947 -0.0573
32444SOL    HW1 9310   7.311   7.284   3.748 -1.6337 -0.2548  0.3195
32444SOL    HW2 9311   7.287   7.433   3.765 -0.1387  0.0908 -0.4104
32445SOL     OW 9312   8.405   9.299   5.810 -0.0956  0.2026  0.2234
32445SOL    HW1 9313   8.370   9.237   5.746 -1.6355  1.0478  0.1912
32445SOL    HW2 9314   8.350   9.287   5.888  0.4286  0.6158  0.6657
32446SOL     OW 9315   1.072   0.130   0.032  0.2027 -0.0945  0.6611
32446SOL    HW1 9316   1.012   0.108  -0.039  3.2149 -1.3330 -1.7126
32446SOL    HW2 9317   1.110   0.046   0.059  3.3980  0.8293 -0.4677
32447SOL     OW 9318   4.555  10.332   3.350 -0.1161  0.0179 -0.0551
32447SOL    HW1 9319   4.534  10.423   3.327  1.9571  0.6922  0.5085
32447SOL    HW2 9320   4.649  10.324   3.332 -0.1630 -1.8871  0.3581
32448SOL     OW 9321   6.434   4.906   8.112 -0.2519  0.4330  0.4940
32448SOL    HW1 9322   6.398   4.866   8.033 -0.0836 -2.9830  1.9628
32448SOL    HW2 9323   6.370   4.885   8.181 -0.0556  2.6762  1.4410
32449SOL     OW 9324   5.439   6.859   4.941  0.5025 -0.0908  0.2941
32449SOL    HW1 9325   5.361   6.838   4.993  0.9813 -0.9662  0.6781
32449SOL    HW2 9326   5.505   6.798   4.973  1.4673  0.9159  0.2651
32450SOL     OW 9327   6.984   9.593   6.790  0.4147  0.2708 -0.2972
32450SOL    HW1 9328   7.011   9.557   6.875 -0.7668  0.1918  0.0588
32450SOL    HW2 9329   6.913   9.653   6.811  0.3702  0.5466 -1.2019
32451SOL     OW 9330   7.627   7.244   6.266  0.2346 -0.2103  0.2313
32451SOL    HW1 9331   7.574   7.165   6.254  0.6983 -0.4170 -0.5974
32451SOL    HW2 9332   7.692   7.220   6.332 -1.2213  0.3303  1.9095
32452SOL     OW 9333   0.610   2.794   7.196  0.1533 -0.3987  0.1173
32452SOL    HW1 9334   0.517   2.799   7.175 -0.1834 -1.6126  1.1854
32452SOL    HW2 9335   0.637   2.885   7.209  0.0981  0.4127 -3.9631
32453SOL     OW 9336   2.778   1.800   8.308  0.5868  0.3048 -0.1616
32453SOL    HW1 9337   2.745   1.714   8.281  0.1240  0.8761 -1.5163
32453SOL    HW2 9338   2.704   1.841   8.353  0.8582 -0.0405  0.6299
32454SOL     OW 9339   5.454   2.643   9.183 -0.5406 -0.1091 -0.2552
32454SOL    HW1 9340   5.359   2.655   9.186 -0.6706 -0.8700 -0.8401
32454SOL    HW2 9341   5.467   2.549   9.196  0.1950  0.1055  0.6741
32455SOL     OW 9342   9.788   3.618   5.743 -0.6038 -0.2830  0.5433
32455SOL    HW1 9343   9.789   3.687   5.676  2.8757 -1.4979 -0.9199
32455SOL    HW2 9344   9.751   3.542   5.699 -1.8802 -0.1230  1.2914
32456SOL     OW 9345   7.645   0.725   4.866  0.1501 -0.2187 -0.0431
32456SOL    HW1 9346   7.626   0.810   4.826  0.3755  0.7637  1.7866
32456SOL    HW2 9347   7.560   0.684   4.878  0.0787 -0.5167 -1.4257
32457SOL     OW 9348   3.605   9.386   1.872  0.3606 -0.0662 -0.2816
32457SOL    HW1 9349   3.637   9.456   1.816  0.0106  0.5464  0.2713
32457SOL    HW2 9350   3.511   9.404   1.882  0.0319 -1.2231 -1.0061
32458SOL     OW 9351   0.505   8.009   5.202 -0.6583 -0.3283  0.5442
32458SOL    HW1 9352   0.595   8.005   5.169 -0.0166 -0.8663  2.2836
32458SOL    HW2 9353   0.464   8.077   5.149 -0.0320 -1.8266 -2.0853
32459SOL     OW 9354   1.536   2.844   6.062  0.2581 -0.1116  0.1309
32459SOL    HW1 9355   1.448   2.868   6.093 -0.3329  0.3265 -1.7339
32459SOL    HW2 9356   1.580   2.809   6.139 -1.9025 -1.3374  0.9049
32460SOL     OW 9357  10.302   1.891   5.859  0.2344  0.4486 -0.6045
32460SOL    HW1 9358  10.322   1.935   5.942  0.3928 -0.8547  0.0920
32460SOL    HW2 9359  10.260   1.957   5.805 -0.4117  1.1798  0.7506
32461SOL     OW 9360   5.649   8.603   1.393  0.2820  0.3287  0.0847
32461SOL    HW1 9361   5.691   8.645   1.469 -0.9538 -0.8931  1.5217
32461SOL    HW2 9362   5.680   8.653   1.318  2.4891  0.8800  1.2672
32462SOL     OW 9363   8.608   8.527   4.927 -0.0363 -0.1216  0.4210
32462SOL    HW1 9364   8.579   8.529   4.836  1.3042 -1.2309 -0.0640
32462SOL    HW2 9365   8.569   8.448   4.963 -1.8552  1.1082  1.3225
32463SOL     OW 9366   0.205   6.357   3.709  0.2572  0.1533  0.3896
32463SOL    HW1 9367   0.115   6.324   3.711 -0.4016  1.7254 -0.8586
32463SOL    HW2 9368   0.219   6.382   3.618  1.7893  0.4407  0.6723
32464SOL     OW 9369   8.189   8.375   1.445 -0.0843  0.1896 -0.1353
32464SOL    HW1 9370   8.131   8.355   1.518  0.4984  0.0982  0.3134
32464SOL    HW2 9371   8.217   8.466   1.461  0.3915  0.0216  0.0038
32465SOL     OW 9372   0.569   8.014   1.688  0.0445  0.3380 -0.2963
32465SOL    HW1 9373   0.580   7.931   1.642  0.8633  0.4207 -0.2590
32465SOL    HW2 9374   0.495   8.056   1.644  0.0402 -0.1255 -0.7401
32466SOL     OW 9375   2.677   9.682   1.500 -0.1301  0.0267  0.2339
32466SOL    HW1 9376   2.706   9.773   1.493 -1.6897  0.5688  0.2846
32466SOL    HW2 9377   2.668   9.652   1.410  1.1515 -0.3665  0.2161
32467SOL     OW 9378   0.873   1.669   8.209  0.5629  0.2331  0.0316
32467SOL    HW1 9379   0.788   1.650   8.170  1.3627 -1.4894 -0.9746
32467SOL    HW2 9380   0.883   1.604   8.279  0.5136  1.2604  1.0206
32468SOL     OW 9381   5.218   0.407   8.238 -0.1642 -0.2373  0.4370
32468SOL    HW1 9382   5.133   0.363   8.238 -0.3528  0.0945 -0.8271
32468SOL    HW2 9383   5.270   0.359   8.303 -1.5821  0.1214  1.9072
32469SOL     OW 9384   9.784   4.720   5.273  0.2045  0.2927 -0.3886
32469SOL    HW1 9385   9.739   4.660   5.333 -1.0362 -0.2066 -1.7742
32469SOL    HW2 9386   9.877   4.709   5.294 -0.2038  0.3198  1.5882
32470SOL     OW 9387   7.424   9.604   5.346  0.5249 -0.4346 -0.0151
32470SOL    HW1 9388   7.393   9.695   5.353  0.4453 -0.5125  0.6890
32470SOL    HW2 9389   7.345   9.551   5.356  0.8486 -0.6395  1.8956
32471SOL     OW 9390   0.376  10.021   2.286  0.4298 -0.3061  0.6860
32471SOL    HW1 9391   0.442   9.982   2.343  0.0335  1.6647  2.6866
32471SOL    HW2 9392   0.410  10.108   2.266 -0.0941 -0.4606 -0.9873
32472SOL     OW 9393   0.926   1.623   0.464 -0.4165 -0.0116 -0.4850
32472SOL    HW1 9394   0.970   1.702   0.495 -0.4092 -0.3393  0.3802
32472SOL    HW2 9395   0.883   1.650   0.384  0.7679  0.5033 -0.9805
32473SOL     OW 9396   7.355   9.921   4.655  0.2183 -0.4911 -0.1774
32473SOL    HW1 9397   7.372   9.891   4.744 -1.0788  0.9575  0.6192
32473SOL    HW2 9398   7.371  10.015   4.658 -1.3545 -0.1599 -1.0310
32474SOL     OW 9399   2.347   5.627   9.839  0.0961 -0.2539  0.4073
32474SOL    HW1 9400   2.315   5.579   9.762  0.9525  2.7488 -2.0155
32474SOL    HW2 9401   2.267   5.658   9.882 -0.4113 -2.2806  1.0301
32475SOL     OW 9402   1.858   2.050   6.985  0.2903 -0.3786 -0.1045
32475SOL    HW1 9403   1.906   2.098   7.053 -0.8644 -0.3231  0.6925
32475SOL    HW2 9404   1.768   2.048   7.016  0.1644 -2.4702 -0.4348
32476SOL     OW 9405   8.091   3.846   7.483  0.3421  0.2138 -0.1678
32476SOL    HW1 9406   8.180   3.820   7.458  0.6478  2.0828 -1.1998
32476SOL    HW2 9407   8.096   3.860   7.578  1.3689  1.0170 -0.3195
32477SOL     OW 9408   8.498   3.662   8.079 -0.3228  0.2784 -0.0865
32477SOL    HW1 9409   8.453   3.592   8.125 -0.8090  1.0271  0.5975
32477SOL    HW2 9410   8.432   3.731   8.068  0.2401  0.7852 -0.4150
32478SOL     OW 9411   8.778   2.785  10.145  0.3769  0.0314 -0.4686
32478SOL    HW1 9412   8.791   2.856  10.207 -0.3624  0.9675 -1.3548
32478SOL    HW2 9413   8.716   2.726  10.188  1.9119 -0.7558  0.7755
32479SOL     OW 9414   6.384   6.950   5.197 -0.8363  0.1568  0.1176
32479SOL    HW1 9415   6.377   6.854   5.196 -3.2849  0.2204  1.9326
32479SOL    HW2 9416   6.375   6.973   5.290 -1.5031  2.1957 -0.4187
32480SOL     OW 9417   0.646   7.590   7.867 -0.2332 -0.3325  0.0765
32480SOL    HW1 9418   0.670   7.671   7.822  0.2411 -0.7463 -0.4143
32480SOL    HW2 9419   0.566   7.613   7.916 -1.0715 -0.0303 -1.3912
32481SOL     OW 9420   2.751   7.719   6.089 -0.5728  0.4281  0.4810
32481SOL    HW1 9421   2.715   7.679   6.168  0.4048 -2.1928 -0.2950
32481SOL    HW2 9422   2.838   7.748   6.114  0.0311 -1.0851  0.2414
32482SOL     OW 9423   2.850   5.950   8.653  0.3187 -0.1887 -0.2390
32482SOL    HW1 9424   2.899   5.937   8.734  2.4350  2.2908 -0.9992
32482SOL    HW2 9425   2.759   5.959   8.681  1.0150  0.7672  1.9167
32483SOL     OW 9426   5.185   2.349   4.271  0.1862  0.4277  0.0136
32483SOL    HW1 9427   5.186   2.377   4.362 -1.8620  1.2429 -0.1687
32483SOL    HW2 9428   5.136   2.267   4.272 -0.2454  0.6769 -0.4066
32484SOL     OW 9429   4.408   2.301   9.623  0.3721  0.3237  0.5608
32484SOL    HW1 9430   4.319   2.309   9.657  0.1334 -0.1798  0.0713
32484SOL    HW2 9431   4.453   2.246   9.686 -0.6836 -2.5057 -0.9830
32485SOL     OW 9432   2.902   1.610   0.277  0.1002  0.1863  0.7468
32485SOL    HW1 9433   2.852   1.688   0.302 -0.7065  0.9190 -2.6440
32485SOL    HW2 9434   2.986   1.644   0.246 -0.5975 -0.0421 -1.6484
32486SOL     OW 9435   5.644   9.076   1.524  0.4572  0.7557  0.6091
32486SOL    HW1 9436   5.590   9.114   1.455 -0.3221  0.3068  0.9487
32486SOL    HW2 9437   5.696   9.008   1.480 -0.5485 -0.0163  0.5659
32487SOL     OW 9438   2.585   3.737   5.370 -0.7646  0.6557 -0.0060
32487SOL    HW1 9439   2.670   3.765   5.336  0.3463 -0.6421  1.5152
32487SOL    HW2 9440   2.600   3.647   5.399 -2.7325  0.3343  0.1343
32488SOL     OW 9441   0.425   5.495   5.292  0.1109  0.6115  0.0076
32488SOL    HW1 9442   0.342   5.541   5.282 -0.9884 -1.1354  0.6908
32488SOL    HW2 9443   0.422   5.426   5.225  0.9007  0.4048  0.1776
32489SOL     OW 9444   4.635   0.638   7.930 -0.5656  0.4575  0.5160
32489SOL    HW1 9445   4.543   0.661   7.941 -0.2384  1.0913  2.1590
32489SOL    HW2 9446   4.650   0.644   7.835 -2.2598  0.0858  0.1981
32490SOL     OW 9447   1.639   8.094   5.965  0.5582  0.1589  0.6590
32490SOL    HW1 9448   1.671   8.175   6.005  2.3928 -1.2051  2.1458
32490SOL    HW2 9449   1.578   8.058   6.030 -0.7975  0.6720 -0.3071
32491SOL     OW 9450   1.188   4.000   2.515 -0.0882 -0.2982 -0.1224
32491SOL    HW1 9451   1.143   3.976   2.434 -1.8994 -1.4492  1.1477
32491SOL    HW2 9452   1.277   3.966   2.505 -0.5510 -1.1971 -1.2761
32492SOL     OW 9453   9.726   3.092   4.866 -0.2475 -0.2582  0.0920
32492SOL    HW1 9454   9.691   3.010   4.900  0.4394 -0.3095  0.7131
32492SOL    HW2 9455   9.686   3.160   4.921 -1.7228 -0.0552 -1.1630
32493SOL     OW 9456   1.111   5.150   2.076  0.0949 -0.5865  0.2781
32493SOL    HW1 9457   1.053   5.082   2.110  0.9961 -1.2129  0.5997
32493SOL    HW2 9458   1.130   5.205   2.151 -1.2846  0.5250 -0.1558
32494SOL     OW 9459  10.129   6.194   1.518 -0.3925  0.0276  0.4314
32494SOL    HW1 9460  10.087   6.128   1.572 -0.2144 -1.4687 -1.1767
32494SOL    HW2 9461  10.222   6.188   1.540 -0.3348 -0.4960  0.0548
32495SOL     OW 9462   6.974   3.715   7.739  0.3477 -0.3077  0.4650
32495SOL    HW1 9463   6.921   3.641   7.767 -0.8942 -0.0827 -1.1496
32495SOL    HW2 9464   7.065   3.688   7.757 -0.2303 -0.3655  4.0724
32496SOL     OW 9465   3.660   0.935   7.745 -0.1568  0.2888 -0.5815
32496SOL    HW1 9466   3.616   0.851   7.761  1.1804 -0.3635 -0.1006
32496SOL    HW2 9467   3.691   0.929   7.654 -0.9902  0.7174 -0.8970
32497SOL     OW 9468   1.854   6.091   4.095  0.2466  0.1768 -0.0410
32497SOL    HW1 9469   1.880   6.159   4.157  0.8992 -0.7208  0.6921
32497SOL    HW2 9470   1.933   6.038   4.084 -0.4206 -0.8169 -0.1314
32498SOL     OW 9471   2.058   2.159   8.608  0.0028 -0.3375 -0.4459
32498SOL    HW1 9472   2.048   2.253   8.592 -0.0763 -0.4556 -1.1441
32498SOL    HW2 9473   1.969   2.128   8.625  0.2007 -0.0374  1.3436
32499SOL     OW 9474   0.784   4.507   7.737 -0.7469  0.3783 -0.1812
32499SOL    HW1 9475   0.728   4.551   7.801  0.8327  2.7321 -0.2598
32499SOL    HW2 9476   0.774   4.559   7.657 -0.4064 -0.7016 -0.9388
32500SOL     OW 9477   5.986   7.893   4.613 -0.1956  0.5176  0.0478
32500SOL    HW1 9478   6.047   7.966   4.615  0.0613  0.2974  0.2533
32500SOL    HW2 9479   5.934   7.908   4.534  0.7571  0.1882 -0.6603
32501SOL     OW 9480   8.184   3.811   2.260  0.1447 -0.1467 -0.2694
32501SOL    HW1 9481   8.272   3.790   2.231  0.3898  1.8267 -1.1360
32501SOL    HW2 9482   8.171   3.902   2.233 -2.5773 -0.7293 -1.2329
32502SOL     OW 9483   3.271   2.578   5.816  0.2013  0.2302 -0.0207
32502SOL    HW1 9484   3.352   2.603   5.771  0.6775 -0.9597  0.1370
32502SOL    HW2 9485   3.253   2.651   5.874  1.1214  0.5597 -0.1242
32503SOL     OW 9486   9.877   1.578   0.256 -0.2772  0.6247 -0.4245
32503SOL    HW1 9487   9.950   1.623   0.298 -0.1558 -0.8549  1.0313
32503SOL    HW2 9488   9.803   1.593   0.314  0.2178 -2.6738  1.2774
32504SOL     OW 9489   2.832   5.394   1.946  0.1864 -0.4414  0.1636
32504SOL    HW1 9490   2.835   5.443   2.028 -1.1149 -1.4346  0.8422
32504SOL    HW2 9491   2.764   5.328   1.960 -0.1294 -0.5799 -1.7481
32505SOL     OW 9492   3.958   3.819   0.787 -0.4453 -0.3178 -0.2746
32505SOL    HW1 9493   3.995   3.835   0.700 -1.6332 -1.0927 -0.9569
32505SOL    HW2 9494   4.025   3.768   0.832 -0.5188 -1.4261 -1.3626
32506SOL     OW 9495   8.612   9.161   5.943  0.3612  0.2942  0.0513
32506SOL    HW1 9496   8.593   9.078   5.898 -0.9592  0.3825  0.4261
32506SOL    HW2 9497   8.548   9.222   5.909 -0.0501  0.6122  1.3394
32507SOL     OW 9498   1.522   7.019   1.345  0.1106  0.0541 -0.2684
32507SOL    HW1 9499   1.500   6.926   1.340 -1.0439  0.3869 -2.8528
32507SOL    HW2 9500   1.616   7.022   1.325 -0.2315 -0.4518 -2.1228
32508SOL     OW 9501   8.296   8.045   0.595 -0.3777  0.0105  0.2014
32508SOL    HW1 9502   8.361   8.073   0.530 -0.4741 -1.8685 -0.7743
32508SOL    HW2 9503   8.347   8.021   0.672 -0.0973  0.4569  0.1575
32509SOL     OW 9504   1.467   9.914   8.436  0.3504  0.4381  0.2859
32509SOL    HW1 9505   1.527   9.900   8.363 -0.1093  0.6369 -0.1407
32509SOL    HW2 9506   1.381   9.891   8.401  0.2063 -0.0933  0.9680
32510SOL     OW 9507   8.045   7.212   7.254  0.3328  0.7663 -0.0787
32510SOL    HW1 9508   8.012   7.299   7.275 -1.1086  0.1930  0.1549
32510SOL    HW2 9509   8.016   7.196   7.165  0.3856  0.4236 -0.0373
32511SOL     OW 9510   5.911   9.033  10.221  0.0771 -0.1329  0.3187
32511SOL    HW1 9511   5.839   8.971  10.228 -0.0665  0.0988  0.9136
32511SOL    HW2 9512   5.977   8.987  10.169  0.3935 -1.1856  1.6048
32512SOL     OW 9513   3.364   8.484   3.302 -0.2119  0.5047  0.4568
32512SOL    HW1 9514   3.384   8.490   3.395  1.0273  1.0499  0.1796
32512SOL    HW2 9515   3.438   8.436   3.264  0.2833  1.9694 -0.5167
32513SOL     OW 9516   0.688   9.510   7.713 -0.2038 -0.2495 -0.0510
32513SOL    HW1 9517   0.729   9.561   7.783  0.9294 -0.3227 -0.6354
32513SOL    HW2 9518   0.608   9.476   7.752  0.6156 -0.6476  1.3503
32514SOL     OW 9519   8.162   2.223   5.485  0.5413  0.0670  0.2677
32514SOL    HW1 9520   8.220   2.260   5.418  0.5045  0.4820  0.4614
32514SOL    HW2 9521   8.076   2.224   5.444  0.7009 -0.7588 -0.1026
32515SOL     OW 9522   0.469   3.515   8.788  0.0348  0.0785 -0.1895
32515SOL    HW1 9523   0.552   3.467   8.790  0.0526  0.0988 -0.3947
32515SOL    HW2 9524   0.426   3.493   8.871  0.3156  0.1925 -0.0107
32516SOL     OW 9525   7.957   6.263   6.606 -0.0175  0.2231 -0.2190
32516SOL    HW1 9526   7.971   6.342   6.658  1.3610 -0.2008  0.0817
32516SOL    HW2 9527   7.867   6.272   6.573  1.0790  3.5542 -2.9664
32517SOL     OW 9528   7.229   7.397   1.864 -0.1206  0.0444 -0.2922
32517SOL    HW1 9529   7.185   7.318   1.833 -1.3629  1.1086 -1.3533
32517SOL    HW2 9530   7.168   7.434   1.928  0.5799  0.0290  0.4084
32518SOL     OW 9531   1.892   5.180   2.599  0.4715  0.0389  0.5151
32518SOL    HW1 9532   1.915   5.273   2.600 -0.3099  0.2387  1.3705
32518SOL    HW2 9533   1.842   5.166   2.680 -2.9197 -0.1983 -1.4206
32519SOL     OW 9534   1.953   2.892   8.172  0.3416  0.3065 -0.0971
32519SOL    HW1 9535   1.896   2.877   8.097  2.2811 -0.5001 -1.4968
32519SOL    HW2 9536   2.041   2.896   8.134  1.4690 -0.8847  2.2130
32520SOL     OW 9537   0.874   8.573   5.184  0.0535 -0.1668 -0.3257
32520SOL    HW1 9538   0.910   8.638   5.123  1.6519 -1.2065 -0.5531
32520SOL    HW2 9539   0.942   8.564   5.251 -2.0157  1.5749  2.1792
32521SOL     OW 9540   1.531   8.546   6.896  0.2025 -0.4067 -0.1929
32521SOL    HW1 9541   1.551   8.575   6.985 -2.4234 -1.2591  0.7672
32521SOL    HW2 9542   1.598   8.480   6.876  1.3764  0.4611  0.7453
32522SOL     OW 9543   3.860   7.031  10.297  0.3552 -0.2814  0.0292
32522SOL    HW1 9544   3.956   7.027  10.292  0.3191 -1.7203  0.2861
32522SOL    HW2 9545   3.841   7.038  10.390  0.1650 -2.1510  0.1581
32523SOL     OW 9546   5.066   6.796   1.431  0.6197  0.6667  0.0441
32523SOL    HW1 9547   5.086   6.702   1.434  0.8077  0.6503 -1.2071
32523SOL    HW2 9548   4.998   6.808   1.498  1.1856 -0.2026  0.8000
32524SOL     OW 9549   8.388   0.189   6.261 -0.5644  0.1680  0.1843
32524SOL    HW1 9550   8.351   0.233   6.185  0.6779 -0.8895 -1.0638
32524SOL    HW2 9551   8.473   0.231   6.275 -0.9398  0.6190  1.2585
32525SOL     OW 9552   7.190   0.127   9.271 -0.4582 -0.3113 -0.0980
32525SOL    HW1 9553   7.231   0.044   9.245 -1.9746 -0.6529 -1.5751
32525SOL    HW2 9554   7.131   0.103   9.342  0.8258 -0.0453  1.1095
32526SOL     OW 9555   7.446   0.520   2.013 -0.7047  0.0289  0.2285
32526SOL    HW1 9556   7.372   0.460   2.020 -0.3217 -0.2370  2.7091
32526SOL    HW2 9557   7.521   0.464   1.997 -0.1533 -0.4041  3.7416
32527SOL     OW 9558   8.159   4.047   1.786 -0.2317 -0.3370  0.1383
32527SOL    HW1 9559   8.114   4.129   1.808 -0.7834 -1.3125  3.0486
32527SOL    HW2 9560   8.252   4.070   1.786 -0.3676  0.2903  1.0986
32528SOL     OW 9561   4.907   6.489   1.606 -0.3163  0.2716 -0.9618
32528SOL    HW1 9562   4.868   6.402   1.621  1.8708 -0.4531  1.2119
32528SOL    HW2 9563   4.841   6.550   1.638 -0.7173 -0.7905  0.3665
32529SOL     OW 9564   1.532   3.702   8.290  0.2612 -0.7394  0.2799
32529SOL    HW1 9565   1.627   3.713   8.295  0.0498  1.2770  0.8073
32529SOL    HW2 9566   1.501   3.783   8.251 -1.2883 -1.1853  0.5348
32530SOL     OW 9567   4.678   6.799   8.846  0.3616 -0.4475 -0.1299
32530SOL    HW1 9568   4.589   6.832   8.828  0.5633 -0.6318 -1.6219
32530SOL    HW2 9569   4.720   6.798   8.760  2.6308  1.9647  0.8195
32531SOL     OW 9570   3.918   5.387   5.994  0.0439 -0.1492  0.3707
32531SOL    HW1 9571   3.840   5.374   5.938  0.7374  1.6008 -1.1026
32531SOL    HW2 9572   3.965   5.304   5.988 -0.5479 -0.4349 -0.6426
32532SOL     OW 9573   3.853   3.063   2.348 -0.4157 -0.0157 -0.2748
32532SOL    HW1 9574   3.831   3.072   2.255 -0.7088  1.4560 -0.0809
32532SOL    HW2 9575   3.806   2.984   2.375  0.9945 -1.4278 -1.7335
32533SOL     OW 9576   0.746   3.431   8.775 -0.0964  0.1742 -0.7347
32533SOL    HW1 9577   0.806   3.506   8.778  1.1627 -0.6936 -2.2417
32533SOL    HW2 9578   0.778   3.372   8.843 -0.4722  0.5495 -0.2225
32534SOL     OW 9579   5.587   4.498   0.157  0.1046  0.1728 -0.1402
32534SOL    HW1 9580   5.579   4.502   0.061  1.0074  0.3690 -0.2205
32534SOL    HW2 9581   5.678   4.524   0.174  0.1719 -0.6003  0.7276
32535SOL     OW 9582   7.154   8.522   0.304 -0.4312  0.5800  0.1537
32535SOL    HW1 9583   7.076   8.576   0.292 -0.6920  0.8747  2.6923
32535SOL    HW2 9584   7.147   8.488   0.393  0.2582 -2.8651 -0.9422
32536SOL     OW 9585   0.043   0.148   7.295 -0.1314  0.2212  0.1412
32536SOL    HW1 9586  -0.021   0.089   7.336 -1.2727 -0.0371 -1.9108
32536SOL    HW2 9587   0.009   0.236   7.315  0.1854  0.1536  1.0420
32537SOL     OW 9588   0.465   8.350   2.798 -0.7456  0.0157 -0.4586
32537SOL    HW1 9589   0.503   8.428   2.838 -0.6485 -0.4256  0.3334
32537SOL    HW2 9590   0.516   8.278   2.833 -3.0227 -0.7245  1.5920
32538SOL     OW 9591   8.103   1.947   4.838  0.1236  0.1328  0.4140
32538SOL    HW1 9592   8.031   2.006   4.820 -1.2195 -1.4662  0.2619
32538SOL    HW2 9593   8.173   2.003   4.872 -0.5866  1.9415 -0.9485
32539SOL     OW 9594  10.244   4.646   0.428 -0.1402 -0.2362 -0.7060
32539SOL    HW1 9595  10.160   4.691   0.419  1.1421  2.5658  0.1345
32539SOL    HW2 9596  10.236   4.599   0.511 -1.2698 -1.0572 -1.2447
32540SOL     OW 9597   0.185  10.097   2.119  0.2507 -0.6066  0.7336
32540SOL    HW1 9598   0.190  10.046   2.037  1.4839  0.6989 -0.0450
32540SOL    HW2 9599   0.252  10.058   2.175  0.8622 -0.1788  0.3158
32541SOL     OW 9600   9.703   7.545   1.586  0.5780 -0.3420  0.2465
32541SOL    HW1 9601   9.672   7.455   1.585 -0.3455 -0.0474 -1.6197
32541SOL    HW2 9602   9.639   7.593   1.533  1.8195  1.1564  0.0301
32542SOL     OW 9603   8.712   0.680   0.988 -0.7492 -0.2888 -0.1951
32542SOL    HW1 9604   8.712   0.695   1.083 -0.8253 -0.6363 -0.1377
32542SOL    HW2 9605   8.661   0.753   0.952 -0.2310  0.1638 -0.0249
32543SOL     OW 9606   6.746   7.544   4.562 -0.1801 -0.0475  0.3495
32543SOL    HW1 9607   6.791   7.600   4.625  3.2613  0.4222 -2.2374
32543SOL    HW2 9608   6.695   7.605   4.508  0.9089  0.2042 -0.4086
32544SOL     OW 9609   0.905   8.654   7.417  0.5062 -0.6002  0.1090
32544SOL    HW1 9610   0.863   8.740   7.421  0.1951 -0.5645 -2.1721
32544SOL    HW2 9611   0.883   8.622   7.329  2.1781 -2.1901  0.2232
32545SOL     OW 9612   6.758   5.406   6.873 -0.1663 -0.7416 -0.6481
32545SOL    HW1 9613   6.752   5.502   6.876 -0.2122 -0.7639  0.2992
32545SOL    HW2 9614   6.714   5.381   6.792 -0.2333  0.0342 -0.8562
32546SOL     OW 9615   8.406   1.679   8.156 -0.0031  0.2990 -0.2148
32546SOL    HW1 9616   8.426   1.603   8.211  1.0623 -0.2228 -1.2751
32546SOL    HW2 9617   8.410   1.754   8.215  1.0953 -0.2536  0.4327
32547SOL     OW 9618   4.000   3.317   5.844  0.0167 -0.2100 -0.0876
32547SOL    HW1 9619   4.093   3.299   5.831 -0.0953 -0.1944 -0.9663
32547SOL    HW2 9620   3.997   3.408   5.872  0.1329  0.5417 -2.3364
32548SOL     OW 9621   4.445   2.504   7.988 -0.0861 -0.1445 -0.0649
32548SOL    HW1 9622   4.516   2.564   7.963 -0.2055  0.6140  1.3403
32548SOL    HW2 9623   4.490   2.423   8.012  0.0725 -0.6979 -2.0274
32549SOL     OW 9624   0.237   2.390   6.288  0.2391  0.0402 -0.3346
32549SOL    HW1 9625   0.143   2.386   6.300  0.2984  0.8612  0.4879
32549SOL    HW2 9626   0.252   2.352   6.201 -0.6527 -1.8406  0.2777
32550SOL     OW 9627   8.985   3.827   7.500 -0.5486 -0.1477 -0.1196
32550SOL    HW1 9628   9.005   3.799   7.411  0.8566  2.3419 -0.6784
32550SOL    HW2 9629   9.051   3.784   7.554  0.2610  0.4013 -0.6537
32551SOL     OW 9630   4.201   4.215   9.600  0.1468  0.8062 -0.6340
32551SOL    HW1 9631   4.115   4.254   9.582 -0.4365  0.6138  1.4297
32551SOL    HW2 9632   4.238   4.197   9.514 -0.9258  2.9304 -1.6116
32552SOL     OW 9633   4.631   5.947   8.352  0.3550  0.0094 -0.0564
32552SOL    HW1 9634   4.698   5.886   8.323 -0.0210 -0.2555 -0.3963
32552SOL    HW2 9635   4.678   6.029   8.369  0.5400  0.4058 -2.1132
32553SOL     OW 9636   5.169   7.795   1.530  0.1389  0.1475  0.3748
32553SOL    HW1 9637   5.252   7.798   1.577 -0.0083  0.5522  0.6150
32553SOL    HW2 9638   5.194   7.792   1.437  0.4232 -0.1559  0.4575
32554SOL     OW 9639   8.268   5.562   5.954  0.8276 -0.3578  1.0437
32554SOL    HW1 9640   8.352   5.578   5.996  0.1775  1.3044  1.8162
32554SOL    HW2 9641   8.238   5.649   5.926 -0.8389 -0.8380  1.1972
32555SOL     OW 9642   5.355   1.006   7.911 -0.0459 -0.2251 -0.0793
32555SOL    HW1 9643   5.359   1.033   7.819  0.7714 -1.4981 -0.4389
32555SOL    HW2 9644   5.322   1.083   7.957 -0.3087  0.4899 -1.4117
32556SOL     OW 9645   0.452   0.866   9.727 -0.2145 -0.0218  0.6416
32556SOL    HW1 9646   0.378   0.923   9.709 -0.2865 -0.2234  0.2814
32556SOL    HW2 9647   0.458   0.864   9.822 -0.0255  0.8137  0.6498
32557SOL     OW 9648   2.229   8.379   6.448  0.1792  0.7292  0.5097
32557SOL    HW1 9649   2.311   8.389   6.400 -0.7020  2.4421 -0.7510
32557SOL    HW2 9650   2.184   8.307   6.404  0.0925  1.1961 -0.1703
32558SOL     OW 9651  10.082   3.364   6.919 -0.9586  0.4136 -0.7406
32558SOL    HW1 9652  10.108   3.367   7.011 -0.8235 -0.3137 -0.7497
32558SOL    HW2 9653  10.163   3.342   6.872 -1.6244 -2.5814 -0.7075
32559SOL     OW 9654   7.223   6.907   1.109  0.7652 -1.2379 -0.2601
32559SOL    HW1 9655   7.174   6.865   1.038 -0.2787  0.4665 -0.6049
32559SOL    HW2 9656   7.158   6.921   1.178  1.0637 -0.1578 -0.1825
32560SOL     OW 9657   5.565   7.881   9.692  0.1807 -0.2927  0.4740
32560SOL    HW1 9658   5.617   7.887   9.611  1.1695  3.5065  1.2000
32560SOL    HW2 9659   5.549   7.972   9.717  0.6248 -1.2312  5.0138
32561SOL     OW 9660   9.569  10.147   7.042  0.1433 -0.0058  0.0763
32561SOL    HW1 9661   9.477  10.162   7.020  0.2823 -0.0606 -0.5623
32561SOL    HW2 9662   9.577  10.177   7.132 -0.8590 -1.4657  0.6870
32562SOL     OW 9663   0.758   4.531   4.637 -0.2871 -0.6204  0.3583
32562SOL    HW1 9664   0.696   4.604   4.641  0.8847  0.3529  1.4211
32562SOL    HW2 9665   0.722   4.467   4.699 -0.4655 -0.2547  0.6364
32563SOL     OW 9666   6.268   6.976   9.008 -0.1378  0.4894  0.3116
32563SOL    HW1 9667   6.294   7.002   8.919 -0.4003  0.5386  0.2475
32563SOL    HW2 9668   6.347   6.987   9.060 -0.2060  1.3032  0.2621
32564SOL     OW 9669   0.275   8.019   1.948  0.5439 -0.1419 -0.5992
32564SOL    HW1 9670   0.305   8.084   1.885 -0.6494  1.7349  0.6854
32564SOL    HW2 9671   0.334   8.028   2.023  0.2693 -0.4153 -0.3417
32565SOL     OW 9672   7.419   0.029   5.585  0.9009  0.4013  0.0645
32565SOL    HW1 9673   7.413   0.120   5.557  2.0428 -0.1876 -2.3900
32565SOL    HW2 9674   7.389   0.029   5.676  0.5514  3.1419  0.0165
32566SOL     OW 9675   8.910   2.772   9.893 -0.3745 -0.2692 -0.3448
32566SOL    HW1 9676   8.922   2.845   9.953 -0.4278 -0.4089 -0.1622
32566SOL    HW2 9677   8.854   2.711   9.941  1.5377 -1.5053  0.4291
32567SOL     OW 9678   6.501   8.289   0.430 -0.6738 -0.7496 -0.0410
32567SOL    HW1 9679   6.526   8.243   0.510  0.4257 -0.2697 -0.0874
32567SOL    HW2 9680   6.581   8.334   0.403 -1.0444 -0.8439 -1.3646
32568SOL     OW 9681   6.696   8.798   4.402 -0.0820 -0.2822 -0.2063
32568SOL    HW1 9682   6.632   8.852   4.356  0.8935 -0.3933 -1.7463
32568SOL    HW2 9683   6.693   8.830   4.492  0.2144  2.1543 -0.9830
32569SOL     OW 9684   3.292   0.663   2.433  0.5696  0.0222  0.2057
32569SOL    HW1 9685   3.267   0.639   2.522  0.5059  0.2002  0.2369
32569SOL    HW2 9686   3.247   0.746   2.417 -0.8157 -0.8558 -0.6113
32570SOL     OW 9687   7.523   9.930   0.388 -0.2344 -0.7334  0.2297
32570SOL    HW1 9688   7.467  10.001   0.419 -1.1373 -1.8228  1.1954
32570SOL    HW2 9689   7.514   9.861   0.454 -0.3082 -2.2011 -1.2301
32571SOL     OW 9690   6.974   4.555   7.525 -0.3383 -0.3784 -0.2730
32571SOL    HW1 9691   6.960   4.633   7.579 -1.3388 -0.3711 -0.5218
32571SOL    HW2 9692   6.902   4.497   7.549  1.2589 -1.9137  1.0768
32572SOL     OW 9693   5.197   6.715   8.740 -0.6735  0.1867  0.1336
32572SOL    HW1 9694   5.206   6.664   8.821  1.0241  2.8999  1.8138
32572SOL    HW2 9695   5.249   6.794   8.756 -0.3681  0.9024 -3.6045
32573SOL     OW 9696   5.377   0.408   3.417  0.0212  0.4255  0.4192
32573SOL    HW1 9697   5.335   0.440   3.497 -0.6393 -1.9752  1.0961
32573SOL    HW2 9698   5.338   0.460   3.347 -2.5663 -0.2521  1.2537
32574SOL     OW 9699   6.467   5.041   7.322  0.0530  0.0244 -0.5624
32574SOL    HW1 9700   6.535   5.058   7.386  0.3139  2.6764 -1.4143
32574SOL    HW2 9701   6.513   5.004   7.247  0.6017  1.6315 -1.0629
32575SOL     OW 9702   2.377   1.636   4.921 -0.3417 -0.0275  0.0329
32575SOL    HW1 9703   2.404   1.688   4.845  0.9393 -2.5315 -1.3649
32575SOL    HW2 9704   2.434   1.666   4.992 -2.2577  3.0863  0.4233
32576SOL     OW 9705   9.769   2.190   2.582  0.3899 -0.7084 -0.0776
32576SOL    HW1 9706   9.772   2.147   2.667  0.4566 -0.7076 -0.0802
32576SOL    HW2 9707   9.823   2.268   2.592 -0.3246 -0.2340  0.1515
32577SOL     OW 9708   9.955   6.125   8.197 -0.0184 -0.1931  0.5211
32577SOL    HW1 9709   9.989   6.215   8.202 -0.6644  0.2086 -1.2704
32577SOL    HW2 9710   9.962   6.103   8.104 -2.3708 -0.9709  0.4727
32578SOL     OW 9711   4.378   1.490   9.077 -0.2060 -0.4036  0.3865
32578SOL    HW1 9712   4.308   1.485   9.012 -0.0515  0.0310  0.1862
32578SOL    HW2 9713   4.419   1.404   9.074 -0.0375 -0.3025 -0.2721
32579SOL     OW 9714   5.967   0.735   9.580  0.4560  0.0297 -0.5597
32579SOL    HW1 9715   5.931   0.647   9.567  1.2711 -0.6228  1.2543
32579SOL    HW2 9716   5.913   0.792   9.525  0.1436 -1.6378 -2.0586
32580SOL     OW 9717  10.162   7.443   4.069 -0.3062  0.5278 -0.5131
32580SOL    HW1 9718  10.219   7.380   4.025 -0.2086  1.3624 -1.6320
32580SOL    HW2 9719  10.222   7.508   4.105 -0.5062  2.0584 -2.7071
32581SOL     OW 9720   4.535   0.294   4.685  0.5478 -0.2712  0.1674
32581SOL    HW1 9721   4.492   0.259   4.606 -0.2095  2.2090 -0.6331
32581SOL    HW2 9722   4.629   0.282   4.668  0.3831 -0.1059 -0.9672
32582SOL     OW 9723   6.644   9.851   0.565 -0.2486  0.1991  0.1272
32582SOL    HW1 9724   6.654   9.777   0.626 -1.1885 -0.6871 -0.7550
32582SOL    HW2 9725   6.604   9.920   0.618 -2.4907 -1.0623  0.2204
32583SOL     OW 9726   1.054   5.121   3.431 -0.8422 -0.2290 -0.0979
32583SOL    HW1 9727   1.129   5.065   3.451 -1.3451 -1.3564 -1.1879
32583SOL    HW2 9728   1.051   5.185   3.502  3.3707  2.2484 -1.7743
32584SOL     OW 9729   6.958   0.064   2.008  0.3918  0.0414 -0.5917
32584SOL    HW1 9730   6.950   0.156   2.032  2.1464  0.2305 -0.6524
32584SOL    HW2 9731   6.925   0.017   2.085 -0.9607  0.6769 -0.7377
32585SOL     OW 9732   1.574   1.791   9.996 -0.3229 -0.1473  0.1903
32585SOL    HW1 9733   1.664   1.761   9.988 -0.1651  0.6163 -1.0071
32585SOL    HW2 9734   1.578   1.886   9.987 -1.1192  0.0281  1.3651
32586SOL     OW 9735   5.153   9.059   8.278 -0.3839 -0.3006  0.6047
32586SOL    HW1 9736   5.246   9.078   8.268 -0.6028  0.2593 -0.5091
32586SOL    HW2 9737   5.138   8.981   8.224 -0.8659  0.6129 -0.6547
32587SOL     OW 9738   9.973   9.782   8.881 -0.5603  0.3514 -0.7131
32587SOL    HW1 9739   9.961   9.850   8.814 -0.7986  0.3535 -0.6675
32587SOL    HW2 9740   9.895   9.727   8.874 -0.4727  0.2127 -0.5970
32588SOL     OW 9741   7.861   7.795   9.991 -0.9319 -0.7654  0.7185
32588SOL    HW1 9742   7.936   7.845  10.022  0.0737 -2.4403  1.0969
32588SOL    HW2 9743   7.801   7.794  10.065 -0.5594 -0.8811  1.0200
32589SOL     OW 9744   8.083   9.722   3.240  0.6442  0.4617  0.0003
32589SOL    HW1 9745   8.051   9.687   3.156  0.5663  3.1008 -1.1784
32589SOL    HW2 9746   8.013   9.780   3.270  0.8752 -0.0816  1.6958
32590SOL     OW 9747   3.600   0.366   3.698  0.3851  0.2916 -0.0229
32590SOL    HW1 9748   3.666   0.296   3.705 -0.4733 -0.6434 -0.9532
32590SOL    HW2 9749   3.522   0.322   3.664 -0.9317  1.2642  1.5975
32591SOL     OW 9750   6.881   1.460   4.961 -0.5813 -0.3043 -0.2795
32591SOL    HW1 9751   6.841   1.403   5.026 -0.7858  0.4630  0.2791
32591SOL    HW2 9752   6.831   1.444   4.881 -1.1108 -0.3634  0.0617
32592SOL     OW 9753   8.160   8.586   9.106  0.5796 -0.3999  0.0910
32592SOL    HW1 9754   8.123   8.587   9.018 -0.2128 -1.8975  0.3584
32592SOL    HW2 9755   8.234   8.526   9.101  1.3917  0.5840  0.1451
32593SOL     OW 9756   9.019   1.355   8.971  0.4550 -0.0846  0.0683
32593SOL    HW1 9757   9.042   1.313   9.053  1.7957  0.3972 -0.0197
32593SOL    HW2 9758   8.926   1.337   8.959  0.6585 -1.7639  0.7368
32594SOL     OW 9759   2.745   2.588   8.739  0.0361  0.5974 -0.6822
32594SOL    HW1 9760   2.654   2.604   8.716 -0.5939 -1.0139  0.5253
32594SOL    HW2 9761   2.771   2.513   8.685  0.2573  0.2693 -0.1251
32595SOL     OW 9762   1.421   8.187   3.940 -0.6657  0.6077  0.6838
32595SOL    HW1 9763   1.416   8.136   4.021 -1.1933  1.4477  1.1873
32595SOL    HW2 9764   1.461   8.127   3.877  4.1178  1.2878  2.6651
32596SOL     OW 9765   1.915   8.138   7.950 -0.1407 -0.8498  0.4137
32596SOL    HW1 9766   1.930   8.144   7.856  0.0106  0.9919  0.5137
32596SOL    HW2 9767   1.838   8.083   7.959 -2.5111  1.9620 -1.0656
32597SOL     OW 9768   9.302   6.818   1.149  0.4679  0.4946  0.1319
32597SOL    HW1 9769   9.330   6.769   1.227 -0.4946  1.2892  1.0143
32597SOL    HW2 9770   9.298   6.909   1.179 -2.0634  0.5568 -0.1628
32598SOL     OW 9771   9.840   2.559   4.083 -0.1148  0.3437 -0.3782
32598SOL    HW1 9772   9.903   2.506   4.035 -0.4217 -0.6183  0.2617
32598SOL    HW2 9773   9.769   2.574   4.021 -0.6222 -1.0956 -0.1777
32599SOL     OW 9774   0.167   7.819   6.113 -0.0769  0.2154  0.2689
32599SOL    HW1 9775   0.215   7.867   6.044 -1.3008 -0.2044 -0.9138
32599SOL    HW2 9776   0.208   7.733   6.115 -1.0083 -0.2839 -1.0362
32600SOL     OW 9777   9.663   8.288   6.041 -0.4287  0.2937 -0.1547
32600SOL    HW1 9778   9.577   8.303   6.080 -0.6314  1.0616 -0.8728
32600SOL    HW2 9779   9.683   8.197   6.061 -1.0256  0.3525  0.7576
32601SOL     OW 9780   2.068   5.473   5.165 -0.3228 -0.1734  0.2490
32601SOL    HW1 9781   2.140   5.536   5.167  0.3378 -0.7929 -1.9308
32601SOL    HW2 9782   2.032   5.476   5.254  0.8439  1.9034  0.7228
32602SOL     OW 9783   7.848   3.434   7.296  0.5667 -0.0963 -0.3452
32602SOL    HW1 9784   7.845   3.417   7.202  2.0009 -0.3448 -0.3661
32602SOL    HW2 9785   7.869   3.528   7.302  0.0422  0.0183 -0.2648
32603SOL     OW 9786   9.655   2.472   3.444 -0.2308  0.2966  0.3094
32603SOL    HW1 9787   9.615   2.555   3.419 -2.4746 -1.0704 -0.9754
32603SOL    HW2 9788   9.662   2.423   3.362  1.1389 -0.7658  1.0176
32604SOL     OW 9789   0.381   4.260   9.496 -0.2674  0.0895 -0.0297
32604SOL    HW1 9790   0.341   4.329   9.444  1.0167  0.1154 -1.0219
32604SOL    HW2 9791   0.377   4.182   9.441 -1.3482 -0.5696  0.9280
32605SOL     OW 9792   4.684   5.241   5.090  0.5018  0.1313 -0.1323
32605SOL    HW1 9793   4.682   5.204   5.002  0.0756  1.3632 -0.6616
32605SOL    HW2 9794   4.738   5.319   5.082  0.0373  0.5414  0.5842
32606SOL     OW 9795   3.836   1.580   9.858  0.2162 -0.5896 -0.5525
32606SOL    HW1 9796   3.846   1.652   9.920 -0.0745 -0.0391 -1.1359
32606SOL    HW2 9797   3.747   1.590   9.823  0.7750 -0.1898 -1.9186
32607SOL     OW 9798   1.236  10.170   5.726 -0.0758  0.4369 -0.1773
32607SOL    HW1 9799   1.169  10.183   5.794  1.1943  0.1866  1.1789
32607SOL    HW2 9800   1.251  10.075   5.726 -0.0462  0.4361 -0.8099
32608SOL     OW 9801   1.828   6.443   9.410  0.0491  0.6626 -0.0386
32608SOL    HW1 9802   1.754   6.462   9.466 -0.2521  1.9020 -0.8198
32608SOL    HW2 9803   1.824   6.509   9.340  0.2953 -0.9051 -1.6240
32609SOL     OW 9804   6.976   9.638   0.621 -0.1625  0.0234 -0.3140
32609SOL    HW1 9805   6.947   9.568   0.563 -0.5124 -0.0619 -0.0391
32609SOL    HW2 9806   7.051   9.602   0.667 -0.4979 -0.2717  0.0153
32610SOL     OW 9807   2.028   7.872   8.750 -0.2887 -0.2731 -0.2445
32610SOL    HW1 9808   1.987   7.907   8.829  0.8273  0.4246  0.0581
32610SOL    HW2 9809   1.978   7.794   8.729 -0.6966 -0.3929  1.0815
32611SOL     OW 9810   6.564   0.488  10.109 -0.3824  0.5141  0.3659
32611SOL    HW1 9811   6.492   0.550  10.126  1.1370  2.4186  0.1480
32611SOL    HW2 9812   6.637   0.523  10.159  1.3080  0.4649 -1.9364
32612SOL     OW 9813   6.451   6.660   9.275 -0.6983  0.1346  0.3073
32612SOL    HW1 9814   6.500   6.579   9.264  2.2789  1.7716  0.5717
32612SOL    HW2 9815   6.442   6.669   9.370 -0.5578  0.3591  0.3000
32613SOL     OW 9816   7.274   7.114   8.605 -0.1574  0.5174  0.3010
32613SOL    HW1 9817   7.216   7.161   8.664  0.2265  0.4903  0.7024
32613SOL    HW2 9818   7.246   7.141   8.517 -1.4247 -0.2387  0.4452
32614SOL     OW 9819   3.012   0.587   6.060  0.1959  0.3158  0.5475
32614SOL    HW1 9820   2.982   0.517   6.003 -0.0391  0.8300  0.0298
32614SOL    HW2 9821   3.107   0.589   6.047  0.0180  1.2444 -0.7933
32615SOL     OW 9822  10.109   9.680   3.034  0.1759 -0.1507  0.4041
32615SOL    HW1 9823  10.088   9.769   3.005  0.3552  0.7482  2.8087
32615SOL    HW2 9824  10.197   9.664   2.999 -0.7263 -0.3117 -1.9331
32616SOL     OW 9825   4.253   8.897   8.048  0.0818 -0.1014 -0.4660
32616SOL    HW1 9826   4.164   8.926   8.067  0.2920 -0.1778  0.7606
32616SOL    HW2 9827   4.308   8.973   8.068  0.3831 -0.4204 -0.0531
32617SOL     OW 9828   7.281   8.852   5.608 -0.1470 -0.0613 -0.4336
32617SOL    HW1 9829   7.236   8.769   5.592  0.0690 -0.1262 -0.7216
32617SOL    HW2 9830   7.211   8.916   5.616 -0.3969 -0.4995  1.2449
32618SOL     OW 9831   4.777   7.431   9.824 -0.1702  0.4299 -0.9452
32618SOL    HW1 9832   4.700   7.375   9.832 -0.0259 -0.0898 -2.7935
32618SOL    HW2 9833   4.744   7.510   9.781  0.1740  0.5604 -0.9667
32619SOL     OW 9834   7.228   8.004   3.137 -0.1018  0.0568 -0.1925
32619SOL    HW1 9835   7.223   7.966   3.225 -2.5647  1.3920  0.3646
32619SOL    HW2 9836   7.320   8.024   3.124  0.3610 -0.4048  2.0031
32620SOL     OW 9837   7.013   8.705   1.020 -0.2644  0.6684 -0.0555
32620SOL    HW1 9838   7.104   8.735   1.011 -0.5135  1.5589  0.3293
32620SOL    HW2 9839   6.963   8.784   1.040 -1.3601  0.4323 -1.6899
32621SOL     OW 9840   4.958   2.713   3.587 -0.3848 -0.0215 -0.0937
32621SOL    HW1 9841   4.967   2.665   3.504  1.1429 -1.3470  0.7840
32621SOL    HW2 9842   4.975   2.804   3.564  2.2167 -0.6330 -0.9472
32622SOL     OW 9843   1.051   2.464   6.934 -0.1991  0.6559  0.3903
32622SOL    HW1 9844   0.964   2.426   6.936 -0.1517  0.5011 -0.4241
32622SOL    HW2 9845   1.108   2.392   6.906  0.2194  0.7083  1.0733
32623SOL     OW 9846   1.333   1.541   0.002 -0.7123 -0.0921  0.1137
32623SOL    HW1 9847   1.255   1.594   0.018 -0.3702  1.1325 -1.8778
32623SOL    HW2 9848   1.376   1.584  -0.073  1.3091 -1.3349  0.4772
32624SOL     OW 9849   5.055   1.577   9.766 -0.0453 -0.4767  0.2171
32624SOL    HW1 9850   4.978   1.522   9.754  0.0320 -0.5564  0.0791
32624SOL    HW2 9851   5.041   1.650   9.705  0.8393 -1.4053 -1.1463
32625SOL     OW 9852   5.711   8.739   6.168 -0.1467 -0.0141 -0.0470
32625SOL    HW1 9853   5.739   8.830   6.178 -0.2161 -0.0336  0.3439
32625SOL    HW2 9854   5.783   8.697   6.120  0.6333 -0.1245  1.1702
32626SOL     OW 9855   0.329   8.902   9.657  0.0051  0.0981 -0.1838
32626SOL    HW1 9856   0.242   8.865   9.647  0.8247 -1.9217 -0.2906
32626SOL    HW2 9857   0.368   8.854   9.729  1.3936  0.2388 -0.8055
32627SOL     OW 9858   7.800   4.388   8.801  0.4121  0.0359  0.0983
32627SOL    HW1 9859   7.883   4.352   8.770  0.9323  1.1808  0.0767
32627SOL    HW2 9860   7.739   4.374   8.729  0.8640  0.1045 -0.3040
32628SOL     OW 9861  10.316   5.409   2.927  0.6063 -0.2791  0.0265
32628SOL    HW1 9862  10.409   5.389   2.937  0.6537  0.1780  0.5701
32628SOL    HW2 9863  10.279   5.390   3.013  0.0415 -1.2399 -0.4193
32629SOL     OW 9864   7.448   1.946   3.591  0.1689  0.2559  0.6127
32629SOL    HW1 9865   7.369   2.000   3.589 -0.5118 -0.7525 -1.3578
32629SOL    HW2 9866   7.417   1.856   3.584  1.4710 -0.1854  0.2363
32630SOL     OW 9867   1.870  10.140   1.303 -0.1643  0.0853 -0.9340
32630SOL    HW1 9868   1.846  10.190   1.381  0.7646  0.1115 -0.6445
32630SOL    HW2 9869   1.885  10.051   1.336  0.6918  0.1997 -0.9785
32631SOL     OW 9870   5.361   8.779   5.540 -0.2780  0.5653 -0.5887
32631SOL    HW1 9871   5.439   8.827   5.566 -0.0363 -0.1765  0.0985
32631SOL    HW2 9872   5.394   8.702   5.493 -0.2649 -2.0304  3.2281
32632SOL     OW 9873   4.733   0.944   4.669 -0.2852 -0.0204  0.1075
32632SOL    HW1 9874   4.767   1.029   4.697 -0.7929  0.1282  0.2842
32632SOL    HW2 9875   4.688   0.910   4.746 -0.6379 -0.1569 -0.1551
32633SOL     OW 9876   6.330   5.087   2.351 -0.4313 -0.3308 -0.1291
32633SOL    HW1 9877   6.299   5.000   2.380 -2.1126 -0.3699 -1.8781
32633SOL    HW2 9878   6.408   5.068   2.300  0.4765 -0.5812  1.2938
32634SOL     OW 9879   1.424   4.152   6.561 -0.7086 -0.0347 -0.3668
32634SOL    HW1 9880   1.510   4.125   6.528  0.3708  0.3272  1.9360
32634SOL    HW2 9881   1.432   4.246   6.575 -2.1067  0.3250 -1.7265
32635SOL     OW 9882   4.699   6.651   2.959 -0.3638 -0.2238 -0.0350
32635SOL    HW1 9883   4.703   6.650   2.864 -2.3471 -0.0602 -0.1515
32635SOL    HW2 9884   4.680   6.560   2.983 -0.0844 -0.2233  0.1946
32636SOL     OW 9885   2.108  10.355   9.167 -0.0975 -0.1583 -0.1197
32636SOL    HW1 9886   2.073  10.444   9.161  0.4220 -0.0309 -1.6483
32636SOL    HW2 9887   2.047  10.310   9.225 -0.0810  1.3115  1.1175
32637SOL     OW 9888  10.098   1.062   5.039 -0.3681  0.0750 -0.2778
32637SOL    HW1 9889  10.011   1.078   5.000 -0.1231 -0.0713 -0.8876
32637SOL    HW2 9890  10.141   1.002   4.979 -0.2772 -0.7966  0.6366
32638SOL     OW 9891   8.815   0.579   9.573  0.0543  0.5295 -0.4593
32638SOL    HW1 9892   8.792   0.671   9.586 -1.0348  0.3085 -0.7247
32638SOL    HW2 9893   8.780   0.535   9.650  0.8603  0.3672 -0.1726
32639SOL     OW 9894   2.606   3.787   7.695 -0.0767 -1.0161  0.2952
32639SOL    HW1 9895   2.657   3.868   7.693 -0.5257 -0.7403 -0.1404
32639SOL    HW2 9896   2.527   3.809   7.746 -0.6142 -0.9275 -0.5573
32640SOL     OW 9897   1.404   6.623   1.793  0.1705 -0.8220  0.4163
32640SOL    HW1 9898   1.468   6.695   1.794 -0.7431  0.1980 -2.5504
32640SOL    HW2 9899   1.319   6.667   1.786 -0.3565 -2.0715 -2.4881
32641SOL     OW 9900   7.680   1.278   4.803  0.1647  0.1052  0.0119
32641SOL    HW1 9901   7.737   1.353   4.787  0.1014  0.2562  0.4746
32641SOL    HW2 9902   7.628   1.303   4.880 -1.0959  0.2947 -0.8737
32642SOL     OW 9903   4.679   6.592   7.662  0.3138  0.5077  0.0907
32642SOL    HW1 9904   4.587   6.608   7.644  0.5588 -0.0154 -1.8673
32642SOL    HW2 9905   4.688   6.496   7.657  0.5368  0.2826  2.8103
32643SOL     OW 9906   3.129   9.491   8.667 -0.1230 -0.1976  0.1772
32643SOL    HW1 9907   3.110   9.417   8.725  1.2798 -0.3072  0.5354
32643SOL    HW2 9908   3.120   9.568   8.723  1.5335 -0.3211  0.6756
32644SOL     OW 9909   9.705   6.748   6.163  0.2282 -0.2252  0.1235
32644SOL    HW1 9910   9.637   6.780   6.222 -0.5465 -0.0864 -0.8102
32644SOL    HW2 9911   9.683   6.788   6.078  1.6378  0.0429 -0.1346
32645SOL     OW 9912   0.672   4.260   2.604 -0.2239  0.2639 -0.3176
32645SOL    HW1 9913   0.637   4.282   2.517 -1.3300  0.0218  0.0471
32645SOL    HW2 9914   0.745   4.320   2.616 -0.4183  0.6934 -1.1840
32646SOL     OW 9915   7.453   0.670   5.154  0.4442 -0.1015 -0.0529
32646SOL    HW1 9916   7.452   0.647   5.061 -1.2563 -0.1834 -0.0476
32646SOL    HW2 9917   7.514   0.744   5.160 -1.2006  1.4983 -1.6778
32647SOL     OW 9918   5.460   0.256   8.748 -0.6483 -0.1034  0.0404
32647SOL    HW1 9919   5.462   0.340   8.702 -0.0981  1.0003  1.9742
32647SOL    HW2 9920   5.523   0.266   8.819 -1.0732 -1.9340  0.7253
32648SOL     OW 9921   8.935   9.282   3.351 -0.1555  0.0781 -0.5648
32648SOL    HW1 9922   8.863   9.286   3.413 -0.6624  1.6659 -1.1875
32648SOL    HW2 9923   9.004   9.234   3.396 -1.7694 -1.9624 -0.1608
32649SOL     OW 9924   7.582   4.871   3.442  0.0649  0.7691  0.0808
32649SOL    HW1 9925   7.584   4.967   3.444 -0.5205  0.7806  0.4087
32649SOL    HW2 9926   7.511   4.848   3.501  1.2327  0.0645  1.2504
32650SOL     OW 9927   8.898   2.026   6.050  0.2418 -0.1944  0.2631
32650SOL    HW1 9928   8.971   2.086   6.067  0.0373  0.1489 -0.0504
32650SOL    HW2 9929   8.863   2.055   5.966  1.4575 -2.0607 -0.9669
32651SOL     OW 9930   9.837   7.498   5.117  0.0889 -0.9360  0.1003
32651SOL    HW1 9931   9.807   7.588   5.102  0.4639 -0.6661  0.9131
32651SOL    HW2 9932   9.909   7.507   5.179  1.3657 -1.6441 -1.2147
32652SOL     OW 9933   8.114   5.355   9.863 -0.1763 -0.3996  0.6538
32652SOL    HW1 9934   8.162   5.434   9.891 -0.2672  1.1916 -3.1309
32652SOL    HW2 9935   8.181   5.288   9.853  0.4903  0.2899  0.4032
32653SOL     OW 9936   6.534   5.539   5.821  0.2640 -0.1446 -0.3177
32653SOL    HW1 9937   6.490   5.488   5.753  0.9384  0.3544 -1.1515
32653SOL    HW2 9938   6.522   5.630   5.795  0.0476  0.0886  0.5495
32654SOL     OW 9939   8.409   9.984   9.778  0.1731  0.4785  0.4228
32654SOL    HW1 9940   8.447  10.032   9.852 -0.6195  1.6102  0.1135
32654SOL    HW2 9941   8.314   9.995   9.788  0.0677  1.3623 -1.2136
32655SOL     OW 9942   6.130   6.030   0.725  0.1812 -0.0749  0.1438
32655SOL    HW1 9943   6.223   6.019   0.748 -0.1353 -0.8062  1.1568
32655SOL    HW2 9944   6.083   6.004   0.804 -0.8664  1.6537  0.1311
32656SOL     OW 9945   4.029  10.043   6.899  0.0730  0.0560  0.4005
32656SOL    HW1 9946   4.110  10.074   6.859  0.2539  0.6743  1.2013
32656SOL    HW2 9947   3.970  10.119   6.894  0.1959  0.2472  1.5247
32657SOL     OW 9948   7.304   5.084   0.874 -0.7288  0.2580  0.0403
32657SOL    HW1 9949   7.360   5.160   0.886 -0.7684 -0.1420  4.2902
32657SOL    HW2 9950   7.365   5.012   0.858 -0.3382  0.4785  0.5068
32658SOL     OW 9951   2.833   2.853   0.631  0.0936 -0.7182  0.1626
32658SOL    HW1 9952   2.780   2.792   0.682 -0.6157 -0.3891 -0.1694
32658SOL    HW2 9953   2.891   2.797   0.580  1.4167 -1.0467  1.9295
32659SOL     OW 9954   9.986   5.145  10.236  0.5578 -0.7356  0.2341
32659SOL    HW1 9955   9.942   5.077  10.185  1.2818 -1.7182  0.8896
32659SOL    HW2 9956   9.917   5.181  10.291  0.4223 -1.8227  0.7964
32660SOL     OW 9957   7.700   9.391   4.375  0.1204  0.3342  0.2994
32660SOL    HW1 9958   7.707   9.313   4.430  1.4480  0.3105  0.1431
32660SOL    HW2 9959   7.754   9.456   4.418  1.2959  0.2753 -0.9974
32661SOL     OW 9960   4.336   9.197   3.303 -0.7683  0.3097  0.2035
32661SOL    HW1 9961   4.409   9.192   3.242 -2.4818  0.5388 -1.9892
32661SOL    HW2 9962   4.354   9.128   3.367  0.6898 -0.5505 -1.0462
32662SOL     OW 9963   2.490   8.251   3.950  0.3921  0.3083  0.1907
32662SOL    HW1 9964   2.575   8.295   3.955  0.3411  0.6305 -1.2678
32662SOL    HW2 9965   2.510   8.164   3.916  0.1082  0.6065 -0.7949
32663SOL     OW 9966   9.125   9.860   8.473 -0.1536 -0.3788 -0.4478
32663SOL    HW1 9967   9.103   9.802   8.546  0.3971 -0.0698 -0.0298
32663SOL    HW2 9968   9.212   9.832   8.446  0.1849  0.3345 -0.1440
32664SOL     OW 9969   0.035   6.774   9.764 -0.2259 -0.2130 -0.6633
32664SOL    HW1 9970   0.079   6.738   9.687  0.6748 -0.1271 -0.2013
32664SOL    HW2 9971   0.001   6.859   9.735  0.3088 -0.0804 -0.8995
32665SOL     OW 9972   3.856   5.540   8.109 -0.2478  0.3010 -1.2230
32665SOL    HW1 9973   3.780   5.593   8.134 -1.1338 -1.0369 -0.9883
32665SOL    HW2 9974   3.825   5.485   8.038 -0.4936 -2.4787  0.8568
32666SOL     OW 9975   0.509   6.283   3.117  0.0062 -0.3869  0.2265
32666SOL    HW1 9976   0.419   6.293   3.088 -0.1012 -1.8409 -0.0391
32666SOL    HW2 9977   0.562   6.302   3.040 -0.1864 -1.8607 -0.2976
32667SOL     OW 9978   3.043  10.165   0.375 -0.6018  0.0268 -0.4580
32667SOL    HW1 9979   3.038  10.197   0.284 -1.1300  1.0381 -0.0852
32667SOL    HW2 9980   3.132  10.129   0.382 -0.4070  0.3258 -1.2577
32668SOL     OW 9981   1.988   3.874   9.654 -0.4088  0.5085 -0.1181
32668SOL    HW1 9982   1.991   3.798   9.597 -1.3525  0.8314 -0.6226
32668SOL    HW2 9983   2.053   3.857   9.721  0.6464  0.0626 -1.2256
32669SOL     OW 9984   6.347   9.678   7.290 -0.6567 -0.5007  0.1258
32669SOL    HW1 9985   6.339   9.759   7.340 -1.3899 -1.1879  1.1926
32669SOL    HW2 9986   6.395   9.702   7.211  0.9567  0.5525  1.3710
32670SOL     OW 9987   4.046   1.073   1.086 -0.2612  0.2528 -0.3704
32670SOL    HW1 9988   4.126   1.066   1.138  0.4106  1.6743 -1.1609
32670SOL    HW2 9989   3.980   1.025   1.136  0.9010 -0.2834  0.6739
32671SOL     OW 9990   8.194   3.494   7.726 -0.2437 -0.4181  0.3524
32671SOL    HW1 9991   8.182   3.485   7.631 -0.5623  0.1668  0.3327
32671SOL    HW2 9992   8.282   3.460   7.742 -0.5674 -1.4613 -0.0106
32672SOL     OW 9993   3.848   3.543   4.308  0.0915 -0.4246 -0.4279
32672SOL    HW1 9994   3.807   3.540   4.395  1.3349  1.9424  0.3442
32672SOL    HW2 9995   3.940   3.524   4.324  0.3905  0.3519 -1.1627
32673SOL     OW 9996   1.819   8.785   2.974  0.0635  0.0123 -0.0731
32673SOL    HW1 9997   1.810   8.799   2.880  1.0335 -2.1949 -0.5393
32673SOL    HW2 9998   1.752   8.843   3.013 -0.7452  0.5340 -2.1177
32674SOL     OW 9999   9.866   7.733   4.304 -0.2186 -0.0430 -0.1607
32674SOL    HW110000   9.780   7.709   4.338 -0.7630  2.0388  0.1089
32674SOL    HW210001   9.894   7.805   4.360  1.8766 -0.8937 -0.0341
32675SOL     OW10002   9.617   6.361   3.817 -0.3571 -0.6113  0.9751
32675SOL    HW110003   9.658   6.424   3.876 -2.0339 -0.0622  1.6046
32675SOL    HW210004   9.534   6.338   3.859 -1.6174 -0.2188 -1.1244
32676SOL     OW10005   1.711   9.334   6.785  0.7233  0.1876 -0.0041
32676SOL    HW110006   1.718   9.290   6.870  1.0401  2.7024  1.3555
32676SOL    HW210007   1.779   9.293   6.731 -0.5274 -2.5583  0.3439
32677SOL     OW10008   5.579   4.423   6.295 -0.7766 -0.2478  0.1736
32677SOL    HW110009   5.598   4.463   6.210 -1.8972  0.9771  0.4555
32677SOL    HW210010   5.499   4.373   6.280 -1.8075  1.1300  0.7808
32678SOL     OW10011  10.111   1.046   2.250 -0.5125  0.8021 -0.4677
32678SOL    HW110012  10.020   1.045   2.281 -0.0299 -0.7086  1.0401
32678SOL    HW210013  10.113   0.982   2.178 -0.6450  0.8379 -0.5027
32679SOL     OW10014   1.018  10.189   9.985 -0.1397 -0.7235 -0.1701
32679SOL    HW110015   0.961  10.253   9.943  1.3030  0.8500  0.1175
32679SOL    HW210016   1.061  10.143   9.912  1.6479  1.3385 -0.5121
32680SOL     OW10017   4.962   9.100   1.959  0.3254  0.3691  0.3117
32680SOL    HW110018   5.045   9.148   1.954  0.5404  0.3219  2.4584
32680SOL    HW210019   4.938   9.104   2.052 -0.3073 -2.5507  0.3672
32681SOL     OW10020   9.252   2.025   8.557  0.5084 -0.3747 -0.0237
32681SOL    HW110021   9.299   1.951   8.518 -0.3672 -0.9804  0.0500
32681SOL    HW210022   9.317   2.096   8.560  1.5831 -1.3628  0.6200
32682SOL     OW10023   4.886   4.055   5.543  0.5426  0.1065  0.3313
32682SOL    HW110024   4.914   4.048   5.634 -0.1525 -0.0476  0.5451
32682SOL    HW210025   4.822   4.126   5.543  0.3195 -0.0881  0.0286
32683SOL     OW10026   2.685   7.865   4.719 -0.3137  0.1235 -0.3331
32683SOL    HW110027   2.673   7.866   4.624  0.1825  2.4699 -0.4317
32683SOL    HW210028   2.750   7.796   4.735 -0.7972 -0.6501 -1.6242
32684SOL     OW10029   5.641   7.896   0.695 -0.2744 -0.4639 -0.6464
32684SOL    HW110030   5.710   7.836   0.723 -0.0281 -0.1022 -0.4830
32684SOL    HW210031   5.622   7.948   0.772 -1.1576 -0.9661 -0.5088
32685SOL     OW10032   7.634   4.989   9.933  0.2812 -0.2042 -0.4531
32685SOL    HW110033   7.579   4.923   9.976  0.7727 -0.7673 -0.6716
32685SOL    HW210034   7.621   4.974   9.840  0.5676 -0.1349 -0.5059
32686SOL     OW10035   0.576   7.486   2.136 -0.2705  0.2375  0.0708
32686SOL    HW110036   0.603   7.482   2.228  1.2472  0.3774 -0.3331
32686SOL    HW210037   0.658   7.497   2.088 -1.1804  2.1357 -1.1814
32687SOL     OW10038   0.852   1.486   3.640 -0.0102  0.5798  0.2153
32687SOL    HW110039   0.771   1.464   3.594  1.3542 -1.5642 -1.3716
32687SOL    HW210040   0.894   1.551   3.584  0.3969 -0.0191 -0.1890
32688SOL     OW10041   0.585   8.937   0.594 -0.1513  0.1244  0.0717
32688SOL    HW110042   0.560   8.955   0.503 -2.1971 -0.0355  0.5664
32688SOL    HW210043   0.523   8.987   0.647 -0.4104 -1.5113  1.3851
32689SOL     OW10044   8.815   4.450   8.207 -0.7895 -0.0760 -0.2342
32689SOL    HW110045   8.890   4.402   8.242 -0.1268  0.5241 -0.8060
32689SOL    HW210046   8.781   4.499   8.282  0.3882  0.9025 -0.3066
32690SOL     OW10047  10.348   8.280   8.096 -0.5516 -0.2868 -0.7252
32690SOL    HW110048  10.286   8.217   8.133 -0.5245  0.4278  0.6117
32690SOL    HW210049  10.399   8.311   8.171 -0.0466  0.7484 -1.4590
32691SOL     OW10050   5.725   0.442  10.207  0.3816  0.6264  0.2731
32691SOL    HW110051   5.737   0.384  10.282 -0.8513  1.3443  1.0654
32691SOL    HW210052   5.797   0.421  10.148  1.1584 -0.2272  1.4876
32692SOL     OW10053   3.150   3.784   3.287 -0.2393 -0.7523  0.8911
32692SOL    HW110054   3.102   3.712   3.245 -1.1766  0.9919 -1.1817
32692SOL    HW210055   3.242   3.762   3.272 -0.5167 -1.3999  0.0407
32693SOL     OW10056   6.763   5.380   3.231 -0.3128  0.1015  0.1527
32693SOL    HW110057   6.789   5.310   3.292  0.1634  0.6309  0.5669
32693SOL    HW210058   6.673   5.358   3.207 -1.1823  0.7892  2.4262
32694SOL     OW10059   0.085   0.034   7.047  0.5744  0.0404 -0.6591
32694SOL    HW110060   0.020   0.055   6.980  0.5234  1.1065 -0.2947
32694SOL    HW210061   0.059   0.085   7.123  1.9939  0.7417 -0.6040
32695SOL     OW10062   1.547   0.782   4.308  0.3224  0.1522  0.0907
32695SOL    HW110063   1.605   0.708   4.288  0.4786  0.0107  1.0509
32695SOL    HW210064   1.602   0.859   4.297  0.5546  0.0458  0.4998
32696SOL     OW10065   0.378   4.484   7.781 -0.3703  0.4716 -0.2803
32696SOL    HW110066   0.381   4.575   7.753 -0.1305  0.7462  0.6174
32696SOL    HW210067   0.384   4.487   7.876  0.5883 -0.5240 -0.2825
32697SOL     OW10068   9.646   5.420   7.479  0.1058 -0.5811  0.1350
32697SOL    HW110069   9.621   5.364   7.405 -0.7583  0.5470 -0.4674
32697SOL    HW210070   9.626   5.367   7.556  0.9892 -1.7717 -0.4144
32698SOL     OW10071   2.351   0.088   6.970  0.6364  0.0990  0.7182
32698SOL    HW110072   2.415   0.020   6.990  0.4871 -0.4296 -0.5123
32698SOL    HW210073   2.381   0.165   7.019  3.3805  0.4975 -1.3732
32699SOL     OW10074   1.630   5.535   8.984 -0.0846 -0.2430  0.0988
32699SOL    HW110075   1.607   5.454   8.938  0.7589 -0.2237 -0.3746
32699SOL    HW210076   1.583   5.603   8.936  0.0509 -0.3309 -0.1621
32700SOL     OW10077   4.075   9.853   5.147  0.4618 -0.6640  0.4917
32700SOL    HW110078   4.085   9.933   5.199 -0.4869  0.9309 -1.6510
32700SOL    HW210079   4.158   9.844   5.101 -0.2367  0.5503 -1.1181
32701SOL     OW10080   5.631   6.774   3.215  0.4954  0.7278  0.2219
32701SOL    HW110081   5.540   6.785   3.188  0.7745  0.0391 -1.0536
32701SOL    HW210082   5.625   6.729   3.300 -0.3365  0.6620  0.1422
32702SOL     OW10083   5.910   5.331   6.186 -0.1372 -0.3089 -0.3382
32702SOL    HW110084   5.876   5.408   6.233 -1.8244 -0.9668 -0.4010
32702SOL    HW210085   5.873   5.338   6.098 -1.7158 -2.0033  0.1230
32703SOL     OW10086   4.205   8.310   0.924 -0.0708 -0.4656  0.0238
32703SOL    HW110087   4.229   8.271   1.008  0.8999 -2.3381 -1.0543
32703SOL    HW210088   4.109   8.311   0.925 -0.1391  2.4497  2.3506
32704SOL     OW10089   3.148   0.013   7.386  0.1783  0.5551  0.3442
32704SOL    HW110090   3.082  -0.047   7.420 -0.8056  1.8843  0.8873
32704SOL    HW210091   3.230  -0.015   7.427 -0.6690  1.0089  2.4888
32705SOL     OW10092   9.908   0.802   6.542 -0.4765  0.1119  0.5243
32705SOL    HW110093   9.908   0.872   6.477  0.1455  0.4394  0.8676
32705SOL    HW210094  10.001   0.783   6.557 -0.6348 -0.9501  0.2611
32706SOL     OW10095   3.349   4.491   0.627 -0.8440 -0.2849  0.5938
32706SOL    HW110096   3.268   4.524   0.666 -0.2128 -0.9868  2.6022
32706SOL    HW210097   3.330   4.399   0.608 -0.6407 -0.3465  0.6891
32707SOL     OW10098   3.095   9.869   6.330  0.1328  0.3518 -0.1871
32707SOL    HW110099   3.122   9.778   6.319  1.1918  0.5145  0.8249
32707SOL    HW210100   3.064   9.895   6.243  1.1487 -0.5571 -0.8555
32708SOL     OW10101   2.134   7.065   8.830 -0.2156  0.4474  0.3022
32708SOL    HW110102   2.154   7.004   8.758 -1.1822  1.2861 -0.7112
32708SOL    HW210103   2.205   7.129   8.827 -1.5443  1.9701 -1.6532
32709SOL     OW10104   5.331   1.304   8.825  0.5899  0.5616  0.2221
32709SOL    HW110105   5.289   1.385   8.796  1.5412  0.9804  0.0084
32709SOL    HW210106   5.327   1.247   8.748  2.2738  1.3437 -0.4752
32710SOL     OW10107   9.413   4.804   3.070  0.4019 -0.5689  0.1641
32710SOL    HW110108   9.318   4.792   3.067  0.3015  0.3739 -0.8998
32710SOL    HW210109   9.446   4.724   3.112 -0.9486 -0.3932  1.6602
32711SOL     OW10110   0.551   0.262   7.040  0.2761 -0.5356  0.8512
32711SOL    HW110111   0.515   0.343   7.075  1.3139 -0.7984  2.6487
32711SOL    HW210112   0.477   0.220   6.995 -0.0264  1.8328 -1.0427
32712SOL     OW10113   5.032   4.907   9.214 -0.0564 -0.8243  0.5395
32712SOL    HW110114   4.945   4.927   9.180  0.5870 -1.5530 -1.7000
32712SOL    HW210115   5.033   4.812   9.221  1.2687 -1.0384 -1.7052
32713SOL     OW10116   6.026   2.777   1.505  0.3635  0.3168 -0.4377
32713SOL    HW110117   6.022   2.806   1.414 -0.4631  0.1766 -0.4492
32713SOL    HW210118   5.955   2.825   1.549 -0.0762 -0.5783 -0.1477
32714SOL     OW10119   3.599   3.978   8.801  0.4563 -0.1622 -0.1870
32714SOL    HW110120   3.544   3.904   8.777  0.4826 -0.2207 -0.0647
32714SOL    HW210121   3.548   4.026   8.866  0.2750  0.1387 -0.5484
32715SOL     OW10122   9.422   6.698   6.184  0.1577  0.3255  0.3156
32715SOL    HW110123   9.363   6.628   6.210 -0.1762  0.2949 -0.4785
32715SOL    HW210124   9.425   6.757   6.259 -0.0960 -0.1918  0.7316
32716SOL     OW10125   9.015   9.911   0.017 -0.3779 -0.4442 -0.3910
32716SOL    HW110126   8.935   9.950   0.051 -0.8953 -1.4562 -0.4214
32716SOL    HW210127   9.054   9.866   0.092  0.6191  0.7274 -0.1647
32717SOL     OW10128   0.464   3.836   3.424  0.3415  0.4492 -0.2945
32717SOL    HW110129   0.536   3.786   3.386 -0.5743 -0.0862 -1.4095
32717SOL    HW210130   0.476   3.827   3.519  1.3245 -0.2301 -0.4676
32718SOL     OW10131   0.039   1.945   3.449  0.0804  0.4402  0.2638
32718SOL    HW110132  -0.031   2.010   3.452 -0.1897  0.1608  0.0718
32718SOL    HW210133   0.110   1.988   3.400  0.7072  1.3464  1.9082
32719SOL     OW10134   5.425   2.653   1.263  0.3200  0.3749  0.1939
32719SOL    HW110135   5.434   2.557   1.266  2.7314  0.5262  0.4873
32719SOL    HW210136   5.422   2.680   1.354 -0.5152  0.5928  0.1109
32720SOL     OW10137   1.123   4.183   7.826  0.3767  0.2291 -0.0336
32720SOL    HW110138   1.087   4.114   7.882 -0.8948  1.1239  0.3090
32720SOL    HW210139   1.054   4.249   7.822  1.1831  1.0515 -1.1367
32721SOL     OW10140   6.130   3.907   1.878  0.9582 -0.4801  0.2222
32721SOL    HW110141   6.073   3.960   1.934  1.2810 -0.3309  0.4140
32721SOL    HW210142   6.075   3.884   1.803 -0.0403 -2.1387  1.3897
32722SOL     OW10143   9.418   1.966   2.922 -0.4547 -0.3845 -0.0848
32722SOL    HW110144   9.341   1.961   2.866  0.7370  0.9365 -1.9822
32722SOL    HW210145   9.413   2.053   2.961 -0.1498 -0.4523  0.1062
32723SOL     OW10146   9.506   4.531   4.053 -0.2023 -0.2083  0.1954
32723SOL    HW110147   9.450   4.485   4.115  0.1640 -1.3993 -0.3266
32723SOL    HW210148   9.594   4.495   4.069  0.2183  0.7764  0.1979
32724SOL     OW10149   7.022   6.543   1.041 -0.7517  0.5550 -0.1762
32724SOL    HW110150   7.016   6.620   0.984 -0.0051  1.8006  1.3397
32724SOL    HW210151   7.114   6.518   1.038 -0.9930 -0.3033 -0.6604
32725SOL     OW10152   2.724   6.865   2.168  0.0997  0.0681 -0.1246
32725SOL    HW110153   2.699   6.924   2.239 -0.5282  0.5470 -0.7246
32725SOL    HW210154   2.776   6.797   2.210 -0.7686  0.0142  0.8934
32726SOL     OW10155   3.829   8.433   1.282  0.2638 -0.3065 -0.2112
32726SOL    HW110156   3.799   8.343   1.294  2.0575 -0.8287  0.8523
32726SOL    HW210157   3.827   8.447   1.187 -0.3597 -1.3451 -0.3622
32727SOL     OW10158   6.502   5.239   3.207  0.1511 -0.0901 -0.1044
32727SOL    HW110159   6.418   5.248   3.162  0.1849 -2.4172 -0.7777
32727SOL    HW210160   6.485   5.178   3.278  1.2378 -0.5324 -0.2028
32728SOL     OW10161   3.750   4.886   9.641  0.1304 -0.6925  0.5646
32728SOL    HW110162   3.694   4.808   9.637 -2.2566  0.8165  2.0239
32728SOL    HW210163   3.752   4.909   9.734  1.8852  0.2835  0.3345
32729SOL     OW10164   4.524   8.612   2.980  0.5078 -0.1580  0.5671
32729SOL    HW110165   4.500   8.693   2.936 -0.1884 -0.3726  0.5411
32729SOL    HW210166   4.478   8.615   3.064 -1.5108 -1.5976 -0.3990
32730SOL     OW10167   2.034   6.888   2.276  0.4688 -0.1823  0.3838
32730SOL    HW110168   2.110   6.830   2.276  0.6575  0.0462  1.1619
32730SOL    HW210169   2.043   6.939   2.357  0.9033  1.7462 -0.8141
32731SOL     OW10170   0.724   3.053   4.875  0.2208  0.3929 -0.1769
32731SOL    HW110171   0.725   2.957   4.877 -0.6251  0.3835  0.5230
32731SOL    HW210172   0.813   3.077   4.850 -0.0179 -0.6040 -2.1934
32732SOL     OW10173   0.731   7.887   3.017  0.6525 -0.2746 -0.8634
32732SOL    HW110174   0.649   7.886   3.067 -0.3228  2.5884 -2.2149
32732SOL    HW210175   0.796   7.922   3.077 -0.3047  2.2574 -1.2015
32733SOL     OW10176   9.883   9.715   7.967  0.3946  0.2466 -0.0206
32733SOL    HW110177   9.920   9.802   7.954 -2.4353  1.5893 -0.0078
32733SOL    HW210178   9.881   9.704   8.062 -2.5865  1.9139  0.2322
32734SOL     OW10179   7.500   2.622   4.539  0.2034 -0.1548  0.0448
32734SOL    HW110180   7.513   2.643   4.447  0.4866  2.0995  0.5392
32734SOL    HW210181   7.428   2.679   4.567 -0.5263 -1.4958  0.9991
32735SOL     OW10182   9.868  10.229  10.310  0.1745  0.3293  0.1141
32735SOL    HW110183   9.880  10.197  10.399 -1.6614  0.4790  0.4631
32735SOL    HW210184   9.831  10.154  10.263  0.0065  0.6049 -0.1991
32736SOL     OW10185   3.076   9.705   4.203  0.0089  0.1390 -0.8132
32736SOL    HW110186   3.104   9.617   4.176  0.2552 -0.5735  1.5148
32736SOL    HW210187   3.119   9.719   4.287  0.9406  3.0208 -1.6285
32737SOL     OW10188   9.769   3.582   4.826 -0.0257 -0.2422 -0.0619
32737SOL    HW110189   9.836   3.516   4.806 -1.3714 -1.7168  0.0756
32737SOL    HW210190   9.753   3.571   4.920 -0.8075 -0.2689 -0.1939
32738SOL     OW10191   6.222  10.007   7.061  0.1103 -0.5478 -0.0354
32738SOL    HW110192   6.306  10.033   7.098  0.7108 -0.3451 -1.4908
32738SOL    HW210193   6.157  10.060   7.107  1.0189  1.1956 -0.7109
32739SOL     OW10194   8.305   2.134   8.245 -0.0495 -0.2325 -0.1902
32739SOL    HW110195   8.290   2.048   8.205  0.1975 -0.3358 -0.0636
32739SOL    HW210196   8.398   2.151   8.231  0.2433 -0.6646  1.0807
32740SOL     OW10197   0.686   7.865   0.896  0.1839 -0.1693 -0.0393
32740SOL    HW110198   0.604   7.859   0.945  0.7392 -0.5645  0.8791
32740SOL    HW210199   0.717   7.774   0.890  1.2012  0.1031  0.7749
32741SOL     OW10200   9.965   0.510   9.143  0.1391 -0.3985  0.1076
32741SOL    HW110201  10.034   0.458   9.101  0.6369 -0.0022  0.4192
32741SOL    HW210202   9.935   0.569   9.074 -0.4843 -1.1376 -0.2710
32742SOL     OW10203   2.152   6.934   4.669  0.0204 -0.2653 -0.2837
32742SOL    HW110204   2.128   6.889   4.589  2.3563 -0.3939 -0.9925
32742SOL    HW210205   2.160   7.026   4.643  0.1526 -0.2053 -0.0348
32743SOL     OW10206   6.783   3.256   1.731 -0.0629 -0.0145  0.5703
32743SOL    HW110207   6.720   3.323   1.758  0.0674  0.9665 -1.3936
32743SOL    HW210208   6.806   3.211   1.812 -3.6105 -0.7518  1.3352
32744SOL     OW10209   6.450   0.881   3.236 -0.2403 -0.2677 -0.0630
32744SOL    HW110210   6.363   0.922   3.236 -0.8470 -1.5082 -0.5285
32744SOL    HW210211   6.432   0.787   3.240  1.0928 -0.5422 -0.0922
32745SOL     OW10212   1.422   8.953   8.273  0.1695  0.3470  0.4956
32745SOL    HW110213   1.476   8.874   8.285 -1.5853 -1.1132 -0.6778
32745SOL    HW210214   1.469   9.004   8.207  1.4791  0.4887  1.4875
32746SOL     OW10215   6.995   2.707   8.754 -0.2163 -0.3903 -0.2217
32746SOL    HW110216   6.965   2.795   8.774  1.5263  0.0843  0.4564
32746SOL    HW210217   6.960   2.688   8.667 -2.9980 -0.1778  0.7544
32747SOL     OW10218   7.051   7.362   7.158 -0.0511  0.6997 -0.6407
32747SOL    HW110219   7.115   7.350   7.228  1.4326 -0.4251 -2.1038
32747SOL    HW210220   6.983   7.417   7.196  0.6153 -0.0149  1.7143
32748SOL     OW10221   2.364   7.990   5.795  0.1639  0.3199  0.0533
32748SOL    HW110222   2.397   7.937   5.867 -1.9129 -0.0767  0.7995
32748SOL    HW210223   2.422   8.066   5.793  0.2041  0.4293  2.2786
32749SOL     OW10224   8.852   7.620   7.707  0.5038  0.4466  0.4072
32749SOL    HW110225   8.862   7.708   7.743  0.3322  1.4730 -1.8726
32749SOL    HW210226   8.937   7.601   7.665  0.2181 -0.0361  0.0287
32750SOL     OW10227   4.914   2.439   8.353 -0.1066 -0.1454  0.0929
32750SOL    HW110228   4.915   2.407   8.263 -1.1273  0.7759 -0.2571
32750SOL    HW210229   4.829   2.481   8.363  0.5430  0.9801  1.0551
32751SOL     OW10230   3.973   0.585   3.633 -0.0881  0.1593  0.3658
32751SOL    HW110231   3.880   0.600   3.617  0.8593  4.3396 -2.9037
32751SOL    HW210232   4.001   0.529   3.560  0.7399  3.5630 -2.1977
32752SOL     OW10233   1.838   7.608   5.191 -0.1313 -0.1120 -0.1292
32752SOL    HW110234   1.810   7.581   5.104  0.5219  0.4312 -0.5156
32752SOL    HW210235   1.756   7.629   5.237 -0.6147 -1.9434 -0.0521
32753SOL     OW10236   7.252  10.320   8.980 -0.3490  0.4818 -0.3757
32753SOL    HW110237   7.160  10.344   8.989 -0.7372 -0.5342 -1.4100
32753SOL    HW210238   7.251  10.226   8.962  1.0370 -0.0236  1.8139
32754SOL     OW10239   7.919   3.122   7.552 -0.6314  0.2207 -0.1124
32754SOL    HW110240   7.975   3.140   7.476  0.2012 -0.7394  0.2564
32754SOL    HW210241   7.849   3.067   7.518 -0.9346  0.7939 -0.4235
32755SOL     OW10242   9.433   2.639   2.239 -0.3886 -0.3198  0.4731
32755SOL    HW110243   9.520   2.677   2.252 -1.1352  1.5615  0.2948
32755SOL    HW210244   9.433   2.610   2.148 -0.4092  1.0332  0.0185
32756SOL     OW10245   6.755   2.666  10.057 -0.7916  0.1636 -0.9490
32756SOL    HW110246   6.705   2.738  10.096 -1.5050 -0.8537  0.1055
32756SOL    HW210247   6.819   2.709  10.000 -1.5952  1.5939 -0.8287
32757SOL     OW10248   1.233   1.383   8.235 -0.3315  0.4177 -0.3589
32757SOL    HW110249   1.199   1.382   8.145 -1.3758 -0.8093  0.0211
32757SOL    HW210250   1.231   1.475   8.260 -0.1550  0.7680 -1.5312
32758SOL     OW10251   0.299  10.326   3.864  0.3285 -0.1295 -0.0500
32758SOL    HW110252   0.251  10.379   3.928  0.8135  2.1599 -1.4384
32758SOL    HW210253   0.231  10.281   3.815 -0.0475 -1.9464  2.0079
32759SOL     OW10254   3.400   8.281   7.779  0.0874  0.1150  0.2022
32759SOL    HW110255   3.418   8.187   7.781 -3.5520 -0.8703 -1.9875
32759SOL    HW210256   3.453   8.314   7.707 -0.0970 -0.7239 -0.3319
32760SOL     OW10257   1.300   4.952   2.297  0.4245  0.1152  0.1473
32760SOL    HW110258   1.208   4.938   2.272  0.9254  0.9495 -2.5366
32760SOL    HW210259   1.307   5.046   2.309  0.7615 -0.0385  1.1957
32761SOL     OW10260  10.227   5.912   0.211  0.1377 -0.6249  0.2049
32761SOL    HW110261  10.209   5.867   0.129  0.0636  1.1316 -0.8018
32761SOL    HW210262  10.308   5.960   0.195  1.0284 -1.5089  1.7378
32762SOL     OW10263   9.235   3.964   4.921  0.2425 -0.0350  0.2163
32762SOL    HW110264   9.153   3.977   4.969  0.6822  0.3909  0.8689
32762SOL    HW210265   9.294   4.030   4.957  0.6310  0.1810 -0.8107
32763SOL     OW10266   1.515   7.096   7.939  0.1349  0.0718  0.3872
32763SOL    HW110267   1.574   7.051   7.879  0.3911  0.9931 -0.0859
32763SOL    HW210268   1.541   7.067   8.026  0.3992 -0.5491  0.1023
32764SOL     OW10269   0.631   4.405   2.382  0.4937 -0.0317  0.4106
32764SOL    HW110270   0.623   4.497   2.407 -0.2036  0.0633 -0.1300
32764SOL    HW210271   0.651   4.408   2.288 -0.7329 -0.4494  0.1208
32765SOL     OW10272   7.040   5.594   4.458  0.1251 -0.2156  0.1709
32765SOL    HW110273   7.012   5.532   4.525 -1.1144 -1.9582 -1.8298
32765SOL    HW210274   7.125   5.560   4.428  0.3013  0.1048  0.2974
32766SOL     OW10275  10.095   9.410  10.056  0.4595  0.4543  0.6418
32766SOL    HW110276  10.166   9.433  10.116  1.2910  0.5770 -0.3452
32766SOL    HW210277  10.101   9.475   9.986 -1.0101  0.8110  0.8156
32767SOL     OW10278   9.192   0.728   4.917  0.5108  0.2483  0.0425
32767SOL    HW110279   9.147   0.705   4.836 -1.0475  0.4562  0.8121
32767SOL    HW210280   9.177   0.822   4.927  2.4288  0.6477 -0.4339
32768SOL     OW10281   3.238   2.825   2.587  0.0125 -0.4646 -0.3128
32768SOL    HW110282   3.251   2.829   2.492  1.3873 -0.1759 -0.1386
32768SOL    HW210283   3.152   2.786   2.598 -0.5613  0.3326 -1.6937
32769SOL     OW10284   2.493   8.203   6.279 -0.1835  0.1910 -0.2645
32769SOL    HW110285   2.582   8.198   6.313 -0.3979  1.9742  0.6636
32769SOL    HW210286   2.443   8.142   6.333  0.5700 -1.4418 -1.3150
32770SOL     OW10287   5.980   4.135   2.069  0.1127  0.2110 -0.2276
32770SOL    HW110288   6.002   4.221   2.034  1.8766  0.0451  0.3258
32770SOL    HW210289   6.037   4.125   2.146  1.2225 -2.1089 -1.2344
32771SOL     OW10290   8.099   8.622   2.602 -0.0253  0.1322 -1.2575
32771SOL    HW110291   8.063   8.701   2.560 -0.8385  0.6485  0.3464
32771SOL    HW210292   8.022   8.570   2.624  0.2722  0.3877  0.5477
32772SOL     OW10293   6.330   6.534   1.417 -0.6940 -0.1107  0.2987
32772SOL    HW110294   6.276   6.574   1.485 -0.5294  0.2066  0.2460
32772SOL    HW210295   6.326   6.440   1.435  2.0853  0.1163  2.8611
32773SOL     OW10296   9.181   0.549   8.634 -0.0311  0.3237 -0.3512
32773SOL    HW110297   9.120   0.614   8.667 -0.5959  0.9166 -2.4052
32773SOL    HW210298   9.130   0.467   8.632  0.6559 -0.2424  2.1524
32774SOL     OW10299   0.513   3.734   9.166 -0.0556 -0.3134 -0.8002
32774SOL    HW110300   0.534   3.654   9.118  0.4441 -0.4307 -0.3894
32774SOL    HW210301   0.593   3.757   9.212 -0.6263 -0.4385  0.3055
32775SOL     OW10302   5.008   2.572   5.706 -0.3497 -0.0026  0.1902
32775SOL    HW110303   5.023   2.654   5.658  1.4791 -0.1157  0.5142
32775SOL    HW210304   5.043   2.504   5.648 -1.4691 -0.5328  0.1119
32776SOL     OW10305   6.944   7.517   6.294  0.3131 -0.4052 -0.6677
32776SOL    HW110306   6.915   7.435   6.255  0.0308 -0.7352  0.2062
32776SOL    HW210307   7.021   7.494   6.346  0.2151 -0.1199 -0.3933
32777SOL     OW10308   3.638  10.053   0.769  0.1263  1.0364  0.2299
32777SOL    HW110309   3.566   9.990   0.766  1.0591 -0.0322 -0.6244
32777SOL    HW210310   3.626  10.108   0.691 -0.3713  1.5934  0.6820
32778SOL     OW10311   5.968   8.391   3.018  0.6876 -0.3627 -0.1692
32778SOL    HW110312   5.927   8.320   2.970  1.2326 -1.5113  1.0090
32778SOL    HW210313   6.056   8.398   2.981  0.9828 -1.0043  0.3891
32779SOL     OW10314   6.449   1.252   6.329 -0.3999  0.4678 -0.4662
32779SOL    HW110315   6.479   1.162   6.334 -2.0915 -0.2190 -1.6676
32779SOL    HW210316   6.508   1.295   6.267 -0.9902 -0.4760 -1.7218
32780SOL     OW10317   1.972   3.238   1.288  0.3044 -0.2893  0.0280
32780SOL    HW110318   1.909   3.259   1.220 -1.1696  0.7236  1.6003
32780SOL    HW210319   1.972   3.316   1.345 -0.1246 -1.8699  2.3143
32781SOL     OW10320   3.253   9.485   9.595  0.3376 -0.2408  0.5804
32781SOL    HW110321   3.207   9.526   9.521  1.8246  0.1165 -0.1950
32781SOL    HW210322   3.277   9.398   9.563 -0.6527 -0.8110  1.3430
32782SOL     OW10323   2.628   5.751   9.062 -0.1981  0.4715  0.0091
32782SOL    HW110324   2.698   5.810   9.091 -0.2284  0.6319 -0.2407
32782SOL    HW210325   2.547   5.794   9.091 -0.2155  0.5108 -0.0962
32783SOL     OW10326   6.541   9.300   8.213  0.0021 -0.4187 -0.7682
32783SOL    HW110327   6.448   9.319   8.220  0.0531 -0.4490  0.0871
32783SOL    HW210328   6.584   9.367   8.266  0.4022 -0.8955 -0.4752
32784SOL     OW10329   2.280   6.759   3.882  0.1359 -0.5068 -0.2911
32784SOL    HW110330   2.250   6.673   3.853 -1.4312 -0.3229  0.6608
32784SOL    HW210331   2.273   6.756   3.977  3.1725 -0.3887  0.0441
32785SOL     OW10332   5.218   9.168   3.303  0.4772  0.0550 -0.2181
32785SOL    HW110333   5.232   9.230   3.375  0.8443 -0.0799 -0.1711
32785SOL    HW210334   5.138   9.121   3.327  0.0469  0.6864 -0.3779
32786SOL     OW10335   9.261   6.785   1.925 -0.0685 -0.1310  0.0943
32786SOL    HW110336   9.214   6.836   1.859  0.7863  0.0911 -0.3595
32786SOL    HW210337   9.194   6.762   1.990 -0.4761  1.6221  0.3580
32787SOL     OW10338   2.543   0.440   2.615  0.1877  0.0549  0.2200
32787SOL    HW110339   2.541   0.474   2.525 -0.4965  0.7957  0.5014
32787SOL    HW210340   2.450   0.432   2.639  0.3499 -1.1831  0.4811
32788SOL     OW10341   7.713   1.340   9.176 -0.1115  0.2948 -0.0118
32788SOL    HW110342   7.752   1.412   9.127 -0.6705 -0.7787 -2.1676
32788SOL    HW210343   7.756   1.262   9.143 -1.1179 -0.5553  0.5978
32789SOL     OW10344  10.298   1.571   8.144  0.0569  0.5432 -0.0385
32789SOL    HW110345  10.262   1.483   8.145  0.4056  0.3989  0.9285
32789SOL    HW210346  10.358   1.572   8.070  0.8678 -0.3830  0.5836
32790SOL     OW10347   9.515   8.459   7.599 -0.7549  0.1227 -0.3698
32790SOL    HW110348   9.491   8.550   7.620  0.8554  0.9292 -1.8342
32790SOL    HW210349   9.599   8.446   7.643 -0.6484 -0.4373 -0.7328
32791SOL     OW10350   6.193   3.603   2.223  0.1859 -0.0247  0.0545
32791SOL    HW110351   6.205   3.632   2.314 -0.9922  1.0350 -0.1030
32791SOL    HW210352   6.130   3.665   2.186 -0.7650 -1.5318 -0.9445
32792SOL     OW10353   2.464   2.703   7.488  0.9040  0.4934  0.0966
32792SOL    HW110354   2.466   2.629   7.549  1.2389  0.6145  0.2404
32792SOL    HW210355   2.385   2.690   7.436  1.0190 -0.0257  0.0467
32793SOL     OW10356   3.168   9.264   2.443 -0.0509  0.7635  0.3850
32793SOL    HW110357   3.253   9.302   2.466  0.3815  0.3918 -0.5606
32793SOL    HW210358   3.175   9.243   2.350 -0.0012 -2.3814  1.0095
32794SOL     OW10359   1.924   0.640   1.016  1.0605 -0.1753  0.1107
32794SOL    HW110360   1.838   0.605   1.042  0.0975  1.3401 -0.8379
32794SOL    HW210361   1.938   0.607   0.928  2.4819 -2.1151  1.0054
32795SOL     OW10362   3.358   6.187   9.778  0.4979  0.0902  0.3845
32795SOL    HW110363   3.396   6.102   9.801  0.0245 -0.0748  0.5801
32795SOL    HW210364   3.273   6.188   9.822 -0.4259 -0.2043 -1.3223
32796SOL     OW10365   1.235   6.451   9.537 -0.3160  0.3892  0.1933
32796SOL    HW110366   1.152   6.408   9.516 -0.4171  1.0797 -0.9141
32796SOL    HW210367   1.210   6.540   9.561  0.0360  0.3384  0.7517
32797SOL     OW10368  10.103   5.251   4.795 -0.2178  0.5841 -0.3361
32797SOL    HW110369  10.044   5.324   4.777  1.1358  1.6763 -0.5462
32797SOL    HW210370  10.174   5.290   4.846  0.4098 -0.6446 -0.2272
32798SOL     OW10371   4.448   0.777   9.997  0.0723 -0.4779 -0.1065
32798SOL    HW110372   4.469   0.794   9.905 -1.5545  1.4225 -0.1764
32798SOL    HW210373   4.501   0.839  10.046  0.4036 -1.0008  0.2032
32799SOL     OW10374   8.791   8.215   9.833  0.6091  0.1578  0.9151
32799SOL    HW110375   8.759   8.267   9.906 -1.4632  2.5269 -1.4557
32799SOL    HW210376   8.715   8.165   9.803  0.4457  1.6316 -1.4179
32800SOL     OW10377   0.572   3.178   5.558 -0.0737  0.2222  0.3877
32800SOL    HW110378   0.494   3.155   5.609 -1.6075  1.1628 -1.3531
32800SOL    HW210379   0.600   3.095   5.518 -1.2490  0.1150 -0.2778
32801SOL     OW10380   3.302   9.532   0.090  0.0071  0.0875  0.1026
32801SOL    HW110381   3.354   9.611   0.076 -1.4073  0.9261 -0.6814
32801SOL    HW210382   3.354   9.462   0.049  1.2844  0.5813  0.8293
32802SOL     OW10383   2.714   4.380   0.052 -0.6105 -0.3730  0.5430
32802SOL    HW110384   2.672   4.296   0.033 -1.1802  0.1875 -0.7483
32802SOL    HW210385   2.709   4.388   0.148 -0.7060 -1.7136  0.6637
32803SOL     OW10386  10.329   1.298   5.871  0.6199 -0.2689  0.1289
32803SOL    HW110387  10.332   1.394   5.871  2.2554 -0.2979  0.2735
32803SOL    HW210388  10.340   1.274   5.963  2.7835 -0.6140 -0.1783
32804SOL     OW10389   2.276   7.150   8.450 -0.2754  0.2355 -0.0586
32804SOL    HW110390   2.271   7.068   8.401 -0.3383  0.3813 -0.2987
32804SOL    HW210391   2.267   7.124   8.542 -1.3877  0.0749 -0.1975
32805SOL     OW10392   7.137   6.798   7.567 -0.2808 -0.5657 -0.0139
32805SOL    HW110393   7.078   6.872   7.583  2.1404  1.3992  0.5268
32805SOL    HW210394   7.114   6.767   7.479 -1.2976  0.9250 -0.2997
32806SOL     OW10395   9.874   6.824   8.319 -0.0874 -0.5900  0.2461
32806SOL    HW110396   9.880   6.729   8.317 -1.4008 -0.6935  0.7172
32806SOL    HW210397   9.862   6.846   8.411  0.4796  0.0559  0.1741
32807SOL     OW10398   6.683   1.239   6.753  0.2404  0.3771 -0.0831
32807SOL    HW110399   6.776   1.218   6.752  0.3736  0.9416 -0.1119
32807SOL    HW210400   6.668   1.279   6.839  0.5328  2.3920 -0.8978
32808SOL     OW10401   0.873   5.716   0.590  0.3003 -0.1403 -0.0413
32808SOL    HW110402   0.811   5.753   0.653 -1.3139 -0.2246 -1.5137
32808SOL    HW210403   0.851   5.622   0.587  0.6152 -0.2026 -0.4551
32809SOL     OW10404   6.792   5.173   9.492 -0.4459 -0.3738 -0.0967
32809SOL    HW110405   6.811   5.186   9.399 -0.9965 -1.5547 -0.3885
32809SOL    HW210406   6.875   5.191   9.536 -0.1048 -0.1002 -0.8358
32810SOL     OW10407   0.757   2.470   3.394 -0.2973 -0.0969  0.2768
32810SOL    HW110408   0.722   2.556   3.417 -0.5642 -0.4248  1.1051
32810SOL    HW210409   0.680   2.418   3.372 -0.1477 -0.1863 -0.0527
32811SOL     OW10410   5.516   1.837   9.847 -0.0397 -0.1364 -0.5012
32811SOL    HW110411   5.540   1.773   9.781 -2.7490 -1.3523 -0.4409
32811SOL    HW210412   5.500   1.918   9.798  2.3847  0.2688 -0.7039
32812SOL     OW10413   2.240   8.261   5.381 -0.0920  0.8433 -0.3015
32812SOL    HW110414   2.252   8.248   5.475  0.4219  0.6853 -0.3860
32812SOL    HW210415   2.189   8.185   5.352  0.7037  0.3112 -0.3410
32813SOL     OW10416   7.787   6.257   6.381  0.2316  0.2102 -0.4819
32813SOL    HW110417   7.752   6.207   6.455  0.8276  0.4843 -0.0099
32813SOL    HW210418   7.710   6.299   6.342 -0.0343  0.4041  0.2384
32814SOL     OW10419   0.099   1.225  10.178  0.2455 -0.4235 -0.0941
32814SOL    HW110420   0.050   1.180  10.109 -1.7483  0.2715  0.7856
32814SOL    HW210421   0.048   1.304  10.195  1.2002 -0.1187  1.5438
32815SOL     OW10422   7.083   0.730   4.579 -0.3815 -0.6252 -0.0163
32815SOL    HW110423   7.142   0.731   4.504  0.9912  1.0486  1.0069
32815SOL    HW210424   7.120   0.664   4.637 -1.0620 -1.4442 -0.4906
32816SOL     OW10425  10.136   3.082   0.097  0.0646 -0.2368 -0.0689
32816SOL    HW110426  10.156   3.039   0.180  1.6168 -0.8767 -0.7305
32816SOL    HW210427  10.104   3.169   0.122 -2.1606 -1.3711  1.2585
32817SOL     OW10428   1.085   3.808   5.542 -0.0765  0.0437 -0.1369
32817SOL    HW110429   1.120   3.894   5.565  0.7984 -0.2060 -0.5325
32817SOL    HW210430   1.066   3.813   5.448 -2.5319  0.6661  0.3247
32818SOL     OW10431   3.910   9.394   8.029 -0.0963  0.2433  0.2308
32818SOL    HW110432   3.949   9.399   8.117 -1.3791  0.8864  0.7971
32818SOL    HW210433   3.962   9.455   7.977  1.1282 -0.6674  0.3336
32819SOL     OW10434   5.295  10.073   7.614  0.1165  0.2410 -0.2993
32819SOL    HW110435   5.291  10.003   7.548  0.0156  0.0707 -0.1151
32819SOL    HW210436   5.216  10.124   7.600 -0.5033 -0.4857  0.4457
32820SOL     OW10437   8.870   6.810   5.748 -0.1563  0.1956  0.3486
32820SOL    HW110438   8.781   6.832   5.719 -0.4698 -0.5274  0.7245
32820SOL    HW210439   8.915   6.782   5.668 -0.4453  0.0237  0.2421
32821SOL     OW10440   7.694   9.052   2.269 -0.1896  0.0964 -0.2675
32821SOL    HW110441   7.734   9.076   2.186  0.9795 -1.5446 -0.2470
32821SOL    HW210442   7.731   9.113   2.333  0.7281 -0.1022 -0.5987
32822SOL     OW10443   0.660   3.980  10.229  0.3826 -0.2349  0.0235
32822SOL    HW110444   0.641   3.938  10.145 -0.9108 -0.9884  0.6565
32822SOL    HW210445   0.591   4.045  10.239 -0.2941 -1.0804  1.0969
32823SOL     OW10446   5.091   0.785   7.775  0.1308  0.1172 -0.1203
32823SOL    HW110447   5.147   0.846   7.824  0.6689  0.9817 -1.7294
32823SOL    HW210448   5.065   0.719   7.840  0.0008  1.7264  1.5586
32824SOL     OW10449   1.892   3.174   9.698  0.2436 -0.1880 -0.8742
32824SOL    HW110450   1.846   3.256   9.678 -0.8414 -1.0986 -2.2508
32824SOL    HW210451   1.970   3.176   9.642 -0.5032 -0.7085 -1.9609
32825SOL     OW10452   7.996   0.732   4.487 -0.2380  0.1463 -0.3644
32825SOL    HW110453   8.006   0.641   4.457  0.8964  0.6746 -1.6771
32825SOL    HW210454   7.926   0.768   4.433 -1.7657 -0.3324  1.1937
32826SOL     OW10455   3.247   7.913   6.914 -0.2472 -0.1725 -0.0443
32826SOL    HW110456   3.245   7.879   7.004 -1.0785 -0.8721 -0.3148
32826SOL    HW210457   3.320   7.867   6.873 -1.1048 -1.3505 -0.2870
32827SOL     OW10458   6.990   2.160   9.913 -0.0379  0.4029  0.2526
32827SOL    HW110459   7.013   2.161   9.820  2.2408  0.9372  0.7578
32827SOL    HW210460   6.897   2.179   9.915  0.1502  1.8488 -1.8649
32828SOL     OW10461   3.410   0.671   0.063 -0.0821  0.0576 -0.8305
32828SOL    HW110462   3.387   0.583   0.093  1.7152 -0.8217 -1.8528
32828SOL    HW210463   3.468   0.705   0.131  0.4769 -0.1831 -1.1826
32829SOL     OW10464   1.485   6.458   8.080 -0.0329 -0.2589  0.2090
32829SOL    HW110465   1.480   6.427   7.990 -2.5799 -2.4913  0.9973
32829SOL    HW210466   1.571   6.427   8.111  1.0173  0.8200 -1.4675
32830SOL     OW10467   0.893   1.045   5.723 -0.0340 -0.4354 -0.7544
32830SOL    HW110468   0.842   0.985   5.778  0.1945 -1.6255 -1.7953
32830SOL    HW210469   0.842   1.126   5.722 -0.2758 -0.5461  0.8051
32831SOL     OW10470   5.764   9.458  10.317 -0.4779  0.3368  0.3463
32831SOL    HW110471   5.789   9.549  10.301 -0.6031  0.6297  1.6993
32831SOL    HW210472   5.671   9.463  10.339 -0.8909 -0.3211 -1.1198
32832SOL     OW10473   1.629   5.308   1.143 -0.1285 -0.0678 -0.4852
32832SOL    HW110474   1.616   5.400   1.163 -0.5115 -0.0801 -0.6673
32832SOL    HW210475   1.716   5.288   1.178 -0.9759 -0.2190  1.6757
32833SOL     OW10476   3.075   4.550   1.666  0.8326 -0.2500  0.7731
32833SOL    HW110477   3.099   4.463   1.698  1.4552 -1.1099 -1.7832
32833SOL    HW210478   3.159   4.592   1.646  0.4856 -0.5971 -1.6484
32834SOL     OW10479   8.314   3.219   6.655  0.3710  0.0116 -0.2934
32834SOL    HW110480   8.252   3.257   6.594  0.3537  0.3201 -0.0834
32834SOL    HW210481   8.360   3.152   6.604 -0.2744 -0.3626 -0.3937
32835SOL     OW10482   5.735   7.355   1.106 -0.2711  0.3726  0.0645
32835SOL    HW110483   5.653   7.308   1.090  0.1795 -0.1415 -0.8373
32835SOL    HW210484   5.803   7.293   1.080  0.3978  0.8397  0.6856
32836SOL     OW10485   1.364   2.535   5.248 -0.5750 -0.1877  0.6101
32836SOL    HW110486   1.313   2.604   5.292 -0.2646  0.7871 -0.4883
32836SOL    HW210487   1.404   2.486   5.319 -1.8055 -0.0215  1.4666
32837SOL     OW10488   4.382   3.720   7.165 -0.2240  0.1411 -0.5073
32837SOL    HW110489   4.473   3.723   7.135  0.8797  0.4723  2.5844
32837SOL    HW210490   4.341   3.656   7.107  1.6654  0.7461 -2.6789
32838SOL     OW10491   9.246   0.310   4.520  0.0628  0.3487 -0.1509
32838SOL    HW110492   9.320   0.251   4.505 -2.3409 -2.7367 -0.8294
32838SOL    HW210493   9.213   0.329   4.432 -1.1228  0.0556  0.2189
32839SOL     OW10494   6.298   7.874   9.805 -0.0153  0.0520  0.4046
32839SOL    HW110495   6.354   7.940   9.765  2.5795 -2.5905 -0.6923
32839SOL    HW210496   6.241   7.846   9.734  0.3189 -0.3205  0.2808
32840SOL     OW10497   4.137   8.508   5.077 -0.2581 -0.2656 -1.1131
32840SOL    HW110498   4.231   8.498   5.096 -0.3295  0.4807 -0.3038
32840SOL    HW210499   4.098   8.425   5.103  0.1807 -0.6002 -1.4991
32841SOL     OW10500   3.754   6.125   4.126  0.2050 -0.3252 -0.3605
32841SOL    HW110501   3.689   6.065   4.090  1.3424 -1.5100 -0.5116
32841SOL    HW210502   3.765   6.097   4.217 -0.1532  0.4544 -0.0727
32842SOL     OW10503   9.932   8.362   8.573 -0.0323 -0.2793  0.0084
32842SOL    HW110504   9.960   8.277   8.539 -0.3935  0.2152 -1.6081
32842SOL    HW210505   9.914   8.345   8.666  0.4294 -1.8276 -0.1441
32843SOL     OW10506   6.996   6.553   4.274  0.1519  0.0028  0.3494
32843SOL    HW110507   6.986   6.543   4.369  0.1047 -2.4145  0.1688
32843SOL    HW210508   7.075   6.605   4.264 -1.0178  2.1751  1.6916
32844SOL     OW10509   5.307   6.617   5.557 -0.5836 -0.3460  0.0625
32844SOL    HW110510   5.231   6.597   5.612 -0.2906 -0.5893  0.3795
32844SOL    HW210511   5.351   6.689   5.601 -1.1810  0.4919 -0.6529
32845SOL     OW10512   4.462   9.901   8.244  0.7828 -0.3816 -0.6519
32845SOL    HW110513   4.460   9.950   8.162  0.9842 -0.1117 -0.4988
32845SOL    HW210514   4.500   9.962   8.307 -3.6305  1.2068  0.8513
32846SOL     OW10515   9.205   6.237   5.896  0.2007 -0.2581  0.2946
32846SOL    HW110516   9.250   6.257   5.979  0.6602 -1.1413  0.2691
32846SOL    HW210517   9.123   6.195   5.924  0.6201 -1.0968  0.3113
32847SOL     OW10518   8.853   4.918   9.884 -0.2668  0.0856 -0.1576
32847SOL    HW110519   8.828   4.905   9.792 -0.2524  2.7601 -0.6361
32847SOL    HW210520   8.777   4.961   9.923  0.2519  0.2427  0.6985
32848SOL     OW10521   9.999   3.473   1.903 -0.1667 -0.2444  0.4697
32848SOL    HW110522   9.993   3.553   1.954  0.5274 -0.4448  0.8790
32848SOL    HW210523  10.089   3.444   1.913 -0.4324 -1.1405  0.4190
32849SOL     OW10524   0.870   8.728   1.413  0.3217 -0.0766 -0.1092
32849SOL    HW110525   0.891   8.821   1.425  1.6865 -0.4075  0.2203
32849SOL    HW210526   0.778   8.721   1.438 -0.3175  1.4984 -1.7839
32850SOL     OW10527   8.073   1.084  10.103  1.0109 -0.5516  0.5795
32850SOL    HW110528   8.071   0.988  10.114  0.8351 -0.5050  0.9694
32850SOL    HW210529   8.155   1.100  10.056  1.2527 -0.8592  0.8867
32851SOL     OW10530   1.628   5.653   9.262  0.4642  0.6112  0.5874
32851SOL    HW110531   1.570   5.613   9.197  0.4191  1.0867  0.3364
32851SOL    HW210532   1.713   5.611   9.247  0.5217  0.9189  0.0395
32852SOL     OW10533   8.384   2.642   8.859  0.2459 -0.5769 -0.2040
32852SOL    HW110534   8.400   2.595   8.941 -0.2455  0.6317  0.6135
32852SOL    HW210535   8.289   2.657   8.859  0.3563  0.1557 -0.5892
32853SOL     OW10536   1.045   3.346   6.836  0.4238 -0.2792 -0.7139
32853SOL    HW110537   0.974   3.311   6.783  1.4064 -0.5096 -1.9245
32853SOL    HW210538   1.104   3.387   6.773  0.7384  1.0457  0.3902
32854SOL     OW10539   4.164   1.674   5.781  0.4604  0.3691  0.6801
32854SOL    HW110540   4.071   1.652   5.775  0.3308  1.0646  0.0980
32854SOL    HW210541   4.208   1.604   5.733  0.1918  0.3623  0.4421
32855SOL     OW10542   8.857   4.557   8.932  0.0732 -0.5729 -0.3931
32855SOL    HW110543   8.775   4.604   8.946  0.3155 -0.2465 -0.0550
32855SOL    HW210544   8.924   4.626   8.928  0.2432 -0.7732 -1.4172
32856SOL     OW10545   9.939   9.579   2.107  0.2925  0.6097 -0.4583
32856SOL    HW110546   9.962   9.658   2.058 -1.0538 -0.9209 -3.8575
32856SOL    HW210547   9.844   9.584   2.117  0.3744  0.1095  0.6760
32857SOL     OW10548   1.947   9.518  10.279  0.2376  0.7169  0.4066
32857SOL    HW110549   1.895   9.487  10.204 -0.5901  0.9180  0.8803
32857SOL    HW210550   1.945   9.445  10.341  1.2665  0.3926  0.0794
32858SOL     OW10551   7.520   8.193   8.055  0.2488 -0.4298  0.3849
32858SOL    HW110552   7.457   8.146   8.109  0.1274  0.1231  0.7350
32858SOL    HW210553   7.590   8.130   8.039 -0.7307 -1.2977 -0.6510
32859SOL     OW10554   0.563   5.808   3.464  0.1609 -0.2304 -0.0263
32859SOL    HW110555   0.615   5.786   3.541  0.2669 -0.3727 -0.1368
32859SOL    HW210556   0.596   5.892   3.435 -1.5862  1.0872  1.5716
32860SOL     OW10557   9.309   1.573   3.037  0.6410 -0.1654 -0.7676
32860SOL    HW110558   9.393   1.567   3.081  1.3551 -0.0978 -2.0720
32860SOL    HW210559   9.330   1.603   2.948 -0.8712  1.0652 -0.7548
32861SOL     OW10560   5.056   2.602   3.316 -0.2558  0.0350 -0.1455
32861SOL    HW110561   4.996   2.620   3.243  0.2113 -1.3304 -0.8919
32861SOL    HW210562   5.058   2.507   3.322  0.8895  0.0988  0.6844
32862SOL     OW10563   6.707   1.764   0.172 -0.6598  0.0025  0.6124
32862SOL    HW110564   6.716   1.770   0.077 -0.4197  0.4279  0.6606
32862SOL    HW210565   6.724   1.853   0.204  2.0385 -0.6798  1.2900
32863SOL     OW10566   7.812   5.092   0.763 -0.2380  0.1990  0.2274
32863SOL    HW110567   7.750   5.073   0.834  0.8201 -0.2973  1.0417
32863SOL    HW210568   7.756   5.115   0.689 -1.3744  0.6904  1.1952
32864SOL     OW10569   2.701   6.328   5.458  0.4804  0.3394 -0.0547
32864SOL    HW110570   2.724   6.236   5.445 -1.8864 -0.5310  1.3067
32864SOL    HW210571   2.785   6.373   5.464  1.7525 -2.0200  1.0436
32865SOL     OW10572   0.248   7.462   9.380  0.3637 -0.4270  0.3909
32865SOL    HW110573   0.256   7.367   9.389  2.3168 -0.2518  0.9706
32865SOL    HW210574   0.231   7.494   9.469  0.2822 -0.1815  0.2885
32866SOL     OW10575   8.601   6.029   0.511  0.0465  0.0965 -0.0564
32866SOL    HW110576   8.685   6.028   0.465  0.6462  2.7105  0.8029
32866SOL    HW210577   8.542   6.077   0.453  0.3732  1.9967  1.0960
32867SOL     OW10578   8.425   1.485   3.541  0.0646 -0.0657 -0.3200
32867SOL    HW110579   8.425   1.569   3.496 -1.0105 -0.0184 -0.2434
32867SOL    HW210580   8.492   1.494   3.609  1.2617  0.0786 -1.4687
32868SOL     OW10581   8.003  10.342   1.163 -0.1498  0.3543 -0.0167
32868SOL    HW110582   8.015  10.433   1.190  1.1616 -0.0705  0.9594
32868SOL    HW210583   8.046  10.291   1.232 -1.8505 -1.0790  0.0511
32869SOL     OW10584   3.868   5.163   2.256 -0.0026  0.7675 -0.3079
32869SOL    HW110585   3.916   5.236   2.218  0.1143  0.6544 -0.3760
32869SOL    HW210586   3.813   5.131   2.185 -1.6046  2.0794  0.2414
32870SOL     OW10587   9.121   2.491   1.494  0.9017  0.2756 -0.6664
32870SOL    HW110588   9.055   2.553   1.466  0.8730  0.5973  0.0781
32870SOL    HW210589   9.182   2.542   1.547  1.4626 -0.1188 -0.9218
32871SOL     OW10590   1.481   2.220   7.850 -0.0120  0.3861 -0.3735
32871SOL    HW110591   1.486   2.289   7.916  0.6198 -0.3818  0.4090
32871SOL    HW210592   1.470   2.139   7.900  1.7570 -0.3601 -1.1034
32872SOL     OW10593   8.815   2.829   3.371  0.3292  0.4351  0.0058
32872SOL    HW110594   8.840   2.921   3.364  0.8372  0.5041  2.1777
32872SOL    HW210595   8.865   2.796   3.445 -2.2511 -0.7509  1.3307
32873SOL     OW10596   7.145   9.335   1.234 -0.7516 -0.5952 -0.1878
32873SOL    HW110597   7.153   9.242   1.213  2.4990 -0.0226 -2.2196
32873SOL    HW210598   7.168   9.341   1.327 -1.4608 -1.8191  0.0936
32874SOL     OW10599   0.302   3.387   3.722  0.7402  0.4659  0.3802
32874SOL    HW110600   0.379   3.429   3.686  0.6510  0.5250  0.2578
32874SOL    HW210601   0.237   3.390   3.651  0.3115  1.2553  0.7950
32875SOL     OW10602   4.423   0.744   7.152  0.1319  0.0587 -0.3106
32875SOL    HW110603   4.436   0.724   7.060 -1.5189  0.0688 -0.5709
32875SOL    HW210604   4.363   0.818   7.153 -0.5387 -0.4705  0.7709
32876SOL     OW10605   6.162   6.602   7.587  0.0769  0.3999 -0.3443
32876SOL    HW110606   6.095   6.580   7.523  1.4186 -0.0334 -1.6463
32876SOL    HW210607   6.211   6.521   7.600 -0.5406  0.2949  1.7548
32877SOL     OW10608   3.149   0.371   0.630 -0.1969  0.3349  0.0579
32877SOL    HW110609   3.117   0.435   0.565  1.6522  0.6395 -0.6131
32877SOL    HW210610   3.155   0.421   0.711  1.3059  1.0993 -0.4783
32878SOL     OW10611   4.586   1.610   6.492 -0.1082  0.1622  0.1127
32878SOL    HW110612   4.559   1.519   6.503  1.3795 -0.2926  0.1332
32878SOL    HW210613   4.607   1.618   6.399 -0.7421  0.6439  0.0006
32879SOL     OW10614   4.370   1.102   7.516  0.0919 -0.0999 -0.8177
32879SOL    HW110615   4.281   1.067   7.521  0.4652 -0.9905  0.2073
32879SOL    HW210616   4.420   1.033   7.472  0.5555 -0.2670 -0.0588
32880SOL     OW10617   7.604   4.061   1.352 -0.0169 -0.0897  0.3605
32880SOL    HW110618   7.698   4.049   1.337  0.0917  0.9537  0.1647
32880SOL    HW210619   7.581   4.137   1.300 -0.7090  0.4320  1.3931
32881SOL     OW10620   5.164   2.623   2.307 -0.3234 -0.1137 -0.3571
32881SOL    HW110621   5.086   2.620   2.361 -0.5357 -0.7287 -0.6888
32881SOL    HW210622   5.227   2.566   2.351 -0.4196 -0.4384 -0.6371
32882SOL     OW10623   9.488   7.943   0.685  0.5252  0.3887  0.5298
32882SOL    HW110624   9.450   7.883   0.749 -0.4181  2.6075  2.1817
32882SOL    HW210625   9.420   8.008   0.669  2.4903  2.8109  1.2620
32883SOL     OW10626   1.596   2.346   3.815 -0.6652 -0.1128  0.3604
32883SOL    HW110627   1.529   2.351   3.883 -0.7933 -0.2771  0.2468
32883SOL    HW210628   1.562   2.401   3.744 -0.7423 -0.3048  0.2490
32884SOL     OW10629   3.953  10.338   3.689  0.4919  0.2602 -0.2759
32884SOL    HW110630   3.992  10.373   3.609 -0.4361  1.3453 -0.2660
32884SOL    HW210631   3.883  10.281   3.658 -0.0934  0.9524 -0.2396
32885SOL     OW10632   9.995   2.501   0.089 -0.0178 -0.0607 -0.1896
32885SOL    HW110633   9.948   2.470   0.166  0.6522  0.9549  0.6404
32885SOL    HW210634   9.942   2.574   0.057  0.6201  0.6256  0.3250
32886SOL     OW10635   9.254   9.554   6.671 -0.2541 -0.0542 -0.2779
32886SOL    HW110636   9.254   9.622   6.603 -0.1454  1.4895  1.1885
32886SOL    HW210637   9.174   9.571   6.721  1.4295  1.2612  2.1838
32887SOL     OW10638   4.764   7.451   1.577 -0.3635 -0.3133  0.6269
32887SOL    HW110639   4.678   7.492   1.590 -1.0325 -1.2132 -0.6704
32887SOL    HW210640   4.807   7.458   1.662 -1.9834 -0.4179  1.5005
32888SOL     OW10641  10.140   5.961   8.650 -0.1604  0.3859 -0.2494
32888SOL    HW110642  10.114   5.977   8.559 -1.0899 -0.4173 -0.1458
32888SOL    HW210643  10.057   5.956   8.698  0.2114 -1.4010  0.2695
32889SOL     OW10644   9.959   6.426   3.225  0.0703 -0.0694 -0.5514
32889SOL    HW110645   9.940   6.443   3.317 -1.3703  1.3270 -1.0611
32889SOL    HW210646   9.873   6.419   3.183  0.6819  0.5195 -1.9781
32890SOL     OW10647   5.158   8.699   7.623 -0.3192  0.7805  0.3135
32890SOL    HW110648   5.072   8.740   7.625 -0.6170  0.2389 -1.0279
32890SOL    HW210649   5.161   8.650   7.542  1.3584  0.9940  0.1908
32891SOL     OW10650   4.132   9.608   8.160 -0.1080  0.5585  0.0498
32891SOL    HW110651   4.080   9.543   8.209 -1.9631  2.4121  0.6889
32891SOL    HW210652   4.217   9.609   8.205 -0.3257 -0.7750  0.5635
32892SOL     OW10653   0.865   2.279   4.864 -0.0705 -0.2270 -0.2431
32892SOL    HW110654   0.779   2.237   4.867 -0.0591 -0.2060  0.7903
32892SOL    HW210655   0.927   2.205   4.864 -0.0775 -0.2338 -0.0868
32893SOL     OW10656  10.155   6.763   7.703 -0.2205 -0.4690 -0.5094
32893SOL    HW110657  10.208   6.756   7.623 -0.9641  0.4240 -1.0995
32893SOL    HW210658  10.086   6.825   7.681 -0.3840 -0.1254  0.8724
32894SOL     OW10659   9.388   5.907   2.161 -0.1468 -0.9713  0.2130
32894SOL    HW110660   9.350   5.978   2.214 -1.3520 -2.7704  1.9353
32894SOL    HW210661   9.468   5.884   2.207 -0.1055 -1.1551  0.0457
32895SOL     OW10662   8.952   0.857   7.045  0.2935 -0.0212 -0.5128
32895SOL    HW110663   8.888   0.793   7.074 -0.3272 -0.9598 -3.5639
32895SOL    HW210664   8.937   0.934   7.100 -1.2464 -1.3227  0.9631
32896SOL     OW10665   4.198   6.895   3.785  0.3660 -0.8120  0.6597
32896SOL    HW110666   4.290   6.883   3.764  0.9085  1.6712  1.2268
32896SOL    HW210667   4.198   6.950   3.864 -1.4630  2.4482 -1.3361
32897SOL     OW10668   9.731   5.743   4.322  0.5425 -0.6704  0.1083
32897SOL    HW110669   9.656   5.803   4.325  1.2300  0.2636 -0.6431
32897SOL    HW210670   9.696   5.664   4.281 -0.2076 -0.5102  0.4196
32898SOL     OW10671   0.126   2.142   0.772 -0.1657 -0.3645  0.1107
32898SOL    HW110672   0.047   2.173   0.815 -0.1786 -1.1628  0.6690
32898SOL    HW210673   0.197   2.192   0.812 -0.3331  0.0158 -0.0620
32899SOL     OW10674   2.425   7.805   7.165  0.5357  0.1585  0.4578
32899SOL    HW110675   2.370   7.806   7.086  1.0876 -1.0843  0.0437
32899SOL    HW210676   2.497   7.864   7.144  0.0788  0.7450  0.4917
32900SOL     OW10677   1.699   5.852   6.521  0.1490 -0.1339 -0.0329
32900SOL    HW110678   1.718   5.778   6.463  1.1087 -0.1489  0.2779
32900SOL    HW210679   1.614   5.884   6.492  1.2752  0.8752 -2.5066
32901SOL     OW10680   0.375   5.330   7.025 -0.6442  1.2469  0.5001
32901SOL    HW110681   0.468   5.337   7.045 -0.4865 -0.0078  0.2909
32901SOL    HW210682   0.332   5.328   7.110 -0.5455  2.4130  0.5921
32902SOL     OW10683   5.320   1.892   8.523 -0.4255 -0.3365  0.1400
32902SOL    HW110684   5.229   1.889   8.553 -0.6104 -2.3378 -0.4584
32902SOL    HW210685   5.354   1.976   8.556 -2.6804  0.7991 -0.2836
32903SOL     OW10686   2.893   0.072   1.560  0.4249  0.0871  0.0980
32903SOL    HW110687   2.864   0.062   1.469  0.0345  0.5081  0.1733
32903SOL    HW210688   2.826   0.027   1.612 -1.4434  3.0054  0.4591
32904SOL     OW10689   2.652   0.388   5.155 -0.0883  0.0368 -0.8810
32904SOL    HW110690   2.589   0.322   5.127 -0.3775  0.4935 -1.3012
32904SOL    HW210691   2.619   0.418   5.240 -0.5136  0.3707 -1.1608
32905SOL     OW10692   5.097   4.484   7.639 -0.1034  0.3327  0.1645
32905SOL    HW110693   5.157   4.518   7.572 -1.1362  0.4148 -0.7349
32905SOL    HW210694   5.097   4.389   7.626  1.1342  0.1398  1.2969
32906SOL     OW10695   8.568   7.419   6.617 -0.3725  0.0764 -0.2001
32906SOL    HW110696   8.558   7.346   6.679  0.5771 -0.5412 -0.7406
32906SOL    HW210697   8.663   7.426   6.605 -0.4507  1.4853 -0.0764
32907SOL     OW10698   8.276   9.805   5.266 -1.0245 -0.5502 -0.0476
32907SOL    HW110699   8.333   9.834   5.195 -1.5924 -0.1427 -0.3442
32907SOL    HW210700   8.304   9.716   5.285 -1.1394 -0.8138 -1.0741
32908SOL     OW10701   8.244   9.428   6.412 -0.2773  0.0105 -0.3579
32908SOL    HW110702   8.280   9.400   6.496  2.0309 -1.1392 -1.6261
32908SOL    HW210703   8.214   9.517   6.427  1.5483  0.4086  1.3093
32909SOL     OW10704   0.968   1.264   7.718 -0.5215  0.3798  0.6679
32909SOL    HW110705   0.942   1.268   7.626 -1.9969 -2.2802  0.8446
32909SOL    HW210706   0.887   1.283   7.767 -0.6129 -1.4534  1.3205
32910SOL     OW10707   8.521   1.874   5.983  0.6829  0.1212 -0.2426
32910SOL    HW110708   8.607   1.833   5.993  0.7536  0.7829  2.7048
32910SOL    HW210709   8.487   1.837   5.901  2.4253 -2.6071  0.1164
32911SOL     OW10710   8.732   9.660   6.593  0.1245  0.1867  0.7050
32911SOL    HW110711   8.788   9.583   6.582  1.2002  0.9267  0.8761
32911SOL    HW210712   8.791   9.735   6.582 -1.2229  1.0471 -1.2868
32912SOL     OW10713   1.905   5.926   0.980  0.1741 -0.4837  0.3089
32912SOL    HW110714   1.919   5.999   0.920  0.3180 -0.4273  0.4086
32912SOL    HW210715   1.937   5.958   1.064 -0.7927 -0.2643  0.6040
32913SOL     OW10716   4.501   9.239   8.353  0.0964 -0.4822  0.8714
32913SOL    HW110717   4.543   9.300   8.292 -0.4640 -0.3120  0.6489
32913SOL    HW210718   4.441   9.294   8.404 -0.7837 -0.9194  0.3294
32914SOL     OW10719   1.604   8.142   3.539 -0.1762  0.3767  0.1209
32914SOL    HW110720   1.672   8.130   3.473 -1.0271 -0.4708 -0.6387
32914SOL    HW210721   1.616   8.069   3.600 -1.0098 -0.3768 -0.5859
32915SOL     OW10722   1.307   2.899  10.131  0.4185 -0.3758  1.0204
32915SOL    HW110723   1.334   2.975  10.079  0.6948 -1.6100 -0.7283
32915SOL    HW210724   1.213   2.911  10.144  0.6893  0.9254  1.9483
32916SOL     OW10725   4.528   9.751   2.694  0.3110  0.2813  0.2133
32916SOL    HW110726   4.547   9.699   2.617 -0.7578  0.7562 -0.3986
32916SOL    HW210727   4.434   9.737   2.710  0.4392  0.4712  1.2098
32917SOL     OW10728   0.140   1.043   4.647 -0.2770 -0.0771  0.2086
32917SOL    HW110729   0.231   1.053   4.676 -0.2167 -3.5448  1.6302
32917SOL    HW210730   0.146   1.024   4.554  0.0457  3.6760 -0.6909
32918SOL     OW10731   4.885   9.684   6.851  0.3667  0.2131 -0.0552
32918SOL    HW110732   4.935   9.669   6.771  0.5346 -1.0440  0.2586
32918SOL    HW210733   4.807   9.731   6.823  0.7353  0.3628 -0.8487
32919SOL     OW10734   7.076   4.723   2.502 -0.0802 -0.1397 -0.4245
32919SOL    HW110735   7.065   4.817   2.490 -1.2113 -0.2026 -0.0061
32919SOL    HW210736   6.987   4.690   2.517  0.3277 -1.2363 -0.3128
32920SOL     OW10737   9.969   7.436   3.139 -0.0015 -0.0238  0.2433
32920SOL    HW110738   9.939   7.364   3.083  1.5398  0.2239 -0.9577
32920SOL    HW210739  10.003   7.502   3.078 -2.2728  2.2320  1.2406
32921SOL     OW10740  10.099   0.623   1.429 -0.0254  0.1827  0.0288
32921SOL    HW110741  10.154   0.549   1.404 -1.8791 -0.9097 -1.0440
32921SOL    HW210742  10.126   0.694   1.371 -0.8346 -0.8400 -1.6525
32922SOL     OW10743   2.875   6.419   2.868 -0.0101 -0.1763  0.0157
32922SOL    HW110744   2.852   6.328   2.850 -1.9990  0.1354  0.7840
32922SOL    HW210745   2.815   6.471   2.814  0.5993  0.7073  0.1545
32923SOL     OW10746   9.153   7.334   9.065 -0.1724  0.1300 -0.1534
32923SOL    HW110747   9.138   7.267   9.133 -1.9832 -0.9425 -1.5190
32923SOL    HW210748   9.149   7.286   8.983 -0.8658  1.8138 -1.1502
32924SOL     OW10749   9.915   5.097   9.121 -0.3549 -0.2179  0.3496
32924SOL    HW110750   9.923   5.164   9.189 -0.9076 -0.0735  0.2769
32924SOL    HW210751   9.961   5.021   9.156  2.8702  1.0468 -0.7305
32925SOL     OW10752   1.647   0.013   6.104  0.2152  0.5409  0.2972
32925SOL    HW110753   1.603  -0.064   6.070  0.6094  0.3973  0.1014
32925SOL    HW210754   1.670  -0.010   6.194  1.5154 -0.0866 -0.1739
32926SOL     OW10755  10.160   3.010   0.371 -0.0373 -0.1304 -0.1706
32926SOL    HW110756  10.169   3.041   0.461 -0.9714  1.0958 -0.4620
32926SOL    HW210757  10.220   2.937   0.364  1.5363  1.0047  0.8807
32927SOL     OW10758   0.784   6.598   0.668  0.5673 -0.2225 -0.5055
32927SOL    HW110759   0.755   6.595   0.759  0.6780 -0.4642 -0.4747
32927SOL    HW210760   0.824   6.512   0.653  1.8845  0.3273 -0.3364
32928SOL     OW10761   5.328   3.253   3.791 -0.1156  0.2677 -0.3649
32928SOL    HW110762   5.403   3.273   3.848 -0.2855 -0.1512  0.0084
32928SOL    HW210763   5.364   3.192   3.726 -0.0721  0.2596 -0.3337
32929SOL     OW10764   7.964   0.648   5.252  0.2067 -0.0908 -0.5064
32929SOL    HW110765   7.994   0.621   5.339  0.1051  1.0002 -0.1166
32929SOL    HW210766   8.030   0.614   5.192  0.7766 -0.0524  0.0860
32930SOL     OW10767   4.232   0.283   3.259  0.3037 -0.3681  0.3507
32930SOL    HW110768   4.271   0.358   3.303  0.0312  0.2444 -0.4250
32930SOL    HW210769   4.282   0.274   3.178 -0.9631  0.2974 -0.5536
32931SOL     OW10770   2.925   0.564   3.944 -0.0336 -0.4630 -0.1397
32931SOL    HW110771   2.885   0.561   4.031  1.5112  0.4730  0.6396
32931SOL    HW210772   2.907   0.653   3.913  0.7725 -0.2738 -0.0884
32932SOL     OW10773   3.508   5.969   8.949  0.2651 -0.3371  0.1175
32932SOL    HW110774   3.508   5.994   8.857  0.9530  0.4320  0.3104
32932SOL    HW210775   3.516   6.052   8.997 -1.5210 -0.6024  0.9297
32933SOL     OW10776   8.623   5.893   7.899  0.0127  0.7652  0.3279
32933SOL    HW110777   8.614   5.825   7.833  0.1468  1.3452 -0.2983
32933SOL    HW210778   8.659   5.848   7.976 -0.8571 -0.0588  0.2633
32934SOL     OW10779   2.784   6.297   7.453 -0.4719 -0.3885 -0.5809
32934SOL    HW110780   2.842   6.338   7.388 -1.4732  0.5340 -0.9286
32934SOL    HW210781   2.836   6.295   7.533 -0.3947  1.7584 -0.5116
32935SOL     OW10782   3.637   3.380   5.230 -0.0415  0.1000 -0.0334
32935SOL    HW110783   3.592   3.465   5.229 -2.3935 -0.9866  1.9351
32935SOL    HW210784   3.709   3.393   5.292 -0.4805  0.6403  0.3789
32936SOL     OW10785   6.127   3.973   7.973  0.0851  0.7761 -0.1179
32936SOL    HW110786   6.134   4.059   7.931 -0.9957  0.9118 -0.0521
32936SOL    HW210787   6.051   3.981   8.030 -2.3633 -1.2968 -2.8042
32937SOL     OW10788   2.241   7.491   1.606  0.1868 -0.3567 -0.0822
32937SOL    HW110789   2.289   7.414   1.575  1.0676 -0.5096  1.5442
32937SOL    HW210790   2.307   7.560   1.613 -0.9349  1.2799 -3.5078
32938SOL     OW10791   7.111   6.759   3.350 -0.1241  0.0421  0.1764
32938SOL    HW110792   7.082   6.811   3.425 -0.1145  0.7437 -0.2966
32938SOL    HW210793   7.190   6.803   3.320  0.1706 -0.5531  0.0798
32939SOL     OW10794   3.301   7.555   6.777 -0.7472 -0.0660 -0.7808
32939SOL    HW110795   3.360   7.626   6.805  0.1263 -0.4303 -1.6295
32939SOL    HW210796   3.257   7.528   6.858 -0.2952  0.7155 -0.2497
32940SOL     OW10797   3.905   6.534   9.729  0.0061 -0.2313  0.2650
32940SOL    HW110798   3.980   6.572   9.774 -0.1086  0.1974  0.1045
32940SOL    HW210799   3.870   6.470   9.791  0.0272  0.1410  0.6694
32941SOL     OW10800   4.078   0.485   9.466 -0.2497 -0.2562 -0.3657
32941SOL    HW110801   4.116   0.549   9.526  0.2234 -1.2534  0.4266
32941SOL    HW210802   4.044   0.538   9.394 -0.9877  0.9824  0.8418
32942SOL     OW10803   6.132   9.128   6.433 -0.0683  0.0319  0.4796
32942SOL    HW110804   6.147   9.197   6.498  1.7908 -0.4163  0.5809
32942SOL    HW210805   6.122   9.048   6.486 -1.0123  0.0206  0.3050
32943SOL     OW10806   5.435   8.364   1.908 -0.1780 -0.5979  0.2639
32943SOL    HW110807   5.449   8.284   1.858  1.4411  0.8684 -1.8695
32943SOL    HW210808   5.501   8.362   1.977  0.0488 -0.9736  0.0362
32944SOL     OW10809   5.860   7.111   1.291 -0.3240  0.3655 -0.9546
32944SOL    HW110810   5.827   7.179   1.350  0.8055 -0.4069  0.6302
32944SOL    HW210811   5.896   7.160   1.217  2.3609  1.7466  1.0746
32945SOL     OW10812   5.432   7.533   9.330 -0.3487  0.0633 -0.2001
32945SOL    HW110813   5.394   7.594   9.266 -0.2224  0.2983 -0.0554
32945SOL    HW210814   5.499   7.486   9.280 -0.7087 -0.2295 -0.4109
32946SOL     OW10815   8.418   6.258   8.042  0.1064 -0.7191  0.0993
32946SOL    HW110816   8.478   6.196   8.084  1.0335  0.5504  0.6917
32946SOL    HW210817   8.453   6.268   7.953  2.2293  1.7742  1.1172
32947SOL     OW10818   6.817   3.204   2.352  0.2509  0.0773  0.3228
32947SOL    HW110819   6.749   3.255   2.396 -0.5612  0.3364 -1.1725
32947SOL    HW210820   6.823   3.123   2.403  0.3540  0.9414  1.7221
32948SOL     OW10821   9.308   2.690   8.867  0.3237 -0.1371  0.0818
32948SOL    HW110822   9.300   2.785   8.864 -0.0860 -0.1644  0.1936
32948SOL    HW210823   9.326   2.664   8.777  0.3283  0.0385  0.0320
32949SOL     OW10824   2.385   3.911   4.491 -0.8207  0.4922 -0.4656
32949SOL    HW110825   2.321   3.907   4.561 -0.5227  0.2856 -0.2022
32949SOL    HW210826   2.397   3.820   4.463 -0.7706  0.5483 -0.6326
32950SOL     OW10827   4.585   4.779   7.888  0.0307  0.0646  0.1817
32950SOL    HW110828   4.544   4.861   7.916 -0.5534  0.0106 -0.5068
32950SOL    HW210829   4.569   4.719   7.961 -0.5783  0.2233  0.1866
32951SOL     OW10830   3.706   7.457   7.528  0.5811 -0.0198 -0.1986
32951SOL    HW110831   3.710   7.379   7.583  0.7733 -0.7127 -1.1716
32951SOL    HW210832   3.774   7.444   7.462  0.5078  0.8973 -0.4744
32952SOL     OW10833   8.813   1.266   5.758 -0.4946  0.2566  0.0959
32952SOL    HW110834   8.801   1.304   5.671 -0.6248  0.3557  0.1553
32952SOL    HW210835   8.740   1.204   5.768 -0.6246  0.4287  0.2305
32953SOL     OW10836   1.685   6.751   5.617  0.0884 -0.2169  0.6006
32953SOL    HW110837   1.730   6.737   5.700  0.6618 -0.2674  0.2860
32953SOL    HW210838   1.650   6.840   5.623  0.1628 -0.2059  0.8780
32954SOL     OW10839   2.010   8.200   9.788 -0.0832 -0.4000  0.8453
32954SOL    HW110840   1.930   8.252   9.796 -0.4925 -0.9967  0.7392
32954SOL    HW210841   1.988   8.117   9.829  0.2775 -0.7896  0.2634
32955SOL     OW10842   2.172   2.706   3.114 -0.3113 -0.0792  0.3128
32955SOL    HW110843   2.234   2.687   3.043  0.1075  1.5285  0.2058
32955SOL    HW210844   2.221   2.686   3.194  0.1197  0.5050  0.2047
32956SOL     OW10845   9.667   3.378   2.566 -0.2229 -0.4127 -0.1192
32956SOL    HW110846   9.645   3.319   2.493  1.0057 -2.2766  0.9260
32956SOL    HW210847   9.760   3.397   2.554 -0.8568  2.5390 -1.1887
32957SOL     OW10848   2.296   7.816   0.705  0.1682 -0.1117  0.4450
32957SOL    HW110849   2.317   7.809   0.798  1.6847  0.2117  0.1551
32957SOL    HW210850   2.307   7.727   0.671 -1.0855 -0.3802  0.6820
32958SOL     OW10851   4.186   1.267   9.243 -0.3605 -0.2655 -0.2762
32958SOL    HW110852   4.254   1.255   9.309  0.1020  0.1297 -0.6620
32958SOL    HW210853   4.227   1.325   9.178  0.1642 -2.6212 -2.2337
32959SOL     OW10854   5.371   4.259   6.209  0.7229  0.6857  0.5097
32959SOL    HW110855   5.337   4.228   6.125  0.4261  1.0265  0.5020
32959SOL    HW210856   5.358   4.186   6.269 -0.6718  1.0463  0.6735
32960SOL     OW10857   0.073   0.641  10.172  0.1229 -0.0767 -0.0714
32960SOL    HW110858   0.107   0.691  10.097 -0.1135  1.4371  0.8027
32960SOL    HW210859   0.081   0.549  10.144  0.5579  0.4202 -1.7285
32961SOL     OW10860   6.621   8.664   8.199 -0.6910  0.3318 -0.3063
32961SOL    HW110861   6.662   8.704   8.276  1.4986 -2.7299  0.3275
32961SOL    HW210862   6.554   8.607   8.234 -0.6642 -0.0020 -0.7868
32962SOL     OW10863  10.259   5.376   4.966 -0.2215 -0.1193  0.7475
32962SOL    HW110864  10.337   5.406   5.013 -0.6010  0.9929  0.6967
32962SOL    HW210865  10.231   5.451   4.914 -1.2481 -0.5382  0.6605
32963SOL     OW10866   6.007   3.405   5.785  0.3092  0.2576 -0.1842
32963SOL    HW110867   6.014   3.360   5.701  1.6006 -0.0593  0.0733
32963SOL    HW210868   5.932   3.364   5.829  0.4431 -0.4743 -0.6384
32964SOL     OW10869   5.081   7.500   4.753  0.1935 -0.0056  0.1844
32964SOL    HW110870   5.069   7.549   4.835  1.6257 -0.3948  0.6507
32964SOL    HW210871   5.118   7.564   4.692 -0.8393  0.2745 -0.1718
32965SOL     OW10872   7.607   0.202   6.420  0.4406  0.4029  0.0162
32965SOL    HW110873   7.556   0.262   6.366  0.6967  0.8535  0.2708
32965SOL    HW210874   7.692   0.244   6.428  1.2192 -0.8481 -1.2926
32966SOL     OW10875   1.704   3.206  10.210  0.3492 -0.3811 -0.0429
32966SOL    HW110876   1.633   3.269  10.199  0.0175 -0.5749  0.9298
32966SOL    HW210877   1.676   3.150  10.282  1.4183 -0.5639  0.2551
32967SOL     OW10878   9.695   9.536   6.371 -0.0148 -0.2800  0.0777
32967SOL    HW110879   9.782   9.514   6.406  0.1809  1.5892  0.8893
32967SOL    HW210880   9.641   9.548   6.449 -0.9685 -1.1971 -0.4215
32968SOL     OW10881   6.237   0.470   5.178 -0.2994 -0.0118  0.1820
32968SOL    HW110882   6.177   0.415   5.127  0.0131 -2.7928  2.5601
32968SOL    HW210883   6.314   0.416   5.192 -0.1973  0.7017  3.1720
32969SOL     OW10884   9.994   7.032   8.854 -0.0547 -0.6607  0.3361
32969SOL    HW110885   9.961   7.053   8.942 -1.0199 -1.1267  0.0961
32969SOL    HW210886   9.948   6.951   8.830 -0.7111  0.0975 -1.0799
32970SOL     OW10887   7.919   8.668   4.041  0.3556  0.0893  0.3990
32970SOL    HW110888   7.847   8.725   4.016  0.8222  1.4795  1.9916
32970SOL    HW210889   7.997   8.707   4.000  0.3601 -0.8766 -0.5588
32971SOL     OW10890   3.773   3.414   8.237 -0.0437  0.0758 -0.3984
32971SOL    HW110891   3.686   3.375   8.229 -0.0095  0.1842 -1.3454
32971SOL    HW210892   3.776   3.448   8.327 -0.6732 -0.6452 -0.1016
32972SOL     OW10893   8.142   0.100   8.685 -0.3578 -0.2911 -0.3931
32972SOL    HW110894   8.207   0.032   8.668  1.1421  0.7461  0.8147
32972SOL    HW210895   8.072   0.083   8.622  1.4956 -0.9151 -2.4228
32973SOL     OW10896   2.789   3.526   7.192 -0.1968 -0.2789 -0.2700
32973SOL    HW110897   2.723   3.595   7.192 -0.0193 -0.0742 -1.7253
32973SOL    HW210898   2.778   3.482   7.276 -2.7096 -0.7765 -0.7918
32974SOL     OW10899   0.574   1.008   3.261 -0.0466  0.0766 -0.1523
32974SOL    HW110900   0.653   1.021   3.312  0.2752  3.6624 -1.2805
32974SOL    HW210901   0.597   1.039   3.173 -2.4170  0.2955 -0.7608
32975SOL     OW10902   8.039   8.138   8.794  0.7325 -0.1897 -0.6459
32975SOL    HW110903   8.051   8.118   8.702  2.1637 -1.5693 -0.2017
32975SOL    HW210904   7.953   8.101   8.815  2.4438 -4.5799 -0.3370
32976SOL     OW10905   9.083   1.974  10.099 -0.1905  0.4590  0.8701
32976SOL    HW110906   9.148   1.904  10.108 -0.4172 -0.2300 -1.8393
32976SOL    HW210907   9.118   2.029  10.029 -2.7331 -0.3199 -1.1583
32977SOL     OW10908   3.118   8.601   0.007 -0.1916  0.2646  0.4976
32977SOL    HW110909   3.183   8.636   0.068  0.0653 -0.8872  0.9005
32977SOL    HW210910   3.159   8.523  -0.030 -0.9754  0.0637  0.0356
32978SOL     OW10911   2.350   8.071   4.420  0.4608 -0.2486 -0.4279
32978SOL    HW110912   2.330   7.984   4.456  0.5066 -1.1015 -2.3494
32978SOL    HW210913   2.303   8.132   4.477 -0.6700 -1.6262  0.1675
32979SOL     OW10914   0.347   2.761   7.158  0.1608 -0.4182  0.1721
32979SOL    HW110915   0.269   2.817   7.163  1.5844  1.5890  2.3904
32979SOL    HW210916   0.318   2.676   7.191 -1.4309 -0.2222 -0.6137
32980SOL     OW10917   9.870   0.271   5.574  0.0022  0.3387 -0.3275
32980SOL    HW110918   9.906   0.304   5.656 -0.9366  0.8012 -0.0960
32980SOL    HW210919   9.947   0.242   5.524  0.7489  1.8066 -0.0680
32981SOL     OW10920   3.645   2.366   6.260 -0.4572 -0.6397  0.2350
32981SOL    HW110921   3.592   2.445   6.274  1.3133  0.6695 -0.1564
32981SOL    HW210922   3.680   2.345   6.347 -1.2014 -1.2293  0.4050
32982SOL     OW10923   8.263   3.159   8.240  0.3557  0.4149 -0.7144
32982SOL    HW110924   8.222   3.222   8.181  0.4407  0.2449 -0.9568
32982SOL    HW210925   8.278   3.208   8.321  1.1614  0.9436 -1.1653
32983SOL     OW10926   6.226   1.389   0.102  0.7301  0.2026 -0.0169
32983SOL    HW110927   6.208   1.425   0.189  1.9069  0.5146  0.1191
32983SOL    HW210928   6.316   1.358   0.107  0.8633  0.3493 -1.1723
32984SOL     OW10929   4.488   3.673   6.482  0.5788  0.3973 -0.1012
32984SOL    HW110930   4.522   3.604   6.426 -0.4505 -0.2586  0.0491
32984SOL    HW210931   4.550   3.746   6.472  2.0883 -0.7828  0.2873
32985SOL     OW10932   9.952   2.905   7.511  0.0763  0.3159 -0.7224
32985SOL    HW110933   9.915   2.959   7.581 -0.4255  1.2552 -1.6837
32985SOL    HW210934   9.990   2.830   7.556 -3.1168 -0.8033  0.3299
32986SOL     OW10935   6.983   9.485   4.873 -0.0129  0.2506 -0.4715
32986SOL    HW110936   6.921   9.413   4.868  0.6862 -0.5373  1.3729
32986SOL    HW210937   6.991   9.504   4.967  2.1558  0.6386 -0.6736
32987SOL     OW10938   6.635   0.828   7.996 -0.0785 -0.4532  0.1263
32987SOL    HW110939   6.648   0.782   7.913  2.8081  0.2577  0.0697
32987SOL    HW210940   6.618   0.759   8.060 -0.2676 -1.1976 -0.7071
32988SOL     OW10941   4.005   7.682   8.965 -0.0619  0.2024 -0.9537
32988SOL    HW110942   3.946   7.672   8.890 -1.4294 -0.0734  0.1136
32988SOL    HW210943   3.961   7.747   9.021  0.6256 -0.0398 -0.1182
32989SOL     OW10944   5.931   8.594   7.757 -0.2300 -0.1937  0.7200
32989SOL    HW110945   5.850   8.562   7.795  0.6347 -1.7363  1.3534
32989SOL    HW210946   5.998   8.531   7.785  0.9619  0.2839 -0.8812
32990SOL     OW10947   3.386   4.224   1.639  0.1000 -0.4067  0.6051
32990SOL    HW110948   3.369   4.283   1.566  0.7841 -2.0981 -1.0156
32990SOL    HW210949   3.315   4.240   1.701 -1.0154  0.4475 -0.8504
32991SOL     OW10950   9.444   6.855   9.276  0.1623 -0.2205 -0.0105
32991SOL    HW110951   9.427   6.914   9.350  0.2351  0.0650 -0.2210
32991SOL    HW210952   9.503   6.789   9.311 -0.1847 -0.3577  0.3186
32992SOL     OW10953   1.477   5.229   9.825 -0.4366 -0.0240  0.1973
32992SOL    HW110954   1.391   5.270   9.836 -0.3900  0.2264 -0.3543
32992SOL    HW210955   1.458   5.135   9.817 -0.5751 -0.0811  1.0546
32993SOL     OW10956   1.220  10.055   6.071 -0.1049 -0.3679 -0.0589
32993SOL    HW110957   1.149   9.990   6.074 -0.0084 -0.4498  0.4892
32993SOL    HW210958   1.283  10.019   6.009 -0.0578 -0.7944  0.2333
32994SOL     OW10959   0.136   0.790   6.754  0.2438 -0.8213  0.0014
32994SOL    HW110960   0.137   0.766   6.847  1.6663  0.7933  0.4677
32994SOL    HW210961   0.044   0.782   6.728 -0.5503  0.5463  2.0888
32995SOL     OW10962   9.560   9.592   7.746 -0.5142  0.5856 -0.1903
32995SOL    HW110963   9.502   9.566   7.817 -0.7942 -2.3217 -1.3353
32995SOL    HW210964   9.501   9.609   7.672 -0.1585  2.5689 -0.0818
32996SOL     OW10965   5.254   5.881   9.558 -1.0813  0.1055  0.4388
32996SOL    HW110966   5.163   5.893   9.531 -1.2024 -0.0438  0.7677
32996SOL    HW210967   5.255   5.797   9.604 -0.4614 -0.6164 -0.8636
32997SOL     OW10968   7.130   7.228   6.150 -0.0716 -0.5760 -0.0608
32997SOL    HW110969   7.081   7.186   6.079  1.1078 -1.2791 -0.4959
32997SOL    HW210970   7.069   7.230   6.224 -1.6706  1.0433 -1.3177
32998SOL     OW10971   1.220  10.088   4.323  0.4046 -0.5176  0.2914
32998SOL    HW110972   1.167  10.047   4.255  0.0052  0.0463  0.2617
32998SOL    HW210973   1.210  10.031   4.399 -0.5906 -0.1918  0.4181
32999SOL     OW10974   8.271   0.264   6.714 -0.4236 -0.7608 -0.0858
32999SOL    HW110975   8.328   0.268   6.791 -0.4188 -2.2779  0.0224
32999SOL    HW210976   8.324   0.298   6.642  0.3023 -1.2719  0.1963
33000SOL     OW10977  10.191   9.850   2.756  0.0029 -0.4254  0.3098
33000SOL    HW110978  10.277   9.860   2.798  0.4590  0.9114 -0.8832
33000SOL    HW210979  10.188   9.758   2.730  2.5115  0.1003 -2.4550
33001SOL     OW10980   8.887   5.025   6.311  0.5593  0.0081  0.7020
33001SOL    HW110981   8.885   5.021   6.215  0.0968 -1.3639  0.7390
33001SOL    HW210982   8.854   5.112   6.332 -1.7157 -0.5248 -0.3590
33002SOL     OW10983   1.832   7.914   8.953 -0.2088 -0.6584 -0.6438
33002SOL    HW110984   1.796   7.827   8.935  0.9160 -1.0864 -0.8773
33002SOL    HW210985   1.819   7.927   9.047  1.2532 -1.8668 -0.2429
33003SOL     OW10986  10.334   2.283   2.086 -0.6510  0.3666 -0.1762
33003SOL    HW110987  10.396   2.306   2.017  0.1655 -1.3014 -0.0682
33003SOL    HW210988  10.369   2.326   2.165  0.4301 -0.5880 -0.1086
33004SOL     OW10989   3.800   9.499   5.763  0.2248  1.3928 -0.0924
33004SOL    HW110990   3.827   9.505   5.671 -0.1788  1.2283 -0.2209
33004SOL    HW210991   3.717   9.453   5.761  1.3125 -0.7340  0.5345
33005SOL     OW10992   3.786   3.927   9.317 -0.4503  0.0558  0.0657
33005SOL    HW110993   3.875   3.946   9.347 -0.4758  1.2760 -0.5624
33005SOL    HW210994   3.731   3.944   9.393 -0.1348 -1.0698  0.5705
33006SOL     OW10995   1.648   3.364   8.887 -0.7586 -0.5195  0.0139
33006SOL    HW110996   1.735   3.370   8.848 -1.0126 -1.4323 -0.7191
33006SOL    HW210997   1.611   3.283   8.852 -1.1836 -1.1499  1.7888
33007SOL     OW10998   0.498   7.165   8.300  0.3373  0.9922 -0.0193
33007SOL    HW110999   0.521   7.184   8.391  0.0570  1.4925 -0.0497
33007SOL    HW211000   0.519   7.246   8.253 -0.8039  1.2176 -0.1688
33008SOL     OW11001   5.053   9.521   1.214 -0.1325  0.5921 -0.0760
33008SOL    HW111002   5.135   9.472   1.199  0.3648  0.1529  3.2528
33008SOL    HW211003   5.079   9.613   1.208  0.6863  0.4602  1.0853
33009SOL     OW11004   4.853   1.117   0.935 -0.2972 -0.3685 -0.0676
33009SOL    HW111005   4.898   1.201   0.946  1.1246 -0.5995 -2.9839
33009SOL    HW211006   4.866   1.072   1.018  1.7004  1.0646  0.4768
33010SOL     OW11007   5.241   1.190   0.914  0.0059  0.3667 -0.4849
33010SOL    HW111008   5.198   1.273   0.936  1.4217  0.9409  0.3215
33010SOL    HW211009   5.231   1.136   0.993  0.5567  0.4343 -0.3617
33011SOL     OW11010   9.583   5.275   5.547 -0.0924 -0.4701  0.4265
33011SOL    HW111011   9.662   5.222   5.561  1.3302  1.4903  0.2759
33011SOL    HW211012   9.567   5.317   5.632  0.4390  0.9158 -0.1269
33012SOL     OW11013   8.725   8.126   4.357  0.5979 -0.0550 -0.3102
33012SOL    HW111014   8.633   8.121   4.331 -0.0756 -2.2405  2.0946
33012SOL    HW211015   8.767   8.051   4.315  0.3969 -1.1963  1.4005
33013SOL     OW11016   6.142   5.569   3.060  0.6558 -0.5862  0.3943
33013SOL    HW111017   6.148   5.483   3.101  0.8973 -0.8200 -0.1291
33013SOL    HW211018   6.158   5.631   3.132 -0.5088 -0.9339  0.9803
33014SOL     OW11019   8.902   2.676   7.016  0.1989  0.4446 -0.2370
33014SOL    HW111020   8.973   2.724   6.972  0.0681 -0.1821 -1.1646
33014SOL    HW211021   8.932   2.664   7.105  0.3776  1.9790 -0.0596
33015SOL     OW11022   1.372   4.407   7.880  0.3630 -0.2782  0.5833
33015SOL    HW111023   1.372   4.319   7.844 -3.0372 -0.8688  1.7075
33015SOL    HW211024   1.326   4.460   7.816 -1.0392 -0.2042  1.6108
33016SOL     OW11025   2.285   6.833   0.952 -0.4522  0.5944  0.1243
33016SOL    HW111026   2.249   6.865   0.870 -0.5708  1.5788  0.5440
33016SOL    HW211027   2.209   6.819   1.008 -0.4849 -1.3886 -0.3547
33017SOL     OW11028   3.555   0.685   0.293  0.2548 -0.5430  0.5020
33017SOL    HW111029   3.510   0.707   0.375 -1.0831  2.7972 -0.9851
33017SOL    HW211030   3.565   0.590   0.297  1.2347 -0.5190  4.9713
33018SOL     OW11031   6.233   3.040   6.514 -0.0411 -0.4167  0.0854
33018SOL    HW111032   6.302   2.975   6.499  0.2422 -0.2283  0.5515
33018SOL    HW211033   6.175   2.999   6.579  0.5786  0.1049  0.9938
33019SOL     OW11034   9.528   8.590   6.284  0.0030 -0.3167 -0.1996
33019SOL    HW111035   9.540   8.685   6.293 -0.8638  0.1919 -3.2994
33019SOL    HW211036   9.616   8.556   6.267  0.1361  0.1178 -0.3915
33020SOL     OW11037   7.097   8.383   2.631 -0.0366 -0.1819  0.0620
33020SOL    HW111038   7.099   8.457   2.569  1.0795 -0.1778  0.0817
33020SOL    HW211039   7.046   8.415   2.705 -1.4973 -0.2211 -0.8790
33021SOL     OW11040   6.495   6.156   6.197  0.1563 -0.7528  0.2925
33021SOL    HW111041   6.521   6.080   6.145  0.9251 -0.9974  0.9983
33021SOL    HW211042   6.578   6.189   6.233 -0.1073  0.7274 -0.4124
33022SOL     OW11043   2.427   8.487   4.396 -0.0791 -0.6504  0.1937
33022SOL    HW111044   2.355   8.493   4.459  0.2656 -0.4523  0.5786
33022SOL    HW211045   2.410   8.407   4.347  0.2461 -1.4049  1.2853
33023SOL     OW11046   1.607  10.224   2.457 -0.4081 -0.3943 -0.0111
33023SOL    HW111047   1.531  10.274   2.430 -1.3462 -1.9159 -0.2979
33023SOL    HW211048   1.609  10.233   2.553  0.5707  1.6921 -0.1677
33024SOL     OW11049   1.105   6.751   8.947  0.0507 -0.2598  0.3598
33024SOL    HW111050   1.130   6.771   8.857 -1.4608  0.8530  0.1353
33024SOL    HW211051   1.111   6.835   8.993 -2.3337 -0.0719  0.4548
33025SOL     OW11052   5.678   8.665   1.821  0.5288 -0.0002 -0.1832
33025SOL    HW111053   5.698   8.625   1.906  3.1514 -0.3000 -0.8395
33025SOL    HW211054   5.583   8.665   1.815  0.2327  0.4215  2.9324
33026SOL     OW11055   7.318   9.845   3.599 -0.0177  0.3993  0.2589
33026SOL    HW111056   7.412   9.858   3.592  0.1258 -0.8907 -0.6143
33026SOL    HW211057   7.287   9.841   3.508 -0.7382 -0.2157  0.5145
33027SOL     OW11058   9.950   0.689   8.419 -0.7928  0.1380  0.0445
33027SOL    HW111059   9.858   0.661   8.410 -1.5406  2.4177 -0.0820
33027SOL    HW211060   9.961   0.754   8.350  1.3172 -0.9216 -0.6851
33028SOL     OW11061   9.240   7.116   4.313 -0.0919 -0.0136 -0.1575
33028SOL    HW111062   9.331   7.104   4.341 -0.3769 -1.4081  0.2355
33028SOL    HW211063   9.232   7.210   4.298  1.9852 -0.0563 -2.1385
33029SOL     OW11064   8.488   9.720   1.193 -0.5815 -0.3635  0.2974
33029SOL    HW111065   8.409   9.772   1.191 -0.5406 -0.0574  2.7463
33029SOL    HW211066   8.457   9.630   1.204 -0.6220 -0.3348  0.4318
33030SOL     OW11067   1.899   8.429   9.446  0.4311 -0.0646 -0.0686
33030SOL    HW111068   1.847   8.354   9.415  0.4646 -0.6822  1.2904
33030SOL    HW211069   1.840   8.476   9.504  0.8734  0.1605  0.2004
33031SOL     OW11070   4.792   1.571   8.677  0.2241  0.5530  0.2157
33031SOL    HW111071   4.776   1.634   8.747  0.3038  0.0425  0.6961
33031SOL    HW211072   4.835   1.622   8.609 -0.3684  1.1832  0.2960
33032SOL     OW11073   7.443   6.696   9.900 -0.6838  0.1571 -0.1731
33032SOL    HW111074   7.367   6.711   9.955  0.0026 -1.0051  1.1713
33032SOL    HW211075   7.512   6.749   9.940 -0.2368 -0.5189 -0.0305
33033SOL     OW11076   3.665   3.349   2.423  0.4587  0.2504  0.4071
33033SOL    HW111077   3.571   3.357   2.405  0.3004 -0.5106  0.8334
33033SOL    HW211078   3.692   3.272   2.373  1.4281  1.9031 -1.7777
33034SOL     OW11079   4.511   6.911   6.387 -0.0550 -0.3863  0.1543
33034SOL    HW111080   4.483   6.949   6.304 -0.4340 -0.5197  0.2226
33034SOL    HW211081   4.445   6.940   6.450  0.0678 -0.5382  0.3526
33035SOL     OW11082   9.756   5.668   2.474 -0.0302 -0.3231  0.2101
33035SOL    HW111083   9.830   5.700   2.526 -0.8099 -0.6650  1.5828
33035SOL    HW211084   9.679   5.695   2.524 -0.7675 -2.7420  0.5273
33036SOL     OW11085   9.224   5.062   3.434 -0.0819  0.4866  0.0949
33036SOL    HW111086   9.275   5.117   3.375 -2.1143  2.6952  0.2468
33036SOL    HW211087   9.289   5.019   3.489  1.6738  1.5014 -1.0930
33037SOL     OW11088   2.118   1.167   1.050  0.1886 -0.3271 -0.0632
33037SOL    HW111089   2.098   1.078   1.022 -0.4624 -0.2758  0.2383
33037SOL    HW211090   2.033   1.205   1.073  0.5473  0.1283  0.5284
33038SOL     OW11091   6.346   2.847   6.061  0.1559  0.0318  0.0329
33038SOL    HW111092   6.277   2.845   6.127 -0.8509 -1.1672 -1.0039
33038SOL    HW211093   6.423   2.810   6.105 -0.5266 -0.8385  0.5071
33039SOL     OW11094   6.030   2.482   9.793  0.2666 -0.3292  0.1739
33039SOL    HW111095   5.935   2.479   9.801 -0.1710 -1.0846 -3.6695
33039SOL    HW211096   6.055   2.392   9.772  1.4001  0.4118 -1.9175
33040SOL     OW11097   3.609   3.775   5.441 -0.2519  0.0539 -0.6169
33040SOL    HW111098   3.560   3.724   5.377 -0.0388 -0.8825 -0.0490
33040SOL    HW211099   3.664   3.711   5.486 -0.6027  0.6335  0.6958
33041SOL     OW11100   6.350   6.890   4.905 -0.1506 -0.0683  0.6106
33041SOL    HW111101   6.358   6.915   4.997 -0.8616  1.1175  0.3803
33041SOL    HW211102   6.370   6.970   4.857 -2.7127  0.1943 -0.1676
33042SOL     OW11103   5.704   4.622   1.387 -0.5581  0.3214 -0.5595
33042SOL    HW111104   5.794   4.589   1.381 -1.2373 -1.5985 -0.8816
33042SOL    HW211105   5.693   4.643   1.479 -0.1356 -0.5769 -0.2886
33043SOL     OW11106   3.671   3.118   6.259  0.3813 -0.6273 -0.8213
33043SOL    HW111107   3.722   3.038   6.269  3.3713  1.2795  0.5831
33043SOL    HW211108   3.718   3.169   6.193 -0.9595  0.3670 -1.0557
33044SOL     OW11109   7.774   7.538   2.346  0.0937  0.0065 -0.0446
33044SOL    HW111110   7.863   7.572   2.349  0.9973 -2.0988 -1.1323
33044SOL    HW211111   7.755   7.531   2.252 -0.3578 -1.6241  0.1481
33045SOL     OW11112   4.603   8.992   7.993  0.8209  0.5986  0.1863
33045SOL    HW111113   4.542   9.044   8.046 -1.3160  0.0174 -1.5564
33045SOL    HW211114   4.667   9.055   7.961  1.0497  1.2774  1.8464
33046SOL     OW11115   8.928   8.620   0.299  0.3547 -0.2772  0.1290
33046SOL    HW111116   8.842   8.651   0.271  1.6798  1.8379 -1.9048
33046SOL    HW211117   8.927   8.526   0.282 -2.1523 -0.6998  1.9880
33047SOL     OW11118   8.996   1.514   0.702  0.6820 -0.1262  0.5855
33047SOL    HW111119   9.069   1.479   0.652  0.8186  0.4538  0.3691
33047SOL    HW211120   8.952   1.575   0.642  0.3986  0.0058  0.9187
33048SOL     OW11121   0.810   3.945   3.023 -0.1333 -0.2046 -0.0210
33048SOL    HW111122   0.814   3.966   3.116  1.1529 -0.1622 -0.0593
33048SOL    HW211123   0.830   4.027   2.978  1.2144 -0.6279 -0.2599
33049SOL     OW11124   5.453   2.052   1.195  0.2618 -0.0404 -0.2837
33049SOL    HW111125   5.428   2.138   1.227 -3.2056 -1.2851  0.8838
33049SOL    HW211126   5.418   2.049   1.105  0.1631 -0.2691 -0.2395
33050SOL     OW11127   2.496   6.707   4.897 -0.5440 -0.6535 -0.4105
33050SOL    HW111128   2.591   6.712   4.913 -0.4791 -0.5058 -0.8356
33050SOL    HW211129   2.458   6.765   4.963 -0.3460 -0.7962 -0.1693
33051SOL     OW11130   6.734   9.028   0.497  0.4536  0.4171  0.1955
33051SOL    HW111131   6.755   9.049   0.406  1.5782  0.7239  0.5012
33051SOL    HW211132   6.815   8.990   0.531 -0.7438 -2.1659  0.3578
33052SOL     OW11133   0.095   2.524   8.670  0.1681  0.2518 -0.0960
33052SOL    HW111134   0.027   2.527   8.602 -0.8906 -0.3547  0.8989
33052SOL    HW211135   0.079   2.602   8.724 -0.5568 -0.5496  0.8793
33053SOL     OW11136   6.304   5.894   7.116 -0.6499 -0.2241 -0.3348
33053SOL    HW111137   6.323   5.982   7.083 -0.1112  0.8417  2.5044
33053SOL    HW211138   6.365   5.838   7.069  0.1819  1.1830 -1.0133
33054SOL     OW11139   5.624   6.310   7.592  0.8269  0.3164  0.4215
33054SOL    HW111140   5.688   6.261   7.645 -0.3651 -0.0412  1.5804
33054SOL    HW211141   5.594   6.248   7.526 -0.8820 -0.6907  2.0540
33055SOL     OW11142   3.875   3.682   7.963 -0.4353 -0.2826  0.2591
33055SOL    HW111143   3.936   3.656   8.032  1.3625  0.8965 -0.8032
33055SOL    HW211144   3.835   3.600   7.934  1.4892 -1.2727  0.2516
33056SOL     OW11145   5.277   0.589   4.839 -0.3245 -0.3596  0.1612
33056SOL    HW111146   5.243   0.577   4.927 -2.1746 -0.4224 -0.5054
33056SOL    HW211147   5.202   0.571   4.782  0.6469  0.3028 -1.3970
33057SOL     OW11148   8.570   0.761   5.932 -0.3329  0.3137  0.2037
33057SOL    HW111149   8.653   0.797   5.963 -0.4935  0.3073  0.6362
33057SOL    HW211150   8.561   0.678   5.980  0.2527 -0.5481 -1.0973
33058SOL     OW11151   1.367   3.252   4.840  0.3120  0.1075 -0.8422
33058SOL    HW111152   1.315   3.306   4.781  0.3426 -0.7959 -1.7235
33058SOL    HW211153   1.434   3.311   4.875  0.2105  0.6849 -1.6102
33059SOL     OW11154   3.113   8.331   5.250 -0.2188  0.3340 -0.2674
33059SOL    HW111155   3.160   8.411   5.229  0.2186 -0.3068 -1.9350
33059SOL    HW211156   3.172   8.260   5.223 -0.6257 -0.5677  1.0842
33060SOL     OW11157   5.098   6.204   9.402  0.4646  0.0064 -0.0387
33060SOL    HW111158   5.149   6.262   9.458 -0.9339  0.8806  0.3649
33060SOL    HW211159   5.101   6.244   9.315  0.5955 -0.0395 -0.0562
33061SOL     OW11160   1.326   1.533   4.754 -0.4259  0.4108 -0.2437
33061SOL    HW111161   1.299   1.470   4.687  0.2161 -0.3014  0.1403
33061SOL    HW211162   1.259   1.526   4.822 -1.4281  1.5974 -1.0594
33062SOL     OW11163   7.139   6.501   5.922  0.0401 -0.0397  0.3840
33062SOL    HW111164   7.079   6.496   5.997  0.5242 -1.9585  0.6956
33062SOL    HW211165   7.207   6.562   5.950 -0.7487  0.6803  0.7797
33063SOL     OW11166  10.383   8.796   3.104  0.7950  0.3841 -0.1377
33063SOL    HW111167  10.411   8.739   3.032 -0.1918  0.7699 -0.8469
33063SOL    HW211168  10.378   8.883   3.064  0.7135  0.6897  0.5257
33064SOL     OW11169   4.912   3.843   0.210  0.3534  0.1306 -0.2786
33064SOL    HW111170   4.852   3.885   0.149  0.9701  1.3157 -0.1074
33064SOL    HW211171   4.916   3.902   0.285  2.8866  0.9118 -0.9334
33065SOL     OW11172   1.829   3.656   6.326  0.0556  0.4063  0.0819
33065SOL    HW111173   1.860   3.717   6.258 -0.8428  1.0975  0.2715
33065SOL    HW211174   1.736   3.677   6.336  0.1276  0.1673  1.3773
33066SOL     OW11175   5.951   6.699   1.853 -0.0776 -0.1789 -0.3595
33066SOL    HW111176   5.887   6.713   1.783 -1.9389 -4.6837  0.1135
33066SOL    HW211177   6.025   6.658   1.809  0.3642  0.3695 -0.1478
33067SOL     OW11178   9.917   6.089   3.450 -0.0136 -0.4565 -0.0543
33067SOL    HW111179   9.841   6.035   3.473 -0.4842  0.6286  1.0373
33067SOL    HW211180   9.893   6.177   3.479  1.3761  0.0445 -0.3641
33068SOL     OW11181   4.324  10.335   4.460 -0.2249 -0.1456 -0.7588
33068SOL    HW111182   4.300  10.256   4.508  2.8176 -0.0135  1.2378
33068SOL    HW211183   4.266  10.403   4.494  0.9515 -0.3559  1.9039
33069SOL     OW11184   3.944   4.930   9.468  0.2685 -0.3142 -0.1920
33069SOL    HW111185   3.924   4.847   9.424  2.1884 -0.7660 -0.3050
33069SOL    HW211186   3.895   4.927   9.550  0.5529 -1.7151 -0.0518
33070SOL     OW11187   5.515   7.732   5.265 -0.0940  0.2196 -0.1124
33070SOL    HW111188   5.443   7.789   5.294  1.5863  0.9654  2.9822
33070SOL    HW211189   5.571   7.790   5.214 -0.4174  0.2619 -0.4278
33071SOL     OW11190   6.824   3.257  10.186  0.2053  0.1197  0.0313
33071SOL    HW111191   6.826   3.287  10.095 -0.0985 -0.6710 -0.2545
33071SOL    HW211192   6.734   3.224  10.198  0.1534  0.5035  0.7129
33072SOL     OW11193  10.145   4.787   2.160  0.3705 -0.2523  0.4416
33072SOL    HW111194  10.072   4.802   2.220  0.9920  1.9703  0.7426
33072SOL    HW211195  10.222   4.776   2.217  0.8237  1.0183  0.1121
33073SOL     OW11196   3.745  10.210   3.527 -0.1003  0.0447  0.6681
33073SOL    HW111197   3.655  10.198   3.556  0.3057  1.1902  2.5890
33073SOL    HW211198   3.738  10.267   3.450 -0.9576  1.8021  1.9770
33074SOL     OW11199   2.513   2.889   5.597 -0.0984 -0.0380 -0.0811
33074SOL    HW111200   2.574   2.826   5.635  1.1486  1.2324  0.1274
33074SOL    HW211201   2.529   2.885   5.503 -1.1614 -1.1360 -0.2447
33075SOL     OW11202   7.269   8.789   6.025  0.1195 -0.4991 -0.2357
33075SOL    HW111203   7.326   8.740   6.084 -1.1931 -1.9625 -0.1327
33075SOL    HW211204   7.264   8.876   6.063  0.6185 -0.9548  0.9079
33076SOL     OW11205   3.826   3.384   5.406  0.0328  0.1683  0.0143
33076SOL    HW111206   3.920   3.365   5.401 -0.0205 -0.0301 -0.3461
33076SOL    HW211207   3.817   3.448   5.476  0.4332  0.1561  0.0779
33077SOL     OW11208   0.945   4.022   6.838 -0.0960 -0.0446 -0.2333
33077SOL    HW111209   0.891   3.981   6.771  0.2604 -1.6648  0.4278
33077SOL    HW211210   1.034   4.021   6.802  0.0360 -0.5789  0.0893
33078SOL     OW11211   1.375   4.371   3.461 -0.2246  0.1018  1.0210
33078SOL    HW111212   1.377   4.279   3.484  2.3409  0.2610  1.6260
33078SOL    HW211213   1.440   4.380   3.391 -0.6116  1.4305  0.7986
33079SOL     OW11214   0.979   9.261   6.530  0.0702 -0.1084 -0.2445
33079SOL    HW111215   0.910   9.197   6.510 -0.3014 -0.0341  0.7492
33079SOL    HW211216   1.013   9.287   6.444 -0.7098 -0.6169 -0.7220
33080SOL     OW11217   3.344   0.455   2.942  0.3693 -0.2821  0.2940
33080SOL    HW111218   3.296   0.483   3.020 -1.9038 -1.7995 -0.4647
33080SOL    HW211219   3.292   0.383   2.906  0.1919  1.5920 -3.7304
33081SOL     OW11220   0.890   1.528  10.316 -0.3225 -0.3634  0.2555
33081SOL    HW111221   0.801   1.519  10.348 -0.3111 -1.4826  0.0068
33081SOL    HW211222   0.913   1.442  10.281  0.2606  0.3413 -1.2142
33082SOL     OW11223   5.516   5.739   5.451 -0.0278  0.8216 -0.4091
33082SOL    HW111224   5.507   5.656   5.405  1.4508  1.4040 -1.8247
33082SOL    HW211225   5.434   5.748   5.500 -1.5643  0.0085 -2.6664
33083SOL     OW11226   8.077   9.232   5.064 -0.6264  0.3376 -0.2329
33083SOL    HW111227   8.102   9.323   5.082  0.6109 -0.1349  0.5836
33083SOL    HW211228   8.141   9.203   4.999 -1.4496  0.2457 -1.0162
33084SOL     OW11229   9.559   0.643   6.043 -0.3651  0.3155 -0.2233
33084SOL    HW111230   9.570   0.691   5.961  0.6062  0.0447 -0.2667
33084SOL    HW211231   9.522   0.707   6.103 -0.5032  0.6926 -0.6986
33085SOL     OW11232   0.668   1.618   9.597 -0.6288 -0.2522  0.5793
33085SOL    HW111233   0.593   1.659   9.555  1.0241  1.3672 -0.9265
33085SOL    HW211234   0.700   1.554   9.534  1.4977  1.7655 -0.5461
33086SOL     OW11235  10.370   3.335   2.937 -0.0737 -0.5493  0.1767
33086SOL    HW111236  10.447   3.329   2.994  1.0516 -0.8338 -1.3179
33086SOL    HW211237  10.321   3.255   2.954  0.3813 -0.7467  0.5600
33087SOL     OW11238   9.382   7.251   0.114 -0.3498  0.3715  0.0764
33087SOL    HW111239   9.361   7.194   0.187  1.7995  0.6418  0.9998
33087SOL    HW211240   9.300   7.263   0.067 -1.4509 -1.0726  1.5515
33088SOL     OW11241   7.650   7.732   1.641 -0.0514 -0.1201 -0.6978
33088SOL    HW111242   7.729   7.733   1.695  0.6118 -0.0945 -1.6466
33088SOL    HW211243   7.592   7.796   1.682  0.4477 -0.0720 -0.0443
33089SOL     OW11244   2.069   9.663   5.004  0.1895 -0.1832  0.6985
33089SOL    HW111245   2.017   9.585   4.985 -1.4336  0.8026  0.9358
33089SOL    HW211246   2.153   9.629   5.034 -0.5902 -1.8580  1.1053
33090SOL     OW11247   3.535   7.714   8.765  0.0288 -0.6366 -0.1939
33090SOL    HW111248   3.542   7.643   8.701 -0.6676  0.0780 -1.0937
33090SOL    HW211249   3.441   7.721   8.782  0.1809 -0.6188  0.6904
33091SOL     OW11250   0.969  10.346   2.787 -0.4261 -0.4297  0.2302
33091SOL    HW111251   1.021  10.312   2.860 -0.5333 -0.9606  0.0604
33091SOL    HW211252   1.019  10.322   2.709 -0.3185  0.1283  0.1235
33092SOL     OW11253   2.695   4.637   5.706 -0.5889  0.4517 -0.5719
33092SOL    HW111254   2.775   4.601   5.742 -0.6933  0.3417 -0.4517
33092SOL    HW211255   2.657   4.688   5.778 -1.4169 -0.7425 -0.1250
33093SOL     OW11256   0.252  10.179   1.627 -0.2744  0.1600  0.1252
33093SOL    HW111257   0.226  10.114   1.563  0.3078  0.9683 -0.9779
33093SOL    HW211258   0.176  10.190   1.684 -0.3659 -1.4728  0.3426
33094SOL     OW11259   5.799   4.276   6.362 -0.4421 -0.0788  0.4744
33094SOL    HW111260   5.740   4.346   6.333  1.1342  0.5696 -1.3334
33094SOL    HW211261   5.820   4.300   6.453 -1.4787  0.6755  0.5442
33095SOL     OW11262   2.460   5.648   6.228  0.1926  0.1562 -0.3414
33095SOL    HW111263   2.405   5.627   6.304  0.2901 -1.1634 -0.6085
33095SOL    HW211264   2.399   5.655   6.155  0.2190  0.2730 -0.3524
33096SOL     OW11265   1.035   7.581   4.228 -0.6497  0.1388 -0.1920
33096SOL    HW111266   1.061   7.623   4.146 -2.0544 -0.2889 -0.8862
33096SOL    HW211267   1.104   7.604   4.290  1.3518 -0.9494 -1.9100
33097SOL     OW11268   4.842  10.286   1.850  0.1089 -0.2661 -0.4737
33097SOL    HW111269   4.899  10.310   1.778  0.9658 -1.5946 -0.2681
33097SOL    HW211270   4.850  10.358   1.913 -0.8659  1.0358 -1.7792
33098SOL     OW11271   7.291   6.755  10.133 -0.2304 -0.0041 -0.2644
33098SOL    HW111272   7.323   6.845  10.126  0.2491 -0.1519  0.0439
33098SOL    HW211273   7.203   6.765  10.169 -0.1012  0.3291 -0.0339
33099SOL     OW11274   3.236   6.312   4.405 -0.1700  0.0613 -0.3220
33099SOL    HW111275   3.268   6.274   4.324  0.8901  1.9091 -0.8204
33099SOL    HW211276   3.261   6.249   4.473  0.1176 -0.8646 -1.2672
33100SOL     OW11277   9.969   0.227   4.690  0.1328 -0.1375 -0.0679
33100SOL    HW111278   9.882   0.265   4.678 -0.4919 -1.2997  0.5553
33100SOL    HW211279   9.964   0.182   4.774  1.1823 -0.6473 -0.2579
33101SOL     OW11280   8.116  10.367   1.529  0.3693  0.1246  0.2643
33101SOL    HW111281   8.200  10.364   1.485  0.4410 -0.2156  0.4147
33101SOL    HW211282   8.097  10.275   1.551  0.6534  0.3464  1.5263
33102SOL     OW11283   1.482   1.757   6.345  0.4825 -0.1623 -0.6549
33102SOL    HW111284   1.497   1.851   6.356  1.5796 -0.4914  0.9918
33102SOL    HW211285   1.569   1.718   6.346 -0.0076 -1.2963 -0.1948
33103SOL     OW11286   5.675   2.253   7.077  0.0930 -0.0588  0.2301
33103SOL    HW111287   5.623   2.317   7.029 -0.1810 -0.8259 -0.5336
33103SOL    HW211288   5.698   2.187   7.011  1.9286  0.1878  0.5710
33104SOL     OW11289   8.703   5.597   7.645  0.0892 -0.5442 -0.0975
33104SOL    HW111290   8.779   5.651   7.624 -0.3308  1.1936  2.3296
33104SOL    HW211291   8.739   5.522   7.693  0.3571 -0.2156  0.2195
33105SOL     OW11292   1.858  10.311   5.394 -0.5852  0.0223 -0.8972
33105SOL    HW111293   1.877  10.388   5.447 -2.4483  0.7265 -1.1675
33105SOL    HW211294   1.941  10.288   5.353 -0.1746  2.4764 -1.5658
33106SOL     OW11295   6.920   8.190   5.315 -0.5413  0.2959 -0.0849
33106SOL    HW111296   6.883   8.257   5.372 -0.5059 -0.3768  0.7638
33106SOL    HW211297   6.845   8.147   5.275 -0.6245  0.0691  0.3015
33107SOL     OW11298   9.388   6.839   2.658  0.1236 -0.4056  0.1166
33107SOL    HW111299   9.482   6.824   2.668  0.0889  0.6674  2.9375
33107SOL    HW211300   9.381   6.933   2.639 -0.3605 -0.8660 -2.4351
33108SOL     OW11301   5.974  10.165   5.745 -0.4827 -0.0808 -0.0474
33108SOL    HW111302   5.911  10.178   5.675  0.9794 -0.9884 -1.6166
33108SOL    HW211303   6.054  10.138   5.701  1.1112  1.2325  1.8272
33109SOL     OW11304   2.799   7.907   3.247  0.4120 -0.1450 -0.3581
33109SOL    HW111305   2.764   7.823   3.276 -0.9074  0.2477 -0.7697
33109SOL    HW211306   2.859   7.933   3.317 -1.2082 -0.1647  1.1145
33110SOL     OW11307   8.984   8.303   3.148  0.4548 -0.2818 -0.5636
33110SOL    HW111308   8.896   8.319   3.116  1.2886  0.9473 -2.3657
33110SOL    HW211309   8.998   8.371   3.215  0.4870  0.3455 -1.1995
33111SOL     OW11310   8.921   3.222   6.653  0.5176 -0.0484  0.1579
33111SOL    HW111311   8.865   3.261   6.586 -2.2818 -2.1692  1.0724
33111SOL    HW211312   8.920   3.286   6.725  0.6311  0.6545 -0.4588
33112SOL     OW11313   2.562   9.963   6.642  0.0084 -0.0517  0.1935
33112SOL    HW111314   2.620   9.930   6.711 -0.2309 -1.6611 -0.3460
33112SOL    HW211315   2.616   9.962   6.563 -0.3900 -0.3829 -0.0774
33113SOL     OW11316   0.963   0.966   8.704 -0.2080  0.0486 -0.2838
33113SOL    HW111317   0.920   1.009   8.777 -0.2213 -0.1398 -0.1793
33113SOL    HW211318   0.914   0.994   8.627  0.6628  1.3860 -0.3880
33114SOL     OW11319   7.395   5.955   8.233  0.3449 -0.3025 -0.6535
33114SOL    HW111320   7.325   5.918   8.287 -0.3662  0.4565 -1.0336
33114SOL    HW211321   7.359   6.037   8.200  0.8020 -0.6685 -2.1653
33115SOL     OW11322   1.932   3.780   0.572  0.8149  0.6751 -0.2750
33115SOL    HW111323   1.964   3.869   0.586 -1.2989  1.4321  0.2283
33115SOL    HW211324   1.847   3.792   0.529  0.3523 -1.0945  0.0656
33116SOL     OW11325   1.890   0.167   9.829 -0.1772 -0.2942  0.2337
33116SOL    HW111326   1.978   0.154   9.865 -1.4361  0.3064  3.8733
33116SOL    HW211327   1.900   0.242   9.770  1.9962 -1.2149 -0.6895
33117SOL     OW11328   5.589   3.148   5.563 -0.0071 -0.0745  0.6267
33117SOL    HW111329   5.513   3.112   5.517 -0.7363  1.4062  0.6070
33117SOL    HW211330   5.626   3.074   5.610 -1.8563 -0.7269  1.1485
33118SOL     OW11331   7.590   6.890   2.004 -0.1146  0.2849  0.3249
33118SOL    HW111332   7.564   6.951   1.935 -1.0463  1.0973  1.3444
33118SOL    HW211333   7.645   6.942   2.062  0.0493 -0.1770  0.5858
33119SOL     OW11334   2.720   0.444   9.573 -0.1877  0.0835 -0.3391
33119SOL    HW111335   2.705   0.504   9.500  0.4755 -1.7914 -2.1119
33119SOL    HW211336   2.717   0.500   9.651 -5.4600  1.6149 -1.2110
33120SOL     OW11337   4.869   7.178   0.926 -0.2726 -0.4417 -0.0880
33120SOL    HW111338   4.837   7.264   0.952  1.1929  0.2398 -0.4125
33120SOL    HW211339   4.810   7.116   0.969 -1.2473  0.7142  0.2890
33121SOL     OW11340   5.331   0.668   0.216 -0.0735 -0.3843 -0.0471
33121SOL    HW111341   5.302   0.750   0.256 -1.6866 -1.0256  0.1506
33121SOL    HW211342   5.379   0.696   0.138 -0.5278  0.7625  0.0626
33122SOL     OW11343   4.232   6.036   3.027  0.6185  0.5304 -0.4630
33122SOL    HW111344   4.324   6.043   3.005  0.2731 -0.7445 -2.6716
33122SOL    HW211345   4.188   6.022   2.943 -1.1919 -2.1550  0.7521
33123SOL     OW11346   7.803   2.963   8.682  0.1492  0.3478  0.0460
33123SOL    HW111347   7.712   2.963   8.712  0.0367  1.6156 -0.2342
33123SOL    HW211348   7.806   2.896   8.614 -1.4682  2.6266 -2.4322
33124SOL     OW11349   6.281   9.692   8.237 -0.2355  1.0815 -0.0736
33124SOL    HW111350   6.252   9.783   8.243 -1.7593  0.6403 -0.2829
33124SOL    HW211351   6.304   9.668   8.327 -0.2844  1.5278  0.0580
33125SOL     OW11352   4.047  10.298   9.500 -0.4510 -0.3548 -0.5372
33125SOL    HW111353   3.981  10.319   9.566 -0.6463  0.2309 -0.9096
33125SOL    HW211354   4.121  10.263   9.551 -1.3199 -1.7735 -0.1823
33126SOL     OW11355  10.363   8.953   0.570 -0.0321 -0.3860 -0.1354
33126SOL    HW111356  10.305   8.877   0.572 -0.4459 -0.1388 -1.6148
33126SOL    HW211357  10.445   8.922   0.608 -0.8116 -1.0011  1.1361
33127SOL     OW11358   3.376   4.385   8.648  0.3313 -0.9671 -0.4188
33127SOL    HW111359   3.341   4.474   8.647 -2.3719 -1.9276  0.1555
33127SOL    HW211360   3.423   4.377   8.564 -2.2860 -0.0146 -2.1079
33128SOL     OW11361   1.129   9.351   2.473  0.2837  0.4775  0.2704
33128SOL    HW111362   1.061   9.323   2.412 -0.5389  0.6891  1.0755
33128SOL    HW211363   1.082   9.394   2.544  1.1819 -0.2041  1.3185
33129SOL     OW11364   0.523   3.166   4.151 -0.2808 -0.2970 -0.2511
33129SOL    HW111365   0.505   3.073   4.133  0.7450 -0.3609 -1.0058
33129SOL    HW211366   0.496   3.211   4.071 -0.3479  0.0095 -0.0584
33130SOL     OW11367   1.361   4.790   6.226  0.0403 -0.2652  0.3130
33130SOL    HW111368   1.315   4.841   6.159 -0.9723 -2.1174 -0.5040
33130SOL    HW211369   1.446   4.769   6.186  0.0070 -0.1565  0.1867
33131SOL     OW11370   5.291   0.586   2.080  0.3378 -0.0556 -0.4029
33131SOL    HW111371   5.243   0.535   2.014  0.8316 -0.8298 -0.1808
33131SOL    HW211372   5.283   0.677   2.051 -0.7146 -0.2342 -0.7120
33132SOL     OW11373   3.844   2.041   6.414  1.0590  0.3627  0.7613
33132SOL    HW111374   3.791   2.120   6.427  0.4142 -0.0090  0.4332
33132SOL    HW211375   3.809   1.978   6.478 -0.0367 -0.4373 -0.5530
33133SOL     OW11376   9.493   0.222   0.950 -0.8520 -0.1163 -0.0898
33133SOL    HW111377   9.555   0.197   1.019 -0.9659 -0.6497 -0.1779
33133SOL    HW211378   9.543   0.215   0.869 -0.9165 -0.1673 -0.1253
33134SOL     OW11379   9.471   7.937   1.771 -0.3556 -0.2731  0.0867
33134SOL    HW111380   9.545   7.876   1.775 -0.4986 -0.6942 -2.2260
33134SOL    HW211381   9.511   8.023   1.768  0.0146 -0.4515 -0.1591
33135SOL     OW11382   6.841  10.036  10.223 -0.0678 -0.1677 -0.8079
33135SOL    HW111383   6.931  10.052  10.250  0.0057 -0.5394 -0.8299
33135SOL    HW211384   6.848  10.009  10.131 -0.2581  0.4234 -1.0038
33136SOL     OW11385   5.321   8.735   2.711 -0.4792  0.1085 -0.3475
33136SOL    HW111386   5.267   8.796   2.761  0.0299 -0.0299  0.3922
33136SOL    HW211387   5.290   8.743   2.621 -1.7485  0.0057  0.0648
33137SOL     OW11388   1.725   2.850   1.919  0.0768 -0.0304  0.3624
33137SOL    HW111389   1.650   2.807   1.961 -0.4903 -0.2210 -0.8019
33137SOL    HW211390   1.801   2.801   1.951 -0.3022 -0.0282  1.3284
33138SOL     OW11391   0.407  10.119   4.641 -0.4210  0.2270  0.8092
33138SOL    HW111392   0.456  10.037   4.647 -0.2215  0.2963  0.1721
33138SOL    HW211393   0.346  10.116   4.714  0.4238  0.0682  1.5230
33139SOL     OW11394   2.266   8.745   7.068 -0.2087 -0.1904 -0.1910
33139SOL    HW111395   2.214   8.724   7.146 -0.5927 -0.1217 -0.4260
33139SOL    HW211396   2.231   8.688   7.000 -0.9502  0.8588 -0.7193
33140SOL     OW11397   0.066   8.280   6.852  0.7984 -0.0094 -0.0013
33140SOL    HW111398   0.052   8.370   6.823 -0.6071  0.4500  1.9151
33140SOL    HW211399   0.097   8.289   6.942  2.1181 -1.4410 -0.2683
33141SOL     OW11400   9.496   3.889  10.171 -0.3778 -0.1519  0.0407
33141SOL    HW111401   9.558   3.816  10.168 -0.4802 -0.2832  0.7473
33141SOL    HW211402   9.446   3.882  10.090  1.1068  0.4916 -0.9754
33142SOL     OW11403   0.189   9.773   1.648 -0.3136  0.3269  0.2735
33142SOL    HW111404   0.152   9.827   1.578 -0.1595 -1.0701 -0.9577
33142SOL    HW211405   0.120   9.766   1.713 -0.2315  2.1973  0.5953
33143SOL     OW11406  10.156   1.991   4.358  0.0495 -0.4897  0.1652
33143SOL    HW111407  10.193   1.906   4.381  1.0531 -0.1250 -0.0455
33143SOL    HW211408  10.201   2.054   4.414 -0.3527 -0.0386 -0.0048
33144SOL     OW11409   0.611   8.526   5.860 -0.3022 -0.1075 -0.3312
33144SOL    HW111410   0.699   8.535   5.823  0.4480 -2.3070  0.7239
33144SOL    HW211411   0.559   8.488   5.789 -0.5386  1.5708 -1.0874
33145SOL     OW11412   3.985   9.437   8.295  0.4470  0.0010 -0.3879
33145SOL    HW111413   3.892   9.437   8.315  0.5386 -0.6482  0.0742
33145SOL    HW211414   4.028   9.441   8.381  0.8456  0.6061 -0.6068
33146SOL     OW11415   8.124   9.613   8.148 -0.6093 -0.5163 -0.5446
33146SOL    HW111416   8.104   9.701   8.116  0.3344 -0.1170 -0.0516
33146SOL    HW211417   8.183   9.576   8.083  0.9245  0.1189  0.4529
33147SOL     OW11418   7.232   9.922   1.247  0.0085  0.7164 -0.1985
33147SOL    HW111419   7.246   9.829   1.267  1.3943  1.2199  1.3772
33147SOL    HW211420   7.198   9.922   1.158 -0.6265 -1.3405 -0.0064
33148SOL     OW11421   8.109   8.664   7.298  0.3506  0.0567  0.4866
33148SOL    HW111422   8.123   8.589   7.240 -2.6710 -0.2418 -0.0019
33148SOL    HW211423   8.112   8.740   7.240 -0.7932 -0.0854  0.2181
33149SOL     OW11424   9.557   4.320   1.989  0.1635 -0.0719  0.4556
33149SOL    HW111425   9.622   4.249   1.983 -1.5314 -1.6105 -0.6846
33149SOL    HW211426   9.550   4.337   2.083  1.5117 -0.5230  0.6615
33150SOL     OW11427   5.953   7.692   5.884  0.0544  0.7616 -0.1565
33150SOL    HW111428   5.947   7.741   5.966  0.6182  0.3279  0.1498
33150SOL    HW211429   5.946   7.600   5.911  2.5511  0.4662 -0.3049
33151SOL     OW11430   0.840   0.319   5.799  0.0479 -0.0631  0.0230
33151SOL    HW111431   0.912   0.283   5.851  0.8685 -2.0242 -2.2723
33151SOL    HW211432   0.881   0.344   5.716 -1.8144 -0.9692 -1.2456
33152SOL     OW11433   8.020  10.186   0.103 -0.0073 -0.4364  0.4071
33152SOL    HW111434   8.052  10.240   0.175 -0.5503 -1.2654  1.2987
33152SOL    HW211435   7.953  10.239   0.060  0.2758  0.0409  0.5476
33153SOL     OW11436   7.958   9.595   4.743  0.0169  0.4950  0.0300
33153SOL    HW111437   7.915   9.612   4.827  0.2598  0.3964  0.1759
33153SOL    HW211438   8.012   9.517   4.759 -1.2281 -0.5529 -0.6677
33154SOL     OW11439   1.373   2.856   0.743 -0.2272 -0.6256 -0.0658
33154SOL    HW111440   1.331   2.914   0.806 -0.5809 -0.6610 -0.2632
33154SOL    HW211441   1.404   2.915   0.673 -1.1484 -0.7321 -0.5743
33155SOL     OW11442   4.004   4.706   6.031  0.0092 -0.1754  0.3053
33155SOL    HW111443   4.030   4.703   5.939 -2.3425  0.5399 -0.4371
33155SOL    HW211444   3.938   4.638   6.041 -0.7119  0.6117  1.1388
33156SOL     OW11445   1.069   2.981   0.178  0.2172 -0.2559 -0.2269
33156SOL    HW111446   1.114   2.980   0.262  1.1434  0.1572 -0.7102
33156SOL    HW211447   1.129   3.024   0.118 -0.0420 -1.3416 -1.3197
33157SOL     OW11448   2.343   8.124   7.082  0.4327 -0.0099 -0.4322
33157SOL    HW111449   2.377   8.134   6.993  1.5656  0.9193  0.0874
33157SOL    HW211450   2.415   8.149   7.139 -0.7550  0.8941  0.7419
33158SOL     OW11451   9.433   8.441   2.920 -0.0400 -0.1340 -0.6990
33158SOL    HW111452   9.460   8.530   2.943 -0.2691  0.1618 -1.5288
33158SOL    HW211453   9.397   8.406   3.001 -0.6744  0.8121 -0.5454
33159SOL     OW11454   0.742   0.313   0.663 -0.7408 -0.0410  0.1302
33159SOL    HW111455   0.797   0.326   0.740  2.0529 -1.5022 -1.4917
33159SOL    HW211456   0.698   0.229   0.679  0.7377 -0.9286 -0.3190
33160SOL     OW11457   8.213   3.340   1.239  0.6840  0.2113 -0.3046
33160SOL    HW111458   8.233   3.247   1.253  0.1154  0.0546 -0.5307
33160SOL    HW211459   8.239   3.356   1.148  2.3962  0.7092  0.2347
33161SOL     OW11460   0.201   7.749   9.432 -0.3459  0.3049 -0.0483
33161SOL    HW111461   0.283   7.715   9.395 -1.1052 -0.0805 -1.4487
33161SOL    HW211462   0.186   7.831   9.385 -0.6011  0.5406  0.4394
33162SOL     OW11463   7.716   8.866   9.786  0.0040  0.7363 -0.1340
33162SOL    HW111464   7.634   8.848   9.830  0.5632  0.9116  1.0199
33162SOL    HW211465   7.697   8.855   9.693 -0.4318 -2.9007  0.2482
33163SOL     OW11466   1.357   9.270   6.073  0.2313 -0.5968  0.0465
33163SOL    HW111467   1.282   9.317   6.034  0.8324 -0.2023 -0.6559
33163SOL    HW211468   1.432   9.296   6.020  0.6162 -2.2807 -0.3027
33164SOL     OW11469   7.203   6.015   5.029  0.0914 -0.0150 -0.0021
33164SOL    HW111470   7.141   5.995   4.959 -0.7103  3.2037 -0.3795
33164SOL    HW211471   7.178   5.957   5.101 -2.5015  0.2232 -0.6157
33165SOL     OW11472   9.281   6.967   2.876  0.5236  0.2667  0.5325
33165SOL    HW111473   9.375   6.985   2.883  0.4617  0.6164  0.5051
33165SOL    HW211474   9.251   7.026   2.806  0.3628 -0.1484  0.2452
33166SOL     OW11475   8.032   0.146   4.224 -0.4302  0.1481 -0.4063
33166SOL    HW111476   8.048   0.113   4.312  0.9254 -2.1061 -1.4426
33166SOL    HW211477   8.115   0.184   4.197 -0.1680 -1.1867 -1.5251
33167SOL     OW11478   6.558   9.745   7.122 -0.2596 -0.4777 -0.1390
33167SOL    HW111479   6.534   9.831   7.157 -1.6378 -0.8870  0.0018
33167SOL    HW211480   6.622   9.710   7.184  1.4769  1.0326 -0.9863
33168SOL     OW11481   7.225   1.311   5.312 -0.0028 -0.3371  0.2298
33168SOL    HW111482   7.297   1.347   5.363 -0.7966 -0.3321  1.3951
33168SOL    HW211483   7.178   1.387   5.279 -0.6250 -0.3066  1.1606
33169SOL     OW11484   3.217   5.282   2.978 -0.2684 -0.2149 -0.7454
33169SOL    HW111485   3.158   5.358   2.969 -0.8756 -0.6717 -0.6776
33169SOL    HW211486   3.262   5.278   2.893 -2.4128 -1.5454 -1.9346
33170SOL     OW11487   9.834   6.367   6.181 -0.2167 -0.2293 -0.0073
33170SOL    HW111488   9.852   6.436   6.116 -1.0734 -0.3019 -0.3276
33170SOL    HW211489   9.745   6.385   6.211  0.3041  0.0308  1.4504
33171SOL     OW11490   3.550   7.944   2.216  0.3381  0.4898  0.4827
33171SOL    HW111491   3.581   8.011   2.155 -1.1318  1.4858  0.7816
33171SOL    HW211492   3.545   7.989   2.300 -2.7857  0.7225  0.2799
33172SOL     OW11493   0.537   4.387   9.856  0.3121 -0.2085  0.2676
33172SOL    HW111494   0.479   4.460   9.872  0.6470  0.2408 -0.4937
33172SOL    HW211495   0.479   4.313   9.839 -0.0294 -0.2692  1.5867
33173SOL     OW11496   1.775   0.052   4.867 -0.1481  0.1816  0.4826
33173SOL    HW111497   1.799  -0.014   4.932 -2.8648 -0.3940  1.0348
33173SOL    HW211498   1.751   0.001   4.790  2.8984  0.8521 -1.0597
33174SOL     OW11499   1.413   7.556   8.582 -0.9593  0.1662  0.4555
33174SOL    HW111500   1.464   7.527   8.506  0.7430  1.8716  0.8596
33174SOL    HW211501   1.352   7.485   8.599  0.7608 -1.6626 -0.5783
33175SOL     OW11502   5.185   0.207   4.786 -0.2909 -0.0744 -0.1547
33175SOL    HW111503   5.173   0.119   4.749  0.1152 -0.6150  0.9479
33175SOL    HW211504   5.138   0.204   4.869  0.9584  0.2566  0.5833
33176SOL     OW11505   3.853   2.249   1.028  0.0933  0.0026 -0.3455
33176SOL    HW111506   3.760   2.273   1.029  0.6483  2.3499  0.0504
33176SOL    HW211507   3.873   2.228   1.120  0.6469  2.7781  0.2701
33177SOL     OW11508   8.905   7.372   3.508  0.3608 -0.5070 -0.0360
33177SOL    HW111509   8.951   7.402   3.586 -0.4818  0.2525  0.1785
33177SOL    HW211510   8.814   7.367   3.535 -0.0106  0.2550 -1.1233
33178SOL     OW11511   0.147   3.477  10.325  0.2652  0.2045  0.3602
33178SOL    HW111512   0.055   3.448  10.319 -0.2994  2.0463 -0.9175
33178SOL    HW211513   0.173   3.490  10.234  1.4706  0.6957  0.7647
33179SOL     OW11514   2.195   1.386   4.300 -0.0922  0.0651 -0.8531
33179SOL    HW111515   2.125   1.450   4.289  0.1947  0.3348 -1.1120
33179SOL    HW211516   2.193   1.333   4.220 -1.9584 -1.8920  0.3603
33180SOL     OW11517   9.611   7.022   3.798 -0.1330  0.0336  0.7927
33180SOL    HW111518   9.672   7.095   3.809 -0.1358 -0.1659  2.3962
33180SOL    HW211519   9.529   7.053   3.837  0.1250 -1.1142  2.3399
33181SOL     OW11520   7.985   6.380   8.416 -0.3546  0.5554 -0.4089
33181SOL    HW111521   8.029   6.327   8.350  1.1398  1.0095  0.1726
33181SOL    HW211522   8.048   6.387   8.488 -1.0753  1.8942  0.1450
33182SOL     OW11523   7.213   1.262   2.817  0.3553 -0.4652 -0.4058
33182SOL    HW111524   7.150   1.243   2.887 -1.0623  0.6446 -1.3214
33182SOL    HW211525   7.218   1.180   2.767 -1.7856 -0.0653 -1.3672
33183SOL     OW11526   1.553   7.065   6.804 -0.1537 -0.4743  0.3776
33183SOL    HW111527   1.566   7.021   6.720  1.4595  2.1145 -0.8225
33183SOL    HW211528   1.627   7.124   6.812 -0.0480 -0.8947  3.8687
33184SOL     OW11529   3.244   6.879   8.543  0.1456 -0.0992 -0.8486
33184SOL    HW111530   3.263   6.957   8.491  1.1538  0.2291 -0.0429
33184SOL    HW211531   3.156   6.894   8.577 -0.6340 -0.4326 -2.6071
33185SOL     OW11532   4.436   3.431   7.557 -0.4077 -0.4141  0.6522
33185SOL    HW111533   4.398   3.513   7.528  0.4847 -0.0102  0.5949
33185SOL    HW211534   4.484   3.453   7.637  1.0049 -0.5589 -0.1120
33186SOL     OW11535   6.453   8.829   7.371 -0.0607  0.0686 -0.0500
33186SOL    HW111536   6.494   8.906   7.332  1.0824 -0.1081  0.7599
33186SOL    HW211537   6.526   8.769   7.389 -0.8190 -0.7850  0.2510
33187SOL     OW11538   5.404   9.610   0.598  0.0160  0.8361 -0.2814
33187SOL    HW111539   5.399   9.639   0.690  1.7598 -0.4209  0.2705
33187SOL    HW211540   5.468   9.669   0.559  1.4005 -0.3695  0.0898
33188SOL     OW11541   7.702   3.939   0.722  0.2423 -0.1650  0.3212
33188SOL    HW111542   7.723   3.971   0.810 -2.1968  2.0384  0.2477
33188SOL    HW211543   7.754   3.994   0.663 -0.8087  0.9047  0.3403
33189SOL     OW11544  10.309   0.420   1.073 -0.3323 -0.7107  0.2188
33189SOL    HW111545  10.330   0.431   0.980 -2.1533  2.2857  0.0119
33189SOL    HW211546  10.214   0.412   1.075 -0.3470 -0.4873  1.8276
33190SOL     OW11547   3.580   4.016   1.664 -0.4686 -0.2546 -0.4335
33190SOL    HW111548   3.514   4.083   1.644  0.3823 -0.1494 -3.4670
33190SOL    HW211549   3.538   3.958   1.727 -2.6875  0.9734 -0.6828
33191SOL     OW11550   3.566  10.321   0.228  0.5473  0.1960  0.1183
33191SOL    HW111551   3.535  10.231   0.218  0.2390  0.1834  1.1001
33191SOL    HW211552   3.658  10.318   0.201  0.1312 -0.0820 -1.3434
33192SOL     OW11553   3.673   8.914   3.844 -0.5314 -1.1568  0.3965
33192SOL    HW111554   3.751   8.859   3.835 -0.3892 -0.7293 -1.2924
33192SOL    HW211555   3.613   8.861   3.896  0.9186 -1.4271  1.8519
33193SOL     OW11556   7.775   1.369   1.271  0.6626  0.0837  0.2847
33193SOL    HW111557   7.685   1.393   1.292 -0.0179 -1.0307 -1.1830
33193SOL    HW211558   7.767   1.305   1.200  2.6363  0.4814 -0.3596
33194SOL     OW11559   6.944   7.994   3.742  0.6053  0.3841  0.1339
33194SOL    HW111560   6.927   7.938   3.818 -0.7698  0.7571  0.1307
33194SOL    HW211561   6.912   8.080   3.768  1.9068  0.9938 -0.1808
33195SOL     OW11562   3.356   3.665  10.185  0.8761  0.0343  0.4659
33195SOL    HW111563   3.271   3.655  10.143 -0.2143  0.5007  2.4653
33195SOL    HW211564   3.388   3.750  10.156 -0.0883  0.5686  0.9407
33196SOL     OW11565   0.403   0.555   1.944 -0.4714  0.0692 -0.3859
33196SOL    HW111566   0.308   0.546   1.932 -0.3088  0.1004 -1.9385
33196SOL    HW211567   0.419   0.649   1.933 -0.3140  0.1441  0.4273
33197SOL     OW11568   5.455   3.489   9.130 -0.3070  0.3234  0.4120
33197SOL    HW111569   5.387   3.482   9.196 -0.6366 -0.4879 -0.0006
33197SOL    HW211570   5.429   3.564   9.076 -2.8195 -1.9881 -1.8618
33198SOL     OW11571   7.279   4.978   9.625 -0.2344 -0.1869  0.1788
33198SOL    HW111572   7.282   4.971   9.529  0.2499  1.3918  0.0345
33198SOL    HW211573   7.262   4.889   9.655 -2.1160 -0.4484 -1.4305
33199SOL     OW11574   8.875   4.461   4.096 -0.1515 -0.2703  0.3293
33199SOL    HW111575   8.960   4.501   4.114 -0.8893  0.3481  2.7780
33199SOL    HW211576   8.872   4.383   4.151 -0.4578 -1.3808 -1.1827
33200SOL     OW11577   4.735   8.533   8.026  0.5831  0.2727  0.2711
33200SOL    HW111578   4.697   8.484   7.954  0.3764  1.0912 -0.1916
33200SOL    HW211579   4.752   8.620   7.990 -0.6999  1.0973  1.5292
33201SOL     OW11580   0.765   9.382   2.120 -0.4065  0.1295 -0.0764
33201SOL    HW111581   0.688   9.355   2.172  0.2925 -1.4962  0.1722
33201SOL    HW211582   0.743   9.356   2.031  0.2693 -1.3274  0.1635
33202SOL     OW11583   5.903   9.738   2.631  0.0350  0.1328  0.3656
33202SOL    HW111584   5.844   9.810   2.611 -0.8239 -0.8443 -0.7801
33202SOL    HW211585   5.898   9.728   2.726  0.5199  1.8441  0.6003
33203SOL     OW11586   2.356   0.558   9.528  0.0536 -0.7518  0.0922
33203SOL    HW111587   2.297   0.611   9.581 -0.8971 -0.9926 -0.6839
33203SOL    HW211588   2.333   0.468   9.551  1.4536 -0.8579  1.1881
33204SOL     OW11589   9.009   6.509   6.182  0.4229 -0.8996 -0.5291
33204SOL    HW111590   8.981   6.492   6.092 -0.2126 -0.3939 -0.4305
33204SOL    HW211591   8.958   6.585   6.209  2.4415  0.5418 -0.6000
33205SOL     OW11592   4.528  10.279   9.103  0.2547  0.3240  0.0645
33205SOL    HW111593   4.567  10.194   9.123  1.9930  0.3216 -2.7804
33205SOL    HW211594   4.440  10.258   9.070  0.3528 -0.2987  0.1895
33206SOL     OW11595   1.617   5.236   8.853  0.4963 -0.5502  0.0798
33206SOL    HW111596   1.625   5.145   8.826  0.8912 -0.3758 -0.4311
33206SOL    HW211597   1.582   5.281   8.776  1.0309 -0.1469  0.0637
33207SOL     OW11598   2.492   2.942   3.120  0.0863 -0.5823  0.6711
33207SOL    HW111599   2.433   2.910   3.188  0.5015  0.7138  1.6750
33207SOL    HW211600   2.539   2.864   3.091 -0.9858 -1.3603  0.9792
33208SOL     OW11601   1.587   5.767   5.605  0.4051 -0.2254  0.5774
33208SOL    HW111602   1.641   5.823   5.661 -0.6829 -1.0687  2.5597
33208SOL    HW211603   1.503   5.813   5.600  0.8110  0.4008 -1.3645
33209SOL     OW11604   3.637   2.855   6.405  0.3823  0.4322  0.0437
33209SOL    HW111605   3.668   2.837   6.494  0.0884  1.4823  0.3652
33209SOL    HW211606   3.717   2.874   6.356  0.3602  2.5482  0.7369
33210SOL     OW11607   4.715   1.141   3.334 -0.2760 -0.5750  0.3272
33210SOL    HW111608   4.685   1.161   3.422  1.5925 -0.7140  1.0361
33210SOL    HW211609   4.685   1.214   3.281 -2.6719 -1.1763  0.7413
33211SOL     OW11610   9.299   5.536   5.167  0.1127 -0.0721  0.4007
33211SOL    HW111611   9.375   5.501   5.214  0.8213  0.6640 -0.1691
33211SOL    HW211612   9.232   5.546   5.234  0.6104 -0.4536  0.9664
33212SOL     OW11613   4.132   8.750   5.280 -0.1763 -0.0126 -0.1376
33212SOL    HW111614   4.083   8.831   5.270 -1.6965 -1.0180 -1.3762
33212SOL    HW211615   4.166   8.731   5.192  2.1235  0.4041  0.5896
33213SOL     OW11616   7.534   9.503   8.003  0.4617  0.2629  0.3363
33213SOL    HW111617   7.551   9.415   7.968 -0.3904 -0.2430  1.1289
33213SOL    HW211618   7.547   9.494   8.097 -2.0193  0.3090  0.7725
33214SOL     OW11619   8.836   6.263   8.202  0.2719 -0.3266  0.4444
33214SOL    HW111620   8.776   6.195   8.170  0.2266 -0.4773  0.8490
33214SOL    HW211621   8.908   6.215   8.241  0.1756 -0.1446  0.8524
33215SOL     OW11622   6.358   9.550   5.013 -0.1573  0.0340  0.2645
33215SOL    HW111623   6.276   9.508   4.988  0.3573 -1.5332  1.1009
33215SOL    HW211624   6.410   9.481   5.054  1.2144  1.2120  0.6251
33216SOL     OW11625   5.556   8.118   5.404 -0.0917  0.8564  0.1531
33216SOL    HW111626   5.562   8.141   5.312 -0.9734  1.8888  0.3313
33216SOL    HW211627   5.603   8.188   5.450 -0.7356  1.0299  0.5623
33217SOL     OW11628   3.898   4.928   8.874 -0.7212  0.1989  0.0160
33217SOL    HW111629   3.984   4.929   8.831 -0.5715 -0.5969  0.2886
33217SOL    HW211630   3.835   4.939   8.802 -0.4359 -0.2400 -0.3043
33218SOL     OW11631   0.149   8.372   2.538  0.0828  0.2914 -0.4968
33218SOL    HW111632   0.114   8.299   2.589 -0.8830  1.4081  0.4968
33218SOL    HW211633   0.228   8.336   2.496 -0.2042 -1.2241  0.1869
33219SOL     OW11634   2.685   7.380   5.308  0.7602  0.0243 -0.1870
33219SOL    HW111635   2.634   7.448   5.353 -0.2376 -0.7684 -0.0923
33219SOL    HW211636   2.620   7.321   5.272  1.6050 -0.5385 -0.8350
33220SOL     OW11637   5.815   9.661   1.519  0.2720 -0.0215  0.3601
33220SOL    HW111638   5.808   9.729   1.451 -2.1786 -2.2244 -1.8326
33220SOL    HW211639   5.899   9.619   1.501 -0.1904 -0.3634 -1.2441
33221SOL     OW11640   7.841   9.961   3.738 -0.0335 -0.1278 -0.1811
33221SOL    HW111641   7.814   9.939   3.827 -2.8469  2.3075 -0.3052
33221SOL    HW211642   7.870  10.052   3.743  0.0445 -0.0395 -1.6941
33222SOL     OW11643   8.132   5.919   9.678  0.3368  0.6935 -0.5719
33222SOL    HW111644   8.130   5.824   9.675  0.9422  0.6014  0.9418
33222SOL    HW211645   8.222   5.942   9.658 -0.0315  1.0167 -1.9151
33223SOL     OW11646   9.955   9.821   1.993 -0.1486 -0.4464 -0.5628
33223SOL    HW111647   9.880   9.848   2.046  0.3432  1.4293 -0.7470
33223SOL    HW211648   9.930   9.841   1.903  2.0250  4.5458 -0.3981
33224SOL     OW11649   2.666   6.313   6.486  0.3098 -0.1647  0.8566
33224SOL    HW111650   2.683   6.229   6.529  1.5199 -1.2920 -1.6401
33224SOL    HW211651   2.733   6.319   6.419  0.4203  2.9903  1.1276
33225SOL     OW11652   9.856   4.301   2.342 -0.3061  0.0413  0.0306
33225SOL    HW111653   9.805   4.228   2.307 -0.8310 -0.2240  1.3241
33225SOL    HW211654   9.855   4.289   2.437  2.5476 -0.2474  0.1228
33226SOL     OW11655  10.167   3.002   7.354 -0.4391  0.1231 -0.7723
33226SOL    HW111656  10.189   2.934   7.291  2.8173 -1.6735  1.9428
33226SOL    HW211657  10.091   2.968   7.401  0.0210 -0.8142 -0.6795
33227SOL     OW11658   1.758   9.839  10.049 -0.2477  0.4339 -0.1621
33227SOL    HW111659   1.804   9.922  10.063 -0.0347  0.6444 -1.9293
33227SOL    HW211660   1.666   9.860  10.064  0.0876 -0.1335  4.0646
33228SOL     OW11661   7.506   0.985   6.398  0.0313  0.0164  0.3379
33228SOL    HW111662   7.506   0.932   6.477 -0.5518  0.9279  0.9767
33228SOL    HW211663   7.420   0.970   6.358  0.6460 -1.1132 -0.6104
33229SOL     OW11664   1.917   7.239   1.085  0.0045 -0.3638  0.0577
33229SOL    HW111665   1.990   7.292   1.118 -0.1408 -0.2008  0.1148
33229SOL    HW211666   1.902   7.175   1.155  0.0208 -0.3290  0.0933
33230SOL     OW11667   3.095   1.356   0.099  0.3087 -0.0702  0.2014
33230SOL    HW111668   3.119   1.389   0.013  0.5804 -0.1407  0.2499
33230SOL    HW211669   3.089   1.434   0.154 -0.4549  0.0353 -0.0187
33231SOL     OW11670   6.469   5.574   9.944  0.1638  0.2951 -0.2200
33231SOL    HW111671   6.502   5.660   9.917 -0.9131  0.4317 -1.2114
33231SOL    HW211672   6.488   5.569  10.038 -1.4334  2.4421  0.3023
33232SOL     OW11673   4.112   2.781   7.837  0.3318  0.1617 -0.3158
33232SOL    HW111674   4.170   2.717   7.796 -0.0392  0.2421 -0.9780
33232SOL    HW211675   4.124   2.861   7.786 -1.6599 -0.2934 -1.6517
33233SOL     OW11676   6.003   2.188   9.997  0.7595 -0.4215 -0.7904
33233SOL    HW111677   6.026   2.117  10.058 -1.7861  0.1542  0.9883
33233SOL    HW211678   5.979   2.143   9.916  0.1858 -1.5374 -0.0250
33234SOL     OW11679   4.060   5.131   5.966 -0.6622  0.0610  0.3076
33234SOL    HW111680   4.150   5.102   5.955 -0.6461  0.1710  0.1426
33234SOL    HW211681   4.010   5.076   5.906 -0.6843  0.1035  0.2870
33235SOL     OW11682   6.329   0.765   9.506  0.3695  0.0386  0.3598
33235SOL    HW111683   6.294   0.781   9.418  0.5325 -0.4930  0.1971
33235SOL    HW211684   6.285   0.831   9.560  0.7174  0.7673 -0.2177
33236SOL     OW11685   8.298   4.857   6.294 -0.3685  0.7023 -0.0666
33236SOL    HW111686   8.357   4.869   6.219  0.2373 -0.3762  0.2091
33236SOL    HW211687   8.349   4.804   6.355 -1.8807 -0.8698 -0.1193
33237SOL     OW11688  10.368   7.942   8.241 -0.3721 -0.1997  0.6761
33237SOL    HW111689  10.408   7.971   8.323  0.4493  1.3012 -0.2102
33237SOL    HW211690  10.428   7.878   8.205 -0.2654 -0.1684  0.7991
33238SOL     OW11691  10.125   1.341   2.149 -0.4046  0.3442 -0.3205
33238SOL    HW111692  10.141   1.272   2.084 -0.4938  1.5340 -1.6579
33238SOL    HW211693  10.033   1.328   2.175 -0.4528  0.0173 -0.6404
33239SOL     OW11694   4.214   1.999   0.565 -0.3973  0.2779 -0.4669
33239SOL    HW111695   4.249   1.917   0.530  0.2469  0.7684 -1.0039
33239SOL    HW211696   4.119   1.984   0.569 -0.3026 -0.4517 -0.6650
33240SOL     OW11697   7.090   6.256   9.628  0.2628 -0.6230  0.0162
33240SOL    HW111698   7.089   6.321   9.558  0.2771 -1.1669 -0.5001
33240SOL    HW211699   7.161   6.284   9.686 -0.1558  0.1796  0.1533
33241SOL     OW11700   3.195  10.301   0.790  0.4630  0.2516 -0.8596
33241SOL    HW111701   3.226  10.287   0.880 -2.2438 -0.6936  0.0433
33241SOL    HW211702   3.270  10.277   0.735  1.6721 -0.8375  1.1201
33242SOL     OW11703  10.221   2.763   5.235 -0.5683  0.0432 -0.1714
33242SOL    HW111704  10.208   2.733   5.325 -1.9980  0.0640 -0.3361
33242SOL    HW211705  10.232   2.682   5.185  4.0974  0.0461  0.4177
33243SOL     OW11706   7.085   2.869   6.800 -0.1644  0.5132  0.6677
33243SOL    HW111707   7.118   2.954   6.771 -1.4630  1.0909  0.8038
33243SOL    HW211708   7.043   2.831   6.723  2.5034 -1.1395 -0.0758
33244SOL     OW11709   6.739   9.725   3.171  0.5283 -0.2762  0.4336
33244SOL    HW111710   6.797   9.649   3.167 -0.7671 -1.4213  1.9432
33244SOL    HW211711   6.706   9.735   3.082  2.5533  0.0472 -0.3217
33245SOL     OW11712  10.368   9.212   6.585  0.2553  0.6356  0.1310
33245SOL    HW111713  10.437   9.168   6.635 -0.0205  0.0133 -0.0188
33245SOL    HW211714  10.306   9.142   6.565  0.1229  0.9740 -0.6617
33246SOL     OW11715   4.455   7.072   9.741  0.2759 -0.2382  0.7460
33246SOL    HW111716   4.469   7.156   9.784  1.3034 -0.3487  0.6627
33246SOL    HW211717   4.519   7.013   9.783  0.2666 -0.7159  0.1002
33247SOL     OW11718   2.207   7.468   8.578  0.1381 -0.2305 -0.2342
33247SOL    HW111719   2.157   7.488   8.498 -0.3381 -1.0617 -0.1543
33247SOL    HW211720   2.155   7.401   8.622  0.5823 -0.0339  0.6058
33248SOL     OW11721   9.171   1.210   8.590  0.6684  0.4018  0.0348
33248SOL    HW111722   9.187   1.248   8.504  1.2733 -1.0584 -0.5413
33248SOL    HW211723   9.201   1.119   8.582  1.0008  0.3071  1.8738
33249SOL     OW11724   7.722   5.648   4.831 -0.1909 -0.3820  0.2284
33249SOL    HW111725   7.726   5.677   4.922  0.5795 -0.0767  0.1047
33249SOL    HW211726   7.813   5.630   4.807 -0.4388 -0.9075 -0.3405
33250SOL     OW11727   4.722   0.456   5.875 -0.3084 -0.2130  0.0815
33250SOL    HW111728   4.740   0.544   5.908 -0.3348  0.4421 -1.5299
33250SOL    HW211729   4.772   0.451   5.793 -1.2501 -1.2582 -0.4559
33251SOL     OW11730   3.252   7.223   4.214 -0.8855  0.0754  0.2663
33251SOL    HW111731   3.319   7.289   4.234 -1.8252  0.9600  0.5741
33251SOL    HW211732   3.217   7.198   4.300 -0.5172 -0.8548  0.1530
33252SOL     OW11733   5.569   7.223   8.743 -0.0647 -0.6704  0.0167
33252SOL    HW111734   5.491   7.273   8.722 -0.7329 -1.5667  0.3292
33252SOL    HW211735   5.638   7.261   8.688 -0.4554  0.8447  0.5437
33253SOL     OW11736   1.133   7.552   8.249  0.1070 -0.4243  0.1336
33253SOL    HW111737   1.102   7.539   8.338 -1.1155 -0.2420 -0.2436
33253SOL    HW211738   1.064   7.513   8.194  1.8104 -2.4402 -0.6981
33254SOL     OW11739   1.948   6.997   6.715  0.5980  0.0970 -0.3186
33254SOL    HW111740   1.965   7.070   6.775  0.7843  0.4591 -0.8014
33254SOL    HW211741   1.921   7.040   6.633 -0.9211 -0.4149 -0.1126
33255SOL     OW11742   0.797   4.381   4.400  0.2447  0.4194  0.5779
33255SOL    HW111743   0.768   4.421   4.482  1.5291  0.0447  1.2291
33255SOL    HW211744   0.843   4.451   4.354  1.8002 -0.0435  1.3651
33256SOL     OW11745   1.565   6.012  10.187  0.0441 -0.8247 -0.4640
33256SOL    HW111746   1.568   5.922  10.219 -1.8205 -0.0741  2.2139
33256SOL    HW211747   1.474   6.024  10.158 -0.1540  0.5605  0.6365
33257SOL     OW11748   6.999   3.902   3.655 -0.4719  0.3513 -0.1008
33257SOL    HW111749   7.037   3.979   3.614 -1.0382  0.2367 -0.8535
33257SOL    HW211750   7.054   3.830   3.626 -0.3879  0.3740  0.0008
33258SOL     OW11751   5.419   1.408   4.933 -0.1146  0.4773 -0.0426
33258SOL    HW111752   5.470   1.336   4.895 -0.9707 -0.7643  1.0967
33258SOL    HW211753   5.341   1.366   4.969 -1.1502  2.1227 -0.2594
33259SOL     OW11754  10.078   2.622   7.018 -0.1532  0.2045 -0.3416
33259SOL    HW111755  10.113   2.645   7.104  1.4503 -1.3359 -0.5195
33259SOL    HW211756  10.019   2.548   7.035  1.3065 -1.1016 -0.6519
33260SOL     OW11757   3.800   5.255   7.601 -0.3971  0.4003 -0.2927
33260SOL    HW111758   3.717   5.301   7.615 -0.5914  0.5537 -1.8425
33260SOL    HW211759   3.851   5.313   7.545 -0.0534 -0.5990 -1.0433
33261SOL     OW11760   2.599   7.893   4.465  0.8318  0.4316 -0.0934
33261SOL    HW111761   2.655   7.909   4.388 -0.4534  0.3825 -1.0700
33261SOL    HW211762   2.558   7.978   4.482  0.2414  0.1663 -0.1782
33262SOL     OW11763   0.507   1.108  10.012  0.7219 -0.0191  0.8283
33262SOL    HW111764   0.556   1.027   9.997  3.1912  1.3950  0.7071
33262SOL    HW211765   0.561   1.158  10.073 -0.0274  2.1310 -0.1690
33263SOL     OW11766   0.874   7.385   8.766  0.6505  0.3216 -0.5013
33263SOL    HW111767   0.914   7.300   8.747  2.5165  0.8315  0.8953
33263SOL    HW211768   0.843   7.378   8.856 -0.8253  0.5735 -0.9550
33264SOL     OW11769   9.857   8.158   2.375 -0.5898  0.0131 -0.2458
33264SOL    HW111770   9.853   8.065   2.352 -2.6720 -0.0646  0.2007
33264SOL    HW211771   9.950   8.180   2.370 -0.1543 -1.8405 -1.3177
33265SOL     OW11772   1.682   9.312   7.967 -0.0520 -0.0923  0.2721
33265SOL    HW111773   1.628   9.375   7.919 -1.3819 -0.9723  0.5482
33265SOL    HW211774   1.771   9.345   7.958 -0.2870  0.1045 -2.3275
33266SOL     OW11775  10.289   9.462   7.070 -0.8616 -0.2438 -0.6327
33266SOL    HW111776  10.248   9.505   6.995  0.3735  2.0824 -0.0834
33266SOL    HW211777  10.279   9.369   7.053 -1.6889  0.2170 -3.0692
33267SOL     OW11778   7.941   3.959   3.308  0.5454 -0.1082  0.3278
33267SOL    HW111779   7.978   4.037   3.350  2.1736 -1.6104  1.8203
33267SOL    HW211780   7.856   3.948   3.350  0.9547  0.0102  1.2065
33268SOL     OW11781   3.350   3.796   2.235  0.1785  0.3511  0.0180
33268SOL    HW111782   3.349   3.711   2.190  1.8624 -0.3862  1.2562
33268SOL    HW211783   3.348   3.773   2.328  4.2562  1.3800  0.5407
33269SOL     OW11784   6.457   0.652   0.790  0.4697 -0.6188 -0.0436
33269SOL    HW111785   6.452   0.573   0.843 -0.3639 -0.5071  0.0565
33269SOL    HW211786   6.381   0.703   0.815  0.9356  0.1720 -0.1888
33270SOL     OW11787   3.308   1.142   7.887 -0.1261  0.3044  0.2997
33270SOL    HW111788   3.399   1.140   7.917 -0.5611 -0.4397  1.6756
33270SOL    HW211789   3.292   1.054   7.852  0.0310  0.8173 -1.1186
33271SOL     OW11790   9.528   2.120   3.807  0.0758 -0.2576 -0.5013
33271SOL    HW111791   9.563   2.072   3.733 -0.6332 -0.4580 -0.7095
33271SOL    HW211792   9.587   2.099   3.880  1.3232  0.6754 -1.2042
33272SOL     OW11793   3.842   5.716   8.448 -0.2496 -0.1886  0.1433
33272SOL    HW111794   3.775   5.665   8.403  1.3362 -2.7667  0.4732
33272SOL    HW211795   3.826   5.701   8.541  0.3073 -0.2096  0.2448
33273SOL     OW11796   5.030   1.363   7.383 -0.2152  0.1393 -0.1802
33273SOL    HW111797   4.956   1.304   7.373  1.0796 -1.3804 -1.2581
33273SOL    HW211798   5.065   1.343   7.470  1.2743 -2.0567 -1.1988
33274SOL     OW11799   1.119   8.300   2.418 -0.6361 -0.4176  0.4505
33274SOL    HW111800   1.068   8.381   2.408  0.5294  0.1451 -1.4595
33274SOL    HW211801   1.174   8.316   2.494 -2.0602 -0.3788  1.5182
33275SOL     OW11802   9.854   6.169   7.512  0.2235 -0.0978 -0.6159
33275SOL    HW111803   9.832   6.262   7.517  0.2401 -0.1292  0.2655
33275SOL    HW211804   9.832   6.144   7.423  0.7891  0.8960 -1.0574
33276SOL     OW11805   8.733   5.624   7.996  0.2115 -0.4181 -0.3777
33276SOL    HW111806   8.717   5.599   7.905 -1.1480  0.0200 -0.2748
33276SOL    HW211807   8.812   5.678   7.993 -0.0625 -0.0691 -1.3457
33277SOL     OW11808   9.408   5.567   0.576 -0.0012  0.0294  0.8075
33277SOL    HW111809   9.364   5.486   0.550 -1.1613  1.3575 -1.8188
33277SOL    HW211810   9.336   5.625   0.604  0.4756  0.9610  0.1808
33278SOL     OW11811   2.239   5.778   4.268 -0.2552  0.4778 -0.2462
33278SOL    HW111812   2.318   5.776   4.321 -0.0421  1.8470 -0.4636
33278SOL    HW211813   2.172   5.814   4.326 -0.6737 -0.4346 -0.1414
33279SOL     OW11814   0.361   8.952   8.875 -0.4334 -0.1214 -0.2675
33279SOL    HW111815   0.456   8.960   8.867 -0.5870  1.7132 -0.7267
33279SOL    HW211816   0.332   9.041   8.897 -1.9110 -0.9624  1.4274
33280SOL     OW11817   6.903   0.308   7.456  0.3673  0.5685  0.0048
33280SOL    HW111818   6.944   0.244   7.515  1.3044  0.5318 -0.6622
33280SOL    HW211819   6.974   0.366   7.431 -0.7681  2.8908  1.8296
33281SOL     OW11820   8.579   8.003   5.562 -0.6473  0.3167 -0.0176
33281SOL    HW111821   8.655   8.004   5.620 -0.8512 -0.3730  0.2705
33281SOL    HW211822   8.504   8.001   5.621 -0.9094  1.4462 -0.2973
33282SOL     OW11823   3.523   0.154   6.559 -0.5323  0.4326 -0.0296
33282SOL    HW111824   3.434   0.124   6.578 -1.2838  1.5055 -1.6647
33282SOL    HW211825   3.513   0.243   6.527  1.2738  1.0255  0.8822
33283SOL     OW11826   7.273   9.257   9.795 -0.2710  0.3504 -0.3207
33283SOL    HW111827   7.312   9.170   9.779  0.1608  0.3782  0.5322
33283SOL    HW211828   7.303   9.280   9.882 -0.6658  1.2207 -0.4143
33284SOL     OW11829   8.090   6.889   5.267  0.4732  0.0559  0.1403
33284SOL    HW111830   8.181   6.873   5.293  0.1274 -1.1183  0.6987
33284SOL    HW211831   8.043   6.896   5.350  0.1708  1.4918 -0.1306
33285SOL     OW11832   0.872   7.474   0.812 -0.1887 -0.1861 -0.6921
33285SOL    HW111833   0.897   7.523   0.733  0.4411 -1.1353 -1.1047
33285SOL    HW211834   0.781   7.498   0.827  0.5997  2.5255  0.2105
33286SOL     OW11835   7.035   4.136   1.039  0.5422 -0.1092  0.7725
33286SOL    HW111836   7.023   4.102   0.950 -0.6657 -0.3589  1.0195
33286SOL    HW211837   7.120   4.181   1.036  0.4430  0.0289 -0.5499
33287SOL     OW11838   0.049   3.223  10.050  0.1290 -0.1451  0.1434
33287SOL    HW111839  -0.008   3.297  10.027 -0.4089 -0.3670  0.7613
33287SOL    HW211840  -0.007   3.146  10.042  0.5601 -0.4482 -0.0182
33288SOL     OW11841   4.985   4.843   0.621  0.0529  0.0567  0.3151
33288SOL    HW111842   5.007   4.754   0.594  1.7119  0.7441 -0.7238
33288SOL    HW211843   4.989   4.894   0.541  0.6698  1.3412  1.1296
33289SOL     OW11844   2.715   0.717   1.459 -0.1585  0.0742 -0.0386
33289SOL    HW111845   2.633   0.745   1.418 -0.6143  0.1503  0.8761
33289SOL    HW211846   2.702   0.736   1.552  0.7764 -0.2225  0.1638
33290SOL     OW11847   6.144   7.272   6.354  0.2061  0.8583 -0.0561
33290SOL    HW111848   6.230   7.278   6.313  0.5085  0.4277  0.5039
33290SOL    HW211849   6.109   7.361   6.350  0.9946  1.2014  0.3911
33291SOL     OW11850   0.859   7.336   4.578 -0.7507  1.0623  0.1209
33291SOL    HW111851   0.806   7.398   4.628  0.0591  2.6076 -0.8568
33291SOL    HW211852   0.938   7.385   4.555 -0.3556 -0.1318 -1.2372
33292SOL     OW11853   4.859   9.288   9.420  0.1404  0.5560 -0.1068
33292SOL    HW111854   4.895   9.200   9.418 -0.3155  0.3489  0.4281
33292SOL    HW211855   4.866   9.315   9.511 -2.3002 -0.0465  0.3301
33293SOL     OW11856   7.060   4.932   3.030 -0.3233  0.2951  0.0055
33293SOL    HW111857   7.015   4.994   3.086  1.1377  2.2896 -0.8779
33293SOL    HW211858   7.067   4.853   3.082 -1.2430  1.2344  1.6417
33294SOL     OW11859   0.328   8.669   0.453  0.2784 -0.0679 -0.7480
33294SOL    HW111860   0.308   8.724   0.529 -0.3666 -0.8503 -0.3325
33294SOL    HW211861   0.394   8.607   0.486  0.8300  0.2969 -1.1469
33295SOL     OW11862   2.930  10.141   9.157  0.4537  0.0068 -0.0272
33295SOL    HW111863   2.910  10.079   9.227  0.1040  1.1426  0.9063
33295SOL    HW211864   3.018  10.117   9.128 -0.4923 -2.3321 -1.2450
33296SOL     OW11865   8.743   1.504   7.220 -0.2702  0.0010 -0.1599
33296SOL    HW111866   8.748   1.589   7.263 -0.7341 -0.2878  0.4905
33296SOL    HW211867   8.828   1.464   7.236 -0.6990 -0.4280  1.2226
33297SOL     OW11868   8.348  10.311   9.971  0.0014  0.0270 -0.0892
33297SOL    HW111869   8.343  10.368  10.048 -0.7064  1.2506 -1.0007
33297SOL    HW211870   8.383  10.229  10.004  0.6883  0.8565  1.3560
33298SOL     OW11871   2.841   8.284   3.325 -0.8170  0.0978  0.3193
33298SOL    HW111872   2.932   8.312   3.339 -0.0252 -1.6134 -1.0165
33298SOL    HW211873   2.820   8.234   3.404 -1.7414  3.0081  2.0494
33299SOL     OW11874   4.101   2.218   0.354 -0.3982 -0.0012 -0.0335
33299SOL    HW111875   4.088   2.169   0.273  2.5439  0.7838 -1.1137
33299SOL    HW211876   4.155   2.160   0.408 -1.7927 -0.2460  1.1806
33300SOL     OW11877   8.804   5.180   8.429  0.0654 -0.2087  0.5826
33300SOL    HW111878   8.761   5.261   8.403 -1.1614 -0.8906  0.4076
33300SOL    HW211879   8.897   5.204   8.438 -0.1917  1.0805  0.0540
33301SOL     OW11880   3.747   2.460   1.674 -0.0552 -0.3288  0.3705
33301SOL    HW111881   3.669   2.502   1.638 -0.1579 -0.2703  0.6574
33301SOL    HW211882   3.807   2.454   1.600  0.2174  0.9357  0.4703
33302SOL     OW11883   7.618   5.974   1.998  1.0776 -0.2484 -0.5648
33302SOL    HW111884   7.633   5.987   1.905  1.3997 -0.7264 -0.5842
33302SOL    HW211885   7.532   5.934   2.004  0.6621  0.6165 -0.5908
33303SOL     OW11886   9.157   3.984   2.434 -0.2691 -0.1869  0.1343
33303SOL    HW111887   9.230   4.015   2.380  0.3276 -1.4960  0.1522
33303SOL    HW211888   9.171   3.890   2.442 -0.8838 -0.1754  1.7793
33304SOL     OW11889   5.020   9.101   7.064  0.1255 -0.2056 -0.1345
33304SOL    HW111890   5.016   9.039   6.991  0.5317 -0.8960  0.4217
33304SOL    HW211891   5.092   9.069   7.119 -0.7674 -0.2388  1.0568
33305SOL     OW11892   4.534   4.653   5.913  0.0660 -0.4950 -0.3254
33305SOL    HW111893   4.520   4.674   6.006  0.8034  0.9646 -0.5121
33305SOL    HW211894   4.630   4.654   5.903  0.0427 -1.8465 -0.8609
33306SOL     OW11895   0.248   3.334   7.754  0.4402  0.4033 -0.3452
33306SOL    HW111896   0.257   3.357   7.662  0.0947  0.5533 -0.3415
33306SOL    HW211897   0.185   3.396   7.789  1.3036  0.9844  0.2268
33307SOL     OW11898   6.372   9.078   6.240  0.0018  0.2350  0.3116
33307SOL    HW111899   6.440   9.146   6.242 -1.1606  1.4134  1.6874
33307SOL    HW211900   6.297   9.120   6.198 -1.1442  0.2679  2.2678
33308SOL     OW11901   8.973   5.908   4.761 -0.2736  0.2638  0.0748
33308SOL    HW111902   8.967   5.935   4.670  1.7054  1.1713  0.1492
33308SOL    HW211903   9.020   5.980   4.804 -0.9129 -0.2676  1.7504
33309SOL     OW11904   2.899   6.469   3.355  0.0865  0.0141 -0.5609
33309SOL    HW111905   2.951   6.445   3.279  0.5412  0.3683 -0.3591
33309SOL    HW211906   2.826   6.520   3.320 -0.3658 -0.8401 -0.8888
33310SOL     OW11907   8.302   1.023   3.645 -0.2000 -0.7771 -0.0143
33310SOL    HW111908   8.395   1.040   3.632 -0.3694  0.1581 -0.0660
33310SOL    HW211909   8.257   1.090   3.593 -0.8917 -0.6062  0.7764
33311SOL     OW11910   2.395   2.688   6.918  0.0355 -0.0642 -0.7137
33311SOL    HW111911   2.478   2.725   6.889 -0.4090  0.3617 -1.4765
33311SOL    HW211912   2.378   2.729   7.003  0.4477  0.0745 -0.6986
33312SOL     OW11913   0.024   9.378   1.012  0.3018  0.3517  0.1676
33312SOL    HW111914  -0.039   9.305   1.012  0.4617  0.1572 -1.4417
33312SOL    HW211915   0.102   9.343   1.055  0.5425 -0.6254 -1.0002
33313SOL     OW11916  10.312   8.976   4.936 -0.0490  0.1260  0.1396
33313SOL    HW111917  10.275   9.058   4.970 -0.2869  0.3061 -0.5364
33313SOL    HW211918  10.400   8.972   4.974 -0.8240 -0.4518  2.0070
33314SOL     OW11919   2.940   1.628   0.648  0.9049 -0.1263  0.2728
33314SOL    HW111920   2.898   1.662   0.569  0.1186  0.1180  0.7788
33314SOL    HW211921   3.013   1.575   0.616  0.7028  0.1149 -0.6065
33315SOL     OW11922   9.480   0.701   5.184 -0.3533  0.0030  0.3265
33315SOL    HW111923   9.515   0.622   5.226 -0.3627  1.0680  2.4788
33315SOL    HW211924   9.471   0.677   5.092  0.1683 -2.3214  0.8097
33316SOL     OW11925   8.958   8.747   1.188 -0.4745  0.3777  0.0204
33316SOL    HW111926   8.887   8.692   1.221  0.5090 -1.4255 -0.7644
33316SOL    HW211927   8.989   8.702   1.110  2.3173  0.4458  0.9771
33317SOL     OW11928   5.952   1.888   5.778 -0.3125 -0.2279  0.2767
33317SOL    HW111929   5.947   1.953   5.709 -0.1799 -1.5401 -1.0187
33317SOL    HW211930   5.955   1.804   5.732  0.2578 -1.1250  1.8636
33318SOL     OW11931   9.453   1.890   8.845  0.0871  0.1794 -0.0545
33318SOL    HW111932   9.444   1.826   8.916  1.8597  0.9929  0.9685
33318SOL    HW211933   9.494   1.841   8.773 -2.3923 -0.8423 -0.9002
33319SOL     OW11934   8.314   1.917   9.770 -0.5824 -0.2404  0.1242
33319SOL    HW111935   8.243   1.883   9.824 -0.4969  0.8487  0.9767
33319SOL    HW211936   8.382   1.941   9.833  0.9973 -2.2002 -0.7419
33320SOL     OW11937   0.816   1.854   9.601  0.0346  0.0415  0.3541
33320SOL    HW111938   0.842   1.833   9.691  2.8367 -1.9424 -0.7522
33320SOL    HW211939   0.776   1.773   9.568 -0.0280  0.4026 -0.4815
33321SOL     OW11940   8.705   2.754   4.847  0.2975 -0.4205  0.2845
33321SOL    HW111941   8.689   2.848   4.851  0.0877 -0.5151  2.3266
33321SOL    HW211942   8.688   2.722   4.935  0.6264 -2.3467 -0.2976
33322SOL     OW11943   8.940   8.247   2.414 -0.6893  0.5393 -0.0734
33322SOL    HW111944   8.911   8.334   2.386 -0.4897  0.4684 -0.5074
33322SOL    HW211945   8.909   8.240   2.505  2.7687  2.7263  1.5044
33323SOL     OW11946   4.969   6.999   8.707  0.1436 -0.4357  0.1025
33323SOL    HW111947   4.881   6.978   8.675  0.4256  0.7274 -1.5559
33323SOL    HW211948   5.028   6.953   8.648  0.6616  0.1000  0.1957
33324SOL     OW11949   0.964   8.006   6.126 -0.2827 -0.7650  0.2612
33324SOL    HW111950   1.046   7.957   6.131  0.0651 -0.2616 -0.3301
33324SOL    HW211951   0.988   8.095   6.149 -0.9342 -0.8696  1.4470
33325SOL     OW11952   1.559   9.629   2.548 -1.0383  0.5734 -0.5101
33325SOL    HW111953   1.484   9.584   2.589 -1.3576  1.1805 -0.4178
33325SOL    HW211954   1.541   9.722   2.561 -0.5265  0.7380 -0.9560
33326SOL     OW11955   6.996   7.975   7.977 -0.2222  0.3219 -0.2138
33326SOL    HW111956   6.936   8.045   7.950 -1.6382 -0.1302  1.5517
33326SOL    HW211957   6.977   7.962   8.070  3.0861  0.5780  0.6194
33327SOL     OW11958   7.960   4.698   6.318 -0.0812 -0.6534 -0.1105
33327SOL    HW111959   7.982   4.762   6.250 -0.2600 -0.0878  0.3619
33327SOL    HW211960   7.881   4.654   6.284  0.5609 -1.2735 -0.8567
33328SOL     OW11961   9.246   8.473   2.119 -0.2916  0.1236  0.0626
33328SOL    HW111962   9.160   8.506   2.091  1.1760  2.0370 -2.7512
33328SOL    HW211963   9.272   8.412   2.050  1.6904  1.6634 -0.6460
33329SOL     OW11964   3.642   4.996  10.388  0.2849 -0.1206 -0.2631
33329SOL    HW111965   3.590   5.044  10.323  1.3843 -0.9155 -1.7908
33329SOL    HW211966   3.714   5.055  10.410  0.5664 -0.3008 -0.6822
33330SOL     OW11967   8.863   4.566   6.781  0.5632 -0.6788  0.6651
33330SOL    HW111968   8.943   4.616   6.795 -0.7654  1.7870  0.0060
33330SOL    HW211969   8.870   4.535   6.690  0.2138  0.7500  0.1123
33331SOL     OW11970   9.177   7.073   1.501 -0.4756  0.5356  0.0222
33331SOL    HW111971   9.133   7.114   1.427  0.1586 -0.1363 -0.7514
33331SOL    HW211972   9.224   7.144   1.544 -0.9621  0.9548 -0.1415
33332SOL     OW11973   1.538   1.092   2.092 -0.4517 -0.1636  0.4254
33332SOL    HW111974   1.629   1.108   2.119 -1.0319  1.1304  1.7667
33332SOL    HW211975   1.511   1.014   2.141 -0.0828 -0.5366  0.0421
33333SOL     OW11976   3.021   9.625   6.788  0.3139 -0.0466  0.4926
33333SOL    HW111977   3.005   9.687   6.717 -1.4139 -1.6977 -0.6620
33333SOL    HW211978   3.092   9.570   6.756 -0.0140 -0.3773  0.3348
33334SOL     OW11979   4.295   1.639   6.283 -0.1195  0.5737 -0.5982
33334SOL    HW111980   4.300   1.671   6.373 -0.4049  0.2403 -0.4594
33334SOL    HW211981   4.385   1.638   6.252 -0.1747  2.3255 -0.9077
33335SOL     OW11982   5.079   2.146   8.224  0.1236 -0.0645  0.0805
33335SOL    HW111983   5.168   2.113   8.237  0.2213 -0.0032 -0.3919
33335SOL    HW211984   5.023   2.081   8.267  0.4623  0.6539  1.6735
33336SOL     OW11985   1.387   8.569   0.893  0.6292 -0.1509 -0.3236
33336SOL    HW111986   1.435   8.548   0.813 -0.1703  1.6673 -1.3434
33336SOL    HW211987   1.396   8.664   0.902 -0.7117 -0.1036  0.8351
33337SOL     OW11988   0.667   9.625   8.492  0.0505  0.1419  0.7078
33337SOL    HW111989   0.711   9.627   8.577 -0.1789  0.3652  0.8198
33337SOL    HW211990   0.630   9.537   8.486  0.6450 -0.0996  0.5460
33338SOL     OW11991   7.509   6.275   2.147  0.5095  0.0604  0.1216
33338SOL    HW111992   7.560   6.282   2.067 -0.8518 -0.5028 -0.8380
33338SOL    HW211993   7.461   6.358   2.153  0.3480 -0.0369  0.1769
33339SOL     OW11994   0.306   1.180   1.857 -0.4503  0.2203 -0.5254
33339SOL    HW111995   0.338   1.250   1.800 -0.1971  0.3403 -0.2402
33339SOL    HW211996   0.377   1.115   1.857  0.2198  0.9089  0.8467
33340SOL     OW11997   5.895   0.947   9.104  0.2563 -0.3677 -0.2044
33340SOL    HW111998   5.832   0.945   9.031 -0.8671 -2.2540  0.7219
33340SOL    HW211999   5.979   0.968   9.063 -0.5195 -0.3429 -1.8757
33341SOL     OW12000   7.630   9.568   6.858  0.7552  0.3440 -0.1759
33341SOL    HW112001   7.585   9.487   6.883  0.4198  0.0556 -1.6100
33341SOL    HW212002   7.699   9.578   6.923  0.8241 -1.1174  0.0117
33342SOL     OW12003   3.570  10.248   9.524 -0.4813  0.2788  1.0314
33342SOL    HW112004   3.512  10.319   9.495  0.1929  0.7484  0.8037
33342SOL    HW212005   3.655  10.271   9.488 -0.5438 -1.4491 -0.3402
33343SOL     OW12006   4.542   0.180   9.421 -0.1795  0.1876  1.1784
33343SOL    HW112007   4.490   0.100   9.423  1.5138 -1.1440 -1.7438
33343SOL    HW212008   4.480   0.249   9.445 -2.3132 -1.6958  1.4523
33344SOL     OW12009   9.827   0.195   3.949  0.7934 -0.2108 -0.2106
33344SOL    HW112010   9.828   0.100   3.937 -2.5346 -0.0703 -3.5845
33344SOL    HW212011   9.900   0.226   3.897 -0.8586 -0.8694 -3.1579
33345SOL     OW12012   4.805   0.083   1.608  0.0489  0.3217 -0.5893
33345SOL    HW112013   4.754   0.002   1.604 -1.0952  1.0187 -0.3587
33345SOL    HW212014   4.890   0.059   1.569  0.0343 -1.1955  0.2310
33346SOL     OW12015   2.925   5.160   6.685  0.1083 -1.1979 -0.0538
33346SOL    HW112016   2.877   5.107   6.621 -0.6178  0.7105 -1.1863
33346SOL    HW212017   2.980   5.218   6.631 -1.2518  1.1645  0.9458
33347SOL     OW12018   9.416   5.630   2.588 -0.1695  0.6839 -0.2311
33347SOL    HW112019   9.471   5.564   2.546 -1.4565 -1.8203  1.7359
33347SOL    HW212020   9.464   5.712   2.577  2.0589 -0.7283 -1.8443
33348SOL     OW12021   0.717   5.688   3.884 -0.4607 -0.0918  1.0160
33348SOL    HW112022   0.688   5.656   3.799 -1.3966 -0.3436  1.4174
33348SOL    HW212023   0.684   5.778   3.888  0.6302  0.3452  0.6261
33349SOL     OW12024   2.622   4.440   7.635 -0.2171  0.8259 -1.1269
33349SOL    HW112025   2.566   4.392   7.696 -0.6762  2.6089 -0.0737
33349SOL    HW212026   2.680   4.373   7.597 -1.0158 -0.5737  0.0393
33350SOL     OW12027   3.360   0.782   7.148  0.1786  0.4976 -0.7847
33350SOL    HW112028   3.342   0.750   7.060  2.2953 -1.0473 -0.7397
33350SOL    HW212029   3.293   0.740   7.203  0.5066 -0.7341 -1.2935
33351SOL     OW12030   6.281  10.208   0.512  0.3804  0.4665 -0.2729
33351SOL    HW112031   6.367  10.250   0.501 -0.1917  1.0959 -3.0307
33351SOL    HW212032   6.287  10.126   0.463  0.3308 -1.0717  2.1310
33352SOL     OW12033   3.447   1.089   0.949 -0.3975  0.2509 -0.7191
33352SOL    HW112034   3.415   1.125   0.866  2.3556  2.3473 -0.9866
33352SOL    HW212035   3.410   1.146   1.016 -1.1186 -0.3251 -0.6090
33353SOL     OW12036   7.624   7.454   5.729 -0.7383 -0.5592  0.0294
33353SOL    HW112037   7.579   7.370   5.726 -0.5489 -0.7895  2.0337
33353SOL    HW212038   7.571   7.512   5.674 -1.5130 -1.7014 -0.4572
33354SOL     OW12039   3.154   6.018   7.876 -0.3460  0.7350  0.6446
33354SOL    HW112040   3.144   6.047   7.966 -0.4650  1.0925  0.5195
33354SOL    HW212041   3.236   6.058   7.846 -1.1449  1.9970  0.0776
33355SOL     OW12042   9.401   4.734   7.249  0.0660  0.6280 -0.0676
33355SOL    HW112043   9.417   4.766   7.338  1.6045  1.8553 -0.7399
33355SOL    HW212044   9.470   4.669   7.234 -0.2956  0.2911 -0.3184
33356SOL     OW12045   8.257   5.689   8.459  0.7113  0.2846 -0.1299
33356SOL    HW112046   8.325   5.729   8.513 -1.7525  1.4165  2.3763
33356SOL    HW212047   8.241   5.604   8.500 -0.1219  0.4807 -0.0387
33357SOL     OW12048   3.396   6.557   3.271  0.2284 -0.1512 -1.2911
33357SOL    HW112049   3.368   6.643   3.239  1.7613  0.7441 -0.3353
33357SOL    HW212050   3.453   6.523   3.201  0.8277  0.3010 -1.0374
33358SOL     OW12051   9.034   0.715   3.305 -0.2223 -0.1065  0.1667
33358SOL    HW112052   9.066   0.782   3.364  0.1263 -1.0537  1.0830
33358SOL    HW212053   8.939   0.723   3.308 -0.2023 -0.1183  0.8264
33359SOL     OW12054   5.614   6.212   5.941  0.0956  0.7237  0.0022
33359SOL    HW112055   5.521   6.205   5.920  0.2956  1.1689 -1.0483
33359SOL    HW212056   5.654   6.252   5.864  1.7172 -2.5195 -1.0087
33360SOL     OW12057   5.955  10.041   3.178  0.4717 -0.5923 -0.3199
33360SOL    HW112058   5.969  10.122   3.225  0.2031 -0.8408  0.1989
33360SOL    HW212059   5.861  10.040   3.159  0.8127  0.2630 -2.2827
33361SOL     OW12060   1.829   3.907   6.889 -0.0916 -0.0696 -0.1021
33361SOL    HW112061   1.741   3.870   6.896  0.1927 -1.0689 -1.4030
33361SOL    HW212062   1.856   3.888   6.799  0.8580  1.6077 -0.2215
33362SOL     OW12063   7.297   1.415   8.052 -0.1462 -0.1049  0.0396
33362SOL    HW112064   7.351   1.493   8.062 -1.4087  0.7746  0.1566
33362SOL    HW212065   7.358   1.348   8.022  1.0678  0.7738  0.4622
33363SOL     OW12066   3.631   4.572   8.845 -0.0032  0.6377  0.4157
33363SOL    HW112067   3.594   4.528   8.921  0.0698 -2.6743 -1.2811
33363SOL    HW212068   3.558   4.622   8.808 -0.8950 -0.2324  0.9533
33364SOL     OW12069   0.812   0.286   5.107 -0.5544  0.4559 -0.2390
33364SOL    HW112070   0.780   0.376   5.106 -0.0774  0.6755 -2.6940
33364SOL    HW212071   0.744   0.237   5.152 -1.6349  1.7951 -0.3441
33365SOL     OW12072   6.210   2.383   2.557  0.0460  0.1404  0.0323
33365SOL    HW112073   6.189   2.457   2.501  1.7878  0.3365 -0.4157
33365SOL    HW212074   6.179   2.409   2.644 -1.8692  0.2027 -0.6107
33366SOL     OW12075  10.059   2.238  10.092 -0.1947  0.3916  0.2049
33366SOL    HW112076  10.012   2.155  10.103 -0.2790  0.5917  1.4888
33366SOL    HW212077  10.086   2.238  10.000 -0.2561 -1.0227  0.1624
33367SOL     OW12078   2.486   1.374   6.842  0.0255  0.7528 -0.5075
33367SOL    HW112079   2.508   1.464   6.865  0.6322 -0.0246  2.3918
33367SOL    HW212080   2.401   1.359   6.883  1.3416 -0.8505  1.8514
33368SOL     OW12081   8.641   9.324  10.153 -0.0196 -0.0921  0.5612
33368SOL    HW112082   8.611   9.234  10.151  0.2570 -0.1943  0.9084
33368SOL    HW212083   8.680   9.339  10.067 -0.2967 -0.2230  0.4131
33369SOL     OW12084   3.820   4.429   1.353  0.0235  0.3981  0.1062
33369SOL    HW112085   3.749   4.364   1.354  1.4551 -1.2776  2.0978
33369SOL    HW212086   3.776   4.513   1.347 -2.0056 -0.6504 -0.7770
33370SOL     OW12087   3.902   4.548   7.482 -0.2047 -0.0049  0.3785
33370SOL    HW112088   3.841   4.474   7.475  0.0875 -0.1136 -2.1248
33370SOL    HW212089   3.986   4.509   7.504 -0.5916 -0.0730  1.8295
33371SOL     OW12090  10.232   9.586   2.667  0.5291  0.1543 -0.1865
33371SOL    HW112091  10.292   9.549   2.731  1.1911  0.0483 -0.8533
33371SOL    HW212092  10.281   9.584   2.584 -0.4020  0.0393 -0.7470
33372SOL     OW12093   6.692   2.150   6.281 -0.2545  0.1149  0.4667
33372SOL    HW112094   6.771   2.189   6.244 -1.1022  2.1162  0.6137
33372SOL    HW212095   6.637   2.131   6.205  0.1183 -0.7120  0.4008
33373SOL     OW12096   8.547   6.163   0.140  0.2959  0.4659  0.0718
33373SOL    HW112097   8.528   6.256   0.145  1.2337  0.6664  0.0883
33373SOL    HW212098   8.630   6.157   0.092 -0.1288 -0.4092 -0.5915
33374SOL     OW12099   3.635   5.243   6.514 -0.3044  0.5066  0.4219
33374SOL    HW112100   3.579   5.176   6.552 -0.1313  0.0374 -0.1499
33374SOL    HW212101   3.721   5.228   6.554 -0.3870  0.7320  0.6962
33375SOL     OW12102   8.317   3.543   5.524 -0.1320 -0.2254  0.3748
33375SOL    HW112103   8.304   3.586   5.608  1.6905 -0.3975  0.7939
33375SOL    HW212104   8.323   3.450   5.546 -1.4881 -0.4754 -0.2048
33376SOL     OW12105   1.683   3.674   5.312  0.4663 -0.4099  0.1135
33376SOL    HW112106   1.711   3.582   5.316  0.6076 -0.3218  3.0172
33376SOL    HW212107   1.708   3.710   5.396  1.0986  2.5538 -1.2258
33377SOL     OW12108   1.493   6.597   3.468 -0.4983  0.1097 -0.2744
33377SOL    HW112109   1.413   6.625   3.424 -1.0669 -2.0633 -0.7121
33377SOL    HW212110   1.466   6.584   3.559 -0.4017  0.3066 -0.2173
33378SOL     OW12111   5.213   0.228   6.159  0.2479 -0.3002  0.1147
33378SOL    HW112112   5.287   0.238   6.099  1.1942 -0.0550  1.2903
33378SOL    HW212113   5.218   0.138   6.189  0.1920 -0.2270  0.3483
33379SOL     OW12114   1.400   0.177   0.154 -0.4787  0.1143  0.6988
33379SOL    HW112115   1.383   0.211   0.067 -0.4525 -1.2928  0.1216
33379SOL    HW212116   1.329   0.115   0.170 -0.3957  0.2406  1.6177
33380SOL     OW12117   8.245   4.190   6.886  0.4529  0.3883  0.3102
33380SOL    HW112118   8.155   4.221   6.884  0.5671  0.7847  0.9883
33380SOL    HW212119   8.260   4.165   6.977  1.3483  1.3072  0.4357
33381SOL     OW12120   4.728   5.286   4.375  0.5784  0.3541 -0.4460
33381SOL    HW112121   4.801   5.329   4.331  0.7471  1.1961  0.6293
33381SOL    HW212122   4.712   5.339   4.453 -1.0755  0.0848 -0.5706
33382SOL     OW12123   5.710   9.459   5.858 -0.2117  0.3071  0.1369
33382SOL    HW112124   5.641   9.503   5.809  0.7695  0.5218 -1.1192
33382SOL    HW212125   5.681   9.368   5.865 -1.8085  0.8779  1.9260
33383SOL     OW12126   9.834   9.864   0.483  0.0540 -0.0369  0.1937
33383SOL    HW112127   9.792   9.913   0.553  1.1597  0.0491  0.8323
33383SOL    HW212128   9.767   9.854   0.416 -1.0935 -0.3004  1.3486
33384SOL     OW12129   2.084   0.748   8.236  0.0064  0.2887 -0.4819
33384SOL    HW112130   2.013   0.708   8.186 -0.5391  0.2161  0.3344
33384SOL    HW212131   2.046   0.829   8.270  0.4975  0.5333 -0.5107
33385SOL     OW12132   2.632   4.320   5.311 -0.1187 -0.1933 -0.0870
33385SOL    HW112133   2.688   4.351   5.383 -1.1826  0.2724  0.5655
33385SOL    HW212134   2.597   4.400   5.272  0.1749 -0.4590 -0.9135
33386SOL     OW12135   6.154   1.695   6.896 -0.4989  0.4967 -0.3936
33386SOL    HW112136   6.204   1.637   6.954 -1.6225  2.6591  3.0056
33386SOL    HW212137   6.064   1.662   6.902 -0.6320  0.7497 -0.9635
33387SOL     OW12138   5.468   7.113   1.591 -0.1522  0.2659 -0.3999
33387SOL    HW112139   5.476   7.101   1.496 -0.3459 -1.8764 -0.1901
33387SOL    HW212140   5.557   7.131   1.620  0.0968 -0.1957 -0.8629
33388SOL     OW12141   1.215   8.875   0.308 -0.1494  0.6357  0.0914
33388SOL    HW112142   1.166   8.860   0.389 -0.9712 -2.3868 -0.8463
33388SOL    HW212143   1.297   8.827   0.320 -0.1307  0.4531 -0.7325
33389SOL     OW12144   1.994   3.245   9.197 -0.1390 -0.3589 -0.4894
33389SOL    HW112145   2.007   3.245   9.102 -0.3138  1.4399 -0.5440
33389SOL    HW212146   1.949   3.328   9.215 -0.2329 -0.7366  1.1499
33390SOL     OW12147   7.453   5.833   8.592  0.1765 -0.3081  0.4329
33390SOL    HW112148   7.447   5.928   8.603 -1.8379 -0.4752  1.0334
33390SOL    HW212149   7.374   5.809   8.544 -0.4869 -1.9456  2.2247
33391SOL     OW12150   5.896   0.229   8.540  0.3138 -0.1751  0.0360
33391SOL    HW112151   5.823   0.252   8.483 -0.3165 -1.7580  0.1461
33391SOL    HW212152   5.908   0.305   8.597 -1.1768  0.1608 -0.0678
33392SOL     OW12153   4.211   9.500   6.895 -0.0573 -0.1280 -0.4771
33392SOL    HW112154   4.176   9.411   6.888 -0.0475 -0.3496  1.7563
33392SOL    HW212155   4.157   9.541   6.962  1.5345  0.7483  0.3058
33393SOL     OW12156   7.527   2.899   0.941 -0.2644 -0.2676  0.2016
33393SOL    HW112157   7.444   2.855   0.924 -0.8517  0.9266 -0.1163
33393SOL    HW212158   7.582   2.877   0.866 -1.5497  1.8560 -1.4923
33394SOL     OW12159   0.981   4.466   7.227  0.0452  0.5737 -0.4855
33394SOL    HW112160   0.966   4.551   7.185  0.6903 -0.3126 -2.6359
33394SOL    HW212161   1.069   4.473   7.265 -0.7084  1.5257  1.1922
33395SOL     OW12162   9.517   7.157   5.428 -0.3338 -0.4063  0.7704
33395SOL    HW112163   9.455   7.229   5.437 -1.0330 -1.0320  1.0995
33395SOL    HW212164   9.478   7.100   5.362 -0.7754 -1.4588  1.9063
33396SOL     OW12165   7.523   0.660   3.889 -0.3865 -0.3671  0.0889
33396SOL    HW112166   7.511   0.636   3.797  1.1711 -0.8280 -0.0349
33396SOL    HW212167   7.463   0.603   3.937 -1.0567 -0.2721 -0.6228
33397SOL     OW12168   4.898   0.921   1.185  0.1036  0.1219  0.5241
33397SOL    HW112169   4.874   0.852   1.123 -1.8505  0.2866  1.0270
33397SOL    HW212170   4.967   0.882   1.238 -2.1285 -2.2004  1.9611
33398SOL     OW12171   5.856   6.107   0.053 -0.0234 -0.3697 -0.3746
33398SOL    HW112172   5.938   6.065   0.025 -1.0711 -2.6766 -0.2425
33398SOL    HW212173   5.792   6.036   0.054 -1.7968  1.1494  0.5723
33399SOL     OW12174   9.969   4.610   8.526  0.6117 -0.2724  0.1060
33399SOL    HW112175   9.881   4.576   8.509  0.2656  0.6330  0.0164
33399SOL    HW212176   9.986   4.669   8.453  0.3179  1.3759  1.3036
33400SOL     OW12177   3.366   6.327   2.132  0.3254  0.1616  1.0555
33400SOL    HW112178   3.321   6.288   2.057  0.9508  2.6290 -0.7033
33400SOL    HW212179   3.296   6.348   2.194 -0.5471  0.7194 -0.0988
33401SOL     OW12180  10.278   1.024   6.431 -0.7187 -0.3293  0.0105
33401SOL    HW112181  10.251   1.002   6.342 -0.2604  0.6338 -0.3847
33401SOL    HW212182  10.257   0.946   6.483  1.0838 -1.7967 -1.3401
33402SOL     OW12183   9.561   9.202   8.511 -0.2361 -0.7643 -0.2128
33402SOL    HW112184   9.583   9.161   8.428 -1.2203  1.4883 -1.6862
33402SOL    HW212185   9.492   9.147   8.548 -1.7575 -0.3548 -2.2617
33403SOL     OW12186   1.080   1.174   2.954 -0.5371  0.2673 -0.0239
33403SOL    HW112187   1.044   1.138   3.035  1.6532 -2.6889 -0.1722
33403SOL    HW212188   1.010   1.164   2.890 -0.8590 -1.5155  0.5559
33404SOL     OW12189   1.940   0.924   2.422 -0.2564 -0.1512  0.2374
33404SOL    HW112190   1.857   0.954   2.385 -0.8368 -0.6769  1.0636
33404SOL    HW212191   1.933   0.828   2.423  0.9748 -0.2794 -1.0296
33405SOL     OW12192   5.415   3.375   6.640  0.5826  0.0955 -0.0182
33405SOL    HW112193   5.437   3.376   6.734  0.8601  0.6130 -0.0872
33405SOL    HW212194   5.330   3.418   6.635  0.2232 -0.5944  0.0787
33406SOL     OW12195   8.661   2.594  10.350  0.1839 -0.3963  0.3687
33406SOL    HW112196   8.695   2.523  10.406  0.1418  0.5873  1.7026
33406SOL    HW212197   8.653   2.555  10.263  1.6040 -1.5866  0.7406
33407SOL     OW12198   8.550   1.748   5.709 -0.1756 -0.2140  0.5120
33407SOL    HW112199   8.514   1.750   5.620 -2.7009  2.1631  1.4198
33407SOL    HW212200   8.640   1.777   5.700 -0.0632 -1.0404 -1.3717
33408SOL     OW12201   2.444   6.969   3.856  0.0018 -0.4460  0.4515
33408SOL    HW112202   2.416   7.026   3.785 -1.1843  1.1324  2.1036
33408SOL    HW212203   2.386   6.893   3.850  0.9789 -1.1066 -1.2033
33409SOL     OW12204   4.555   8.442   4.805 -0.1313 -0.4318 -0.4457
33409SOL    HW112205   4.619   8.392   4.754  0.5061 -0.1382  0.0329
33409SOL    HW212206   4.586   8.432   4.896 -1.4145 -1.2088 -0.0753
33410SOL     OW12207   4.053   5.936   8.828  0.5120 -0.3871 -0.2959
33410SOL    HW112208   4.017   5.848   8.837  0.7746 -0.3209  1.9737
33410SOL    HW212209   3.984   5.985   8.784 -0.2431 -1.3957 -0.2712
33411SOL     OW12210   8.195   8.957   0.302 -0.4234 -0.0091  0.1655
33411SOL    HW112211   8.109   8.915   0.298 -1.1097  1.4394 -0.9318
33411SOL    HW212212   8.197   9.017   0.228  1.5489  0.0059  0.1718
33412SOL     OW12213   5.305   1.391   8.126  0.5382  0.0705 -0.1888
33412SOL    HW112214   5.316   1.389   8.031  1.3241  0.0749 -0.1023
33412SOL    HW212215   5.393   1.382   8.161  0.3701  1.0604  0.5340
33413SOL     OW12216   4.491   0.559   3.601  0.4266  0.0989 -0.4975
33413SOL    HW112217   4.467   0.649   3.577  1.6269  0.1737 -1.5203
33413SOL    HW212218   4.415   0.526   3.649  0.0349  1.7163  0.0512
33414SOL     OW12219   7.281   9.667   1.968 -0.2416  0.1997 -0.0669
33414SOL    HW112220   7.333   9.587   1.970 -0.7761 -0.2944  4.3248
33414SOL    HW212221   7.330   9.727   1.911  2.9688 -1.5156  0.6652
33415SOL     OW12222   5.265   9.983   4.313 -0.3944 -0.2549 -0.5127
33415SOL    HW112223   5.238   9.891   4.314 -0.3210 -0.2789 -0.7583
33415SOL    HW212224   5.195  10.029   4.361 -1.1042 -0.2599 -1.5199
33416SOL     OW12225   5.520   0.951   1.032  0.1421  0.1923 -0.4607
33416SOL    HW112226   5.446   0.905   1.070 -0.9746  1.0542 -1.5276
33416SOL    HW212227   5.581   0.881   1.008  0.7677 -0.4186  2.4830
33417SOL     OW12228   9.725   2.272   0.351 -0.3244 -0.3620 -0.2841
33417SOL    HW112229   9.650   2.246   0.404 -0.2915 -2.5017 -1.1858
33417SOL    HW212230   9.777   2.192   0.342 -0.0841 -0.0031 -3.0733
33418SOL     OW12231   6.547   1.869   7.086 -0.2271  0.5627  0.2050
33418SOL    HW112232   6.507   1.956   7.095 -1.2030  0.1213  0.2420
33418SOL    HW212233   6.606   1.877   7.011 -0.3137  1.2473  0.2020
33419SOL     OW12234   3.084   6.825   3.618  0.6001 -0.1085  0.4198
33419SOL    HW112235   3.144   6.772   3.671 -0.9783 -1.3334  1.0719
33419SOL    HW212236   3.070   6.772   3.539  0.8195  0.4393  0.0112
33420SOL     OW12237   4.932   0.274   9.240  0.1482  0.0985 -0.1647
33420SOL    HW112238   4.998   0.335   9.274 -0.8012  1.8938 -1.4024
33420SOL    HW212239   4.865   0.271   9.308 -0.7989  2.1406 -0.9326
33421SOL     OW12240   3.486   9.721   8.597  0.0257 -0.6804 -0.2760
33421SOL    HW112241   3.540   9.751   8.524  0.0787 -1.5168 -0.6001
33421SOL    HW212242   3.396   9.727   8.564 -0.0384  0.0817  0.0257
33422SOL     OW12243   8.613   8.618   0.742 -0.2989  0.2591  0.4672
33422SOL    HW112244   8.688   8.674   0.764 -0.3029 -0.1088  1.4563
33422SOL    HW212245   8.558   8.673   0.686  0.2950  0.8245  0.4305
33423SOL     OW12246   6.408   7.395   2.358  0.6967  0.1265 -0.1743
33423SOL    HW112247   6.330   7.424   2.311  0.3330 -0.7313 -0.1176
33423SOL    HW212248   6.445   7.475   2.396  0.4782  0.6938 -1.1361
33424SOL     OW12249   9.392   5.886   8.505 -0.2090 -0.3013 -0.2389
33424SOL    HW112250   9.455   5.824   8.468 -0.2114  0.6117 -1.8410
33424SOL    HW212251   9.325   5.831   8.545  0.3541 -1.3139 -0.6543
33425SOL     OW12252   0.539   3.625   9.489 -0.4953 -0.3273  0.3960
33425SOL    HW112253   0.590   3.564   9.436 -1.0241  0.1210 -0.6675
33425SOL    HW212254   0.566   3.607   9.579  1.7345  0.0642 -0.1262
33426SOL     OW12255   5.513   2.011   3.420  0.0679 -0.0112  0.4064
33426SOL    HW112256   5.419   2.014   3.400  0.0407  0.9225  0.6162
33426SOL    HW212257   5.540   1.923   3.396 -1.0065 -0.5094  0.9522
33427SOL     OW12258   8.604   6.632   7.112 -0.1466 -0.0073 -0.6458
33427SOL    HW112259   8.629   6.724   7.106  1.0628 -0.3889 -1.8301
33427SOL    HW212260   8.508   6.634   7.117 -0.0816  1.3886  1.6179
33428SOL     OW12261   5.381   1.854   8.022  0.3684 -0.0785 -0.2243
33428SOL    HW112262   5.368   1.810   8.107  0.2810 -1.4233 -0.9059
33428SOL    HW212263   5.342   1.794   7.958  2.3348 -0.1345 -1.4538
33429SOL     OW12264   1.566   8.244   7.851  0.5044 -0.0608  0.2229
33429SOL    HW112265   1.550   8.291   7.769  1.0196  1.0257  0.7140
33429SOL    HW212266   1.537   8.154   7.834 -1.2786  0.6034 -0.5011
33430SOL     OW12267   5.146   6.578   8.010 -0.1248  0.2186 -0.1961
33430SOL    HW112268   5.119   6.644   7.946 -1.4824 -0.2675 -0.1597
33430SOL    HW212269   5.141   6.495   7.963  1.4504  0.0982 -0.2055
33431SOL     OW12270   5.603   5.558   7.198 -0.3712 -0.6101  0.2620
33431SOL    HW112271   5.626   5.650   7.193 -0.2800 -0.6667 -0.5003
33431SOL    HW212272   5.564   5.538   7.113  1.1616 -1.6748 -0.2353
33432SOL     OW12273   3.744   3.145   7.827 -0.2787  0.7009  0.1926
33432SOL    HW112274   3.786   3.116   7.908 -0.2026  0.0341 -0.0722
33432SOL    HW212275   3.782   3.088   7.760  0.0857  1.6368 -0.4006
33433SOL     OW12276   3.051   2.415   0.341 -0.6721 -0.2282 -0.5675
33433SOL    HW112277   3.055   2.334   0.392 -0.4806 -0.4751 -0.9672
33433SOL    HW212278   3.132   2.461   0.363 -0.5678 -0.3563 -0.6819
33434SOL     OW12279   0.162   5.595   5.347  0.1840  0.6081 -0.4381
33434SOL    HW112280   0.165   5.662   5.415 -1.4669  0.3273 -0.0446
33434SOL    HW212281   0.080   5.548   5.362  0.8058 -0.8598 -1.3214
33435SOL     OW12282   4.340   8.708   1.945 -0.2847 -0.3962 -0.0397
33435SOL    HW112283   4.251   8.739   1.931 -1.0239 -1.6501  1.5914
33435SOL    HW212284   4.387   8.785   1.978 -1.0884 -0.0368  0.2858
33436SOL     OW12285   0.998   9.668   3.647  0.6411 -0.4981  0.0272
33436SOL    HW112286   0.903   9.661   3.654  0.6236  0.1239  0.4612
33436SOL    HW212287   1.025   9.713   3.727  1.1217  0.8577 -0.8700
33437SOL     OW12288   3.349   5.552   0.802  0.4983  0.4538 -0.2875
33437SOL    HW112289   3.354   5.461   0.831 -1.1481  0.4321  0.0412
33437SOL    HW212290   3.385   5.552   0.714  0.0243 -0.6202 -0.4898
33438SOL     OW12291   6.790   4.147   6.219 -0.4066  0.2940 -0.7204
33438SOL    HW112292   6.818   4.055   6.214  1.5143  0.7342  0.8090
33438SOL    HW212293   6.727   4.148   6.292  0.1463  0.3122 -0.2390
33439SOL     OW12294   0.521   8.488   9.612 -0.6609 -0.3522 -0.0799
33439SOL    HW112295   0.531   8.583   9.615  0.3330 -0.4581  2.7077
33439SOL    HW212296   0.432   8.474   9.580 -1.7008  1.6469  1.6786
33440SOL     OW12297   8.230   2.562   5.946 -0.5535 -1.0569  0.3951
33440SOL    HW112298   8.189   2.476   5.934 -1.6977 -0.4972  0.1489
33440SOL    HW212299   8.163   2.614   5.992 -0.9586  0.5042 -1.8091
33441SOL     OW12300   6.197   6.341   3.591  0.0713  0.7647  0.3621
33441SOL    HW112301   6.247   6.411   3.633  0.7047  0.0184  0.9073
33441SOL    HW212302   6.110   6.377   3.578  0.0814  1.2908  1.6189
33442SOL     OW12303   7.227   9.785   5.726  0.1391 -0.2607 -0.1087
33442SOL    HW112304   7.235   9.745   5.813 -1.2691 -0.3764 -0.0130
33442SOL    HW212305   7.229   9.879   5.743 -0.1065 -0.2833  0.0538
33443SOL     OW12306   3.880   7.074   9.222  0.0264  0.2365 -0.2560
33443SOL    HW112307   3.931   7.042   9.297 -1.3219 -0.3731  0.4407
33443SOL    HW212308   3.867   6.997   9.167  1.3684  0.7659 -1.3809
33444SOL     OW12309   5.143   2.818   9.124 -0.2892  0.4711  0.0095
33444SOL    HW112310   5.058   2.855   9.103 -0.8439 -0.4306  0.5636
33444SOL    HW212311   5.187   2.809   9.040 -1.3203 -0.3925 -0.4648
33445SOL     OW12312   1.513   1.958   7.329  0.0207 -0.1358 -0.0251
33445SOL    HW112313   1.427   1.952   7.369  0.7326  0.1065  1.6343
33445SOL    HW212314   1.574   1.948   7.402  1.4043 -0.2239 -1.1445
33446SOL     OW12315   1.018   8.201   0.445 -0.3694  0.0606  0.3556
33446SOL    HW112316   0.958   8.161   0.382 -0.5696 -1.1689  1.2886
33446SOL    HW212317   0.961   8.253   0.502 -0.6651 -1.4483  1.5065
33447SOL     OW12318   5.596   8.537   6.838  0.5480 -0.7906 -0.2040
33447SOL    HW112319   5.641   8.504   6.760 -0.7871  0.7931 -1.7137
33447SOL    HW212320   5.579   8.629   6.819 -0.8895 -0.6643  1.4634
33448SOL     OW12321   1.861   2.238   6.453 -0.2466 -0.0877  0.3339
33448SOL    HW112322   1.850   2.306   6.387  3.2013 -0.5542 -0.9351
33448SOL    HW212323   1.869   2.285   6.536  1.6859  1.0873 -0.4629
33449SOL     OW12324   2.228   9.932   1.699 -0.8875 -0.1846 -0.3577
33449SOL    HW112325   2.294   9.920   1.768 -0.1810  1.1636 -0.7736
33449SOL    HW212326   2.215   9.844   1.664  0.7373 -0.4835 -0.3017
33450SOL     OW12327   6.612   5.147   5.385 -0.7783 -0.2508  0.3557
33450SOL    HW112328   6.564   5.195   5.318  2.3510  0.7574 -1.4002
33450SOL    HW212329   6.617   5.208   5.459  0.5324  1.0357 -0.7137
33451SOL     OW12330   2.369   0.016   7.501 -0.2899 -0.7548 -0.2953
33451SOL    HW112331   2.331   0.095   7.463  0.8369 -0.4543 -0.8265
33451SOL    HW212332   2.456   0.042   7.530 -0.5018 -1.4002  1.0217
33452SOL     OW12333   9.176   7.998   4.431  0.1476 -0.3400  0.3267
33452SOL    HW112334   9.205   8.088   4.424  0.8541 -0.4502  1.6596
33452SOL    HW212335   9.175   7.979   4.524 -1.3190 -1.2959  0.1610
33453SOL     OW12336   4.015   2.262   7.457  0.7523  0.3051 -0.1179
33453SOL    HW112337   4.016   2.297   7.546  2.5318  0.2192 -0.0658
33453SOL    HW212338   3.977   2.175   7.466 -0.9159  1.0220  0.2149
33454SOL     OW12339   7.555   6.017   7.611  0.1466  0.0762  0.1199
33454SOL    HW112340   7.519   5.928   7.606 -0.0668  0.1652  0.0837
33454SOL    HW212341   7.529   6.048   7.697 -2.5493  1.2898 -1.0452
33455SOL     OW12342  10.046   0.602   7.291 -0.1541 -0.6533 -0.2909
33455SOL    HW112343   9.960   0.611   7.250 -0.8982  0.0205  1.2925
33455SOL    HW212344  10.043   0.664   7.365  0.9952 -1.9362  0.8908
33456SOL     OW12345   0.084   7.643   1.641 -0.2832 -0.0616 -0.3510
33456SOL    HW112346   0.120   7.576   1.699  0.4396 -0.6330 -1.4401
33456SOL    HW212347   0.067   7.598   1.559 -0.2723  0.9754 -0.9447
33457SOL     OW12348   2.631   8.398   9.815 -0.3759  0.4633  0.0793
33457SOL    HW112349   2.563   8.451   9.858 -0.1518  1.3432 -0.6520
33457SOL    HW212350   2.624   8.420   9.723  2.0229  1.8683  0.1621
33458SOL     OW12351   2.284   0.536   2.284 -0.3329 -0.1604 -0.0703
33458SOL    HW112352   2.355   0.472   2.277 -2.7855 -3.6753  2.9794
33458SOL    HW212353   2.239   0.531   2.200  0.2456 -1.6157 -0.3319
33459SOL     OW12354   5.278   1.943   9.921  0.0145 -0.0897  0.1560
33459SOL    HW112355   5.350   1.896   9.879 -1.9979 -2.3721 -0.9768
33459SOL    HW212356   5.248   2.006   9.856  0.9783  0.9264  0.6620
33460SOL     OW12357   0.187   0.379  10.090  0.1453  0.1712 -0.8073
33460SOL    HW112358   0.283   0.375  10.088  0.1506  0.2937 -0.7955
33460SOL    HW212359   0.160   0.355  10.002  0.1169 -1.7636 -0.3053
33461SOL     OW12360   4.591   7.999   8.724 -0.1313 -0.1848 -0.0468
33461SOL    HW112361   4.603   7.965   8.635  0.0409 -1.2769  0.3733
33461SOL    HW212362   4.620   7.927   8.781 -0.2387  0.4978  0.8922
33462SOL     OW12363   0.752   9.345   1.588 -0.6068  0.2135  0.8937
33462SOL    HW112364   0.808   9.366   1.513  1.6578  2.1613  2.9267
33462SOL    HW212365   0.796   9.273   1.632 -2.1419 -1.1976  0.2023
33463SOL     OW12366   4.674   9.618   4.547  0.1274  0.0136  0.1140
33463SOL    HW112367   4.658   9.545   4.487 -0.7089 -0.1634  0.5338
33463SOL    HW212368   4.673   9.578   4.634  0.6735  0.3718  0.2887
33464SOL     OW12369   6.216   8.843   1.191  0.1397  0.3448  0.1873
33464SOL    HW112370   6.180   8.924   1.227  0.0737 -0.2614  1.5592
33464SOL    HW212371   6.304   8.838   1.229 -0.7172 -1.4070  2.1066
33465SOL     OW12372   6.169   3.580   0.156  0.1680 -0.1654 -0.7208
33465SOL    HW112373   6.218   3.615   0.082  1.2877  0.1856  0.1546
33465SOL    HW212374   6.227   3.514   0.194  0.2045  0.6150  0.6362
33466SOL     OW12375   2.940   4.700   9.414 -0.1716  0.2342  0.0940
33466SOL    HW112376   3.026   4.714   9.375 -1.1458 -0.1871 -2.3989
33466SOL    HW212377   2.938   4.607   9.436 -0.1005  0.1590 -0.2073
33467SOL     OW12378   5.837   3.017   6.280  0.6445 -0.5614 -0.1187
33467SOL    HW112379   5.745   2.992   6.278 -0.2733  2.4200 -1.1049
33467SOL    HW212380   5.843   3.079   6.353  2.0080 -1.0674  0.2276
33468SOL     OW12381   1.884   1.517   4.094  0.2554  0.0830  0.2421
33468SOL    HW112382   1.841   1.574   4.029  1.0367 -1.2388 -1.5101
33468SOL    HW212383   1.965   1.563   4.117 -0.0746  0.6053  0.3707
33469SOL     OW12384   0.176   6.616   8.366  0.6519  0.3891  0.1313
33469SOL    HW112385   0.148   6.670   8.292 -0.7711  0.4396  0.6677
33469SOL    HW212386   0.265   6.588   8.344  0.8260  1.6483 -0.8876
33470SOL     OW12387   1.009   6.097   9.661 -0.3424 -0.1450  0.2413
33470SOL    HW112388   1.004   6.001   9.658 -0.2785 -0.1261 -1.2148
33470SOL    HW212389   1.000   6.119   9.754 -1.2470 -1.5184  0.5054
33471SOL     OW12390   8.465   0.846   4.598 -0.1098  0.0440  0.2434
33471SOL    HW112391   8.535   0.862   4.535 -0.1050  2.3203  0.7523
33471SOL    HW212392   8.386   0.842   4.544  0.0726  0.4901 -0.0705
33472SOL     OW12393   2.589  10.012   9.585 -1.0176  0.2304 -0.2077
33472SOL    HW112394   2.511  10.017   9.529 -0.9112  1.3034 -0.2882
33472SOL    HW212395   2.583   9.926   9.626 -1.2343 -0.4723 -1.6549
33473SOL     OW12396   2.315   4.434   7.055  0.2918  0.1649 -0.6281
33473SOL    HW112397   2.392   4.478   7.092  0.0452  0.1131 -0.0334
33473SOL    HW212398   2.273   4.393   7.131 -0.5777  0.5907 -0.8718
33474SOL     OW12399   2.412   0.286   0.486  0.3495  0.0681 -0.1361
33474SOL    HW112400   2.474   0.219   0.515  0.1394 -0.1910 -0.2838
33474SOL    HW212401   2.344   0.287   0.554  0.0769 -0.2443 -0.3981
33475SOL     OW12402   4.073   1.771   8.930 -0.0104  0.3907 -0.1452
33475SOL    HW112403   4.117   1.853   8.906 -1.6101  0.8893 -1.6764
33475SOL    HW212404   4.063   1.724   8.847  1.9487 -1.9914  0.8616
33476SOL     OW12405   1.139   9.329   0.564  0.4855 -0.3103  0.5570
33476SOL    HW112406   1.194   9.263   0.522 -0.7720 -0.8928 -0.2563
33476SOL    HW212407   1.199   9.381   0.617  1.7558 -1.0768 -0.0888
33477SOL     OW12408   5.726   8.660   8.135 -0.4994  0.4587  0.3161
33477SOL    HW112409   5.696   8.668   8.044 -0.4340 -1.8523  0.0255
33477SOL    HW212410   5.654   8.614   8.179  1.0464 -2.0621  0.4275
33478SOL     OW12411   1.071   8.636   5.722 -0.1645 -0.0977  0.5549
33478SOL    HW112412   0.999   8.619   5.662  0.3155 -0.8541  0.1726
33478SOL    HW212413   1.077   8.557   5.776  1.6935 -0.9773 -0.8077
33479SOL     OW12414   0.363   2.398   7.551 -0.3592  0.3569  0.1230
33479SOL    HW112415   0.438   2.370   7.602 -0.2187 -0.4863 -0.5323
33479SOL    HW212416   0.364   2.342   7.473 -1.5786  0.4349  0.0364
33480SOL     OW12417   8.682   4.951   7.781 -0.1868 -0.2000 -0.0330
33480SOL    HW112418   8.656   4.990   7.865 -0.8663  1.5693 -1.0197
33480SOL    HW212419   8.635   4.867   7.778  0.1263 -0.4610  1.4863
33481SOL     OW12420   0.910   7.137   2.458 -0.0291 -0.6643  0.1416
33481SOL    HW112421   0.953   7.174   2.535 -0.4317  1.8536 -0.7693
33481SOL    HW212422   0.932   7.197   2.387  0.8383 -3.2489 -1.9066
33482SOL     OW12423   6.349   3.486   3.101  0.2852  0.2258  0.4420
33482SOL    HW112424   6.304   3.561   3.140 -1.6559  0.5031 -2.0748
33482SOL    HW212425   6.398   3.523   3.027 -1.3046 -0.9456 -1.3080
33483SOL     OW12426   3.145   3.971   7.504 -0.4327  0.4192  0.2903
33483SOL    HW112427   3.158   3.882   7.472  1.9730  0.6212  0.5828
33483SOL    HW212428   3.099   4.016   7.433  2.4612  0.1590 -1.9032
33484SOL     OW12429   4.057   9.624   0.410 -1.1421 -0.2583 -0.6358
33484SOL    HW112430   4.025   9.713   0.424  0.9617  0.5470 -0.4774
33484SOL    HW212431   4.080   9.593   0.497 -1.2290 -0.6812 -0.7638
33485SOL     OW12432   2.091   4.500   5.241  0.4310  0.2625  0.2073
33485SOL    HW112433   2.006   4.526   5.208  0.2919 -0.6498 -0.1802
33485SOL    HW212434   2.138   4.582   5.254 -1.3765  0.9980  2.9240
33486SOL     OW12435   5.048   2.483   5.072  0.7275  0.0971 -0.3315
33486SOL    HW112436   5.126   2.440   5.107 -0.0257 -0.0451  1.2245
33486SOL    HW212437   4.978   2.462   5.133  0.1165  2.7230  0.0120
33487SOL     OW12438   2.513   5.214   1.647  0.1348 -0.5271  0.6560
33487SOL    HW112439   2.467   5.143   1.691  0.7002  0.1900  2.4793
33487SOL    HW212440   2.596   5.175   1.619 -0.0464 -0.8742  0.5907
33488SOL     OW12441   3.884   4.028   5.247 -0.5056  0.5248  0.8008
33488SOL    HW112442   3.944   3.974   5.298  1.4569  1.0157 -0.8654
33488SOL    HW212443   3.806   3.973   5.236  0.0932 -0.6205  2.0033
33489SOL     OW12444   7.615   8.718   5.632  0.0791  0.3327 -0.5776
33489SOL    HW112445   7.575   8.761   5.708  1.1876  0.8442 -0.2608
33489SOL    HW212446   7.560   8.641   5.617  1.1253 -1.1457  2.2559
33490SOL     OW12447   3.978   0.695   5.541 -0.1092  0.2091  0.4408
33490SOL    HW112448   3.890   0.665   5.561 -0.6467  1.1324 -0.4396
33490SOL    HW212449   4.034   0.649   5.604 -1.0015 -1.6467 -0.0411
33491SOL     OW12450   2.824   2.954   7.053  0.4629 -0.3779 -0.3233
33491SOL    HW112451   2.812   3.046   7.077  1.5981 -0.1407 -0.6121
33491SOL    HW212452   2.736   2.917   7.058 -0.1604  0.9108 -0.9856
33492SOL     OW12453   7.012   1.918   0.652 -0.3536 -0.1233  0.4039
33492SOL    HW112454   7.099   1.901   0.616  0.0557  0.2016  1.2129
33492SOL    HW212455   6.957   1.851   0.612  0.1698 -0.0423 -0.4804
33493SOL     OW12456   6.980   1.713   0.933  0.1017 -0.0869 -0.0298
33493SOL    HW112457   6.914   1.743   0.870 -0.4081 -0.7816  0.1572
33493SOL    HW212458   7.032   1.649   0.885  0.3532  0.1253 -0.0414
33494SOL     OW12459   5.651   3.167   5.082 -0.1513 -0.6183  0.1987
33494SOL    HW112460   5.727   3.201   5.035 -0.2183  0.7860  1.0207
33494SOL    HW212461   5.597   3.126   5.015  0.5196 -0.0994 -0.6785
33495SOL     OW12462   8.091   7.508   0.059  0.6142 -0.0979 -0.0269
33495SOL    HW112463   8.086   7.463   0.143 -0.1592  0.6879  0.3769
33495SOL    HW212464   8.054   7.595   0.077  1.9214  0.6462 -0.8012
33496SOL     OW12465   5.031   5.837   6.238  0.2655  0.6877  0.2097
33496SOL    HW112466   5.078   5.887   6.304  2.7225 -1.4472  0.2239
33496SOL    HW212467   4.966   5.898   6.204  0.1190  2.4347  3.2543
33497SOL     OW12468   3.176   7.220   5.369 -0.2091 -0.0211  0.6934
33497SOL    HW112469   3.125   7.282   5.316  0.7081  1.3574  1.3791
33497SOL    HW212470   3.218   7.273   5.436  0.1007 -1.4874  1.7233
33498SOL     OW12471   2.554   2.195   4.669 -0.2149 -0.5114  0.1835
33498SOL    HW112472   2.592   2.107   4.670  0.4697 -0.3110 -2.3313
33498SOL    HW212473   2.628   2.252   4.650 -1.0518  0.3439 -0.5788
33499SOL     OW12474   1.080   2.143   9.357  0.2261  0.1540 -0.3248
33499SOL    HW112475   1.115   2.114   9.272 -1.4580  0.0283 -1.0125
33499SOL    HW212476   1.133   2.096   9.422 -0.1821 -1.8288 -1.3594
33500SOL     OW12477   1.562   0.212   8.714  0.0806  0.2020  0.1768
33500SOL    HW112478   1.483   0.236   8.762  1.2661  0.5017  2.0902
33500SOL    HW212479   1.586   0.126   8.749 -0.6798 -1.0532 -2.1439
33501SOL     OW12480   6.068   7.529   9.642  0.2579  0.0040 -0.3846
33501SOL    HW112481   6.052   7.468   9.570 -0.5860  0.8884 -0.9763
33501SOL    HW212482   6.155   7.565   9.623  0.5172 -0.5853 -0.3405
33502SOL     OW12483   7.240   8.238   9.770 -0.3671 -0.2576 -0.0892
33502SOL    HW112484   7.219   8.261   9.679  1.7099  0.9426 -0.3308
33502SOL    HW212485   7.317   8.292   9.791  0.5531 -2.1313  1.6608
33503SOL     OW12486   3.042   3.503   3.260  0.3093  0.0396 -0.6033
33503SOL    HW112487   3.130   3.486   3.292  0.4336 -1.4550 -1.6400
33503SOL    HW212488   2.985   3.455   3.321  0.2881  0.0820 -0.5894
33504SOL     OW12489   4.407   9.268   5.665  0.2006  0.1020  0.3818
33504SOL    HW112490   4.312   9.254   5.664  0.5776 -3.0450  0.2709
33504SOL    HW212491   4.425   9.304   5.752 -1.2486  2.9995 -0.3732
33505SOL     OW12492   6.205   0.078   2.949 -0.2901  0.2484 -0.5801
33505SOL    HW112493   6.261   0.149   2.916  0.8350  0.5181  1.7091
33505SOL    HW212494   6.250  -0.002   2.923  0.2866  0.4429 -0.2010
33506SOL     OW12495   8.985   8.952   7.826 -1.0159  0.1554  0.0822
33506SOL    HW112496   9.010   9.009   7.753  1.0205 -0.7608 -0.0094
33506SOL    HW212497   9.055   8.964   7.891  0.7214 -3.6196 -0.7855
33507SOL     OW12498   8.847   7.551   3.011 -0.0866 -0.1997  0.3176
33507SOL    HW112499   8.880   7.500   3.085 -1.6526 -0.2326  1.0314
33507SOL    HW212500   8.818   7.633   3.049  0.9286  0.6036 -0.5894
33508SOL     OW12501   1.716   7.748   4.469  0.3380 -0.4100 -0.4397
33508SOL    HW112502   1.721   7.843   4.458 -0.7743 -0.3395 -0.4503
33508SOL    HW212503   1.729   7.713   4.382  0.4954 -0.2571 -0.4789
33509SOL     OW12504   2.351   2.613   9.060 -0.0918 -0.4476 -0.5246
33509SOL    HW112505   2.283   2.606   9.127  1.0639 -2.7844  0.5206
33509SOL    HW212506   2.304   2.606   8.977 -1.2717 -0.5246  0.1331
33510SOL     OW12507  10.387   2.321   7.666  0.1277  0.0388 -0.0058
33510SOL    HW112508  10.297   2.291   7.676  0.7631 -1.7068  0.9459
33510SOL    HW212509  10.399   2.332   7.571 -0.3909 -2.1599 -0.3851
33511SOL     OW12510   7.144   0.858   0.031  0.0579  0.0134 -0.1725
33511SOL    HW112511   7.106   0.910  -0.040 -1.2834  0.3918  0.7872
33511SOL    HW212512   7.233   0.891   0.040 -0.5576  1.7092 -0.0191
33512SOL     OW12513   4.590   5.009   4.376  0.1374 -0.3550 -0.1702
33512SOL    HW112514   4.642   5.084   4.404  1.1174 -0.9315 -0.4075
33512SOL    HW212515   4.501   5.043   4.368  0.5336  0.7256 -0.0854
33513SOL     OW12516   2.412  10.268   8.332  0.1200  0.0995 -0.2670
33513SOL    HW112517   2.361  10.311   8.400 -1.6760  0.2902 -1.6697
33513SOL    HW212518   2.458  10.197   8.377  0.2992  1.2346  1.4057
33514SOL     OW12519   8.888   6.541   5.899 -0.3373 -0.3544  0.7493
33514SOL    HW112520   8.858   6.508   5.815 -0.3187 -1.1355  1.0362
33514SOL    HW212521   8.857   6.631   5.903 -1.3372 -0.6773  0.4047
33515SOL     OW12522   8.079   0.643   7.112 -0.4759  0.2287 -0.6285
33515SOL    HW112523   8.066   0.726   7.158 -0.0334  0.5430 -1.0585
33515SOL    HW212524   7.995   0.626   7.069 -0.8911 -0.0637  0.2725
33516SOL     OW12525   4.073   0.667   5.148 -0.0008  0.0959 -0.0389
33516SOL    HW112526   4.081   0.630   5.060  1.9346  0.5694 -0.0905
33516SOL    HW212527   4.029   0.751   5.135 -0.0482  0.0010 -0.5050
33517SOL     OW12528   6.844   2.303   8.907 -0.2739  0.4274  0.1924
33517SOL    HW112529   6.897   2.364   8.856 -0.8764  0.3843 -0.5002
33517SOL    HW212530   6.754   2.335   8.896 -0.7747 -1.2959 -1.2615
33518SOL     OW12531   6.754   8.646   9.469  0.4780 -0.9248 -0.2039
33518SOL    HW112532   6.681   8.585   9.461  1.2454 -1.8183 -0.6207
33518SOL    HW212533   6.752   8.695   9.387 -1.2564  0.9440  0.8713
33519SOL     OW12534   8.330   2.927   1.937  0.4578 -0.2967 -0.0309
33519SOL    HW112535   8.333   2.831   1.939 -1.3291 -0.3873 -0.2497
33519SOL    HW212536   8.386   2.954   2.010 -1.7209 -1.6152  2.3226
33520SOL     OW12537   9.416   7.543   5.172  0.8674  0.4544  0.0140
33520SOL    HW112538   9.455   7.610   5.228  0.3653  0.8821 -0.1458
33520SOL    HW212539   9.407   7.585   5.087  1.3787 -0.1088 -0.3272
33521SOL     OW12540   2.432   6.702   8.950  0.1650  0.5593 -0.5938
33521SOL    HW112541   2.346   6.685   8.912  0.1207  0.6197 -0.5229
33521SOL    HW212542   2.445   6.632   9.013  1.4949 -1.2558 -2.7302
33522SOL     OW12543   0.914   2.360   6.509  0.1800  0.0358 -0.2160
33522SOL    HW112544   0.904   2.304   6.432 -1.5385 -0.7754  0.5284
33522SOL    HW212545   0.873   2.310   6.580 -1.8021  2.3538  0.4231
33523SOL     OW12546   4.563   5.475   8.754 -0.3453  0.3308 -0.0289
33523SOL    HW112547   4.582   5.384   8.728 -0.5123  0.3997 -0.3920
33523SOL    HW212548   4.540   5.519   8.672  0.5389  0.9058  0.0158
33524SOL     OW12549  10.392   1.386   9.421 -0.0429  0.6148 -0.1710
33524SOL    HW112550  10.350   1.373   9.506  2.0577 -1.6992  0.6362
33524SOL    HW212551  10.320   1.410   9.363 -2.2627 -1.5955  1.4072
33525SOL     OW12552   1.908   0.186   0.973  0.5332 -0.0389 -0.5995
33525SOL    HW112553   1.853   0.182   0.895  1.0234  0.6359 -0.9840
33525SOL    HW212554   1.899   0.099   1.013  2.5230 -1.4578 -2.9222
33526SOL     OW12555   3.004   4.875   5.389 -0.3340 -0.1350  0.0568
33526SOL    HW112556   2.971   4.949   5.339 -0.8172  0.0831  0.6807
33526SOL    HW212557   2.926   4.831   5.422 -0.0408 -0.6767  0.0389
33527SOL     OW12558   3.309   9.956  10.113 -0.0454 -0.0527 -0.7268
33527SOL    HW112559   3.238   9.974  10.051 -1.7809 -1.5633  0.7009
33527SOL    HW212560   3.353   9.879  10.076 -0.8771 -0.7525 -0.3208
33528SOL     OW12561   9.514   5.288   0.381 -0.3195  0.1113  0.6365
33528SOL    HW112562   9.553   5.281   0.468 -2.3126 -1.1153  1.5143
33528SOL    HW212563   9.420   5.298   0.398 -0.7817 -0.3944 -1.3796
33529SOL     OW12564   4.612   8.593   8.266  0.1694 -0.1333  0.4016
33529SOL    HW112565   4.522   8.620   8.247  0.5125  1.8331  1.2495
33529SOL    HW212566   4.647   8.562   8.182 -1.2022 -0.6869  0.0132
33530SOL     OW12567   8.652   5.833   2.438  0.3127 -0.2378  0.3166
33530SOL    HW112568   8.695   5.892   2.500  2.6140 -0.3804 -1.0228
33530SOL    HW212569   8.623   5.890   2.367 -0.4882 -0.3213  0.5718
33531SOL     OW12570   0.612   4.895   7.017 -0.5924 -0.8282  0.1517
33531SOL    HW112571   0.577   4.822   7.069 -2.3809 -0.3450 -0.2981
33531SOL    HW212572   0.535   4.937   6.979  0.4221  0.9958 -0.0365
33532SOL     OW12573   7.792   1.819   4.709 -0.4393 -0.4758  0.6544
33532SOL    HW112574   7.802   1.908   4.743 -0.6340 -1.0394  2.3025
33532SOL    HW212575   7.835   1.820   4.624  1.2883  0.7107  1.4855
33533SOL     OW12576   6.479   1.409   5.875  0.5392 -0.2988 -0.2245
33533SOL    HW112577   6.515   1.497   5.869 -0.6500  0.3451  1.3948
33533SOL    HW212578   6.514   1.374   5.957 -0.7442 -0.4705  0.2760
33534SOL     OW12579   9.102   2.280   0.796 -0.2813 -0.0737  0.2776
33534SOL    HW112580   9.064   2.286   0.708  0.5905 -0.1968 -0.1172
33534SOL    HW212581   9.038   2.322   0.852 -0.6602  0.3964 -0.4836
33535SOL     OW12582   2.103   0.054   1.289  0.1281 -0.0318 -0.0683
33535SOL    HW112583   2.149   0.020   1.213  0.2038  0.5562 -0.2913
33535SOL    HW212584   2.172   0.073   1.353  0.1979  0.7690 -0.3708
33536SOL     OW12585   3.725   1.803   0.552  0.6647 -0.3104 -0.0018
33536SOL    HW112586   3.769   1.857   0.486 -2.0859  0.0737 -1.6886
33536SOL    HW212587   3.633   1.803   0.526 -0.3032 -1.5880  2.9135
33537SOL     OW12588   6.651   9.914   2.374 -0.0710  0.2160  0.4813
33537SOL    HW112589   6.570   9.953   2.342  0.5124  1.0713 -0.0060
33537SOL    HW212590   6.720   9.969   2.337  0.8290 -1.7472 -0.9333
33538SOL     OW12591  10.187   3.765   9.657  0.2826 -0.1012 -0.1016
33538SOL    HW112592  10.119   3.731   9.715 -0.2896  1.7320  0.3913
33538SOL    HW212593  10.214   3.848   9.698 -0.0669  1.2208 -2.3620
33539SOL     OW12594   9.785   1.129   8.941 -0.0435  0.6496 -0.0241
33539SOL    HW112595   9.804   1.150   9.032 -1.0952 -0.2052  0.4033
33539SOL    HW212596   9.867   1.149   8.895 -0.2037  3.3312  0.7021
33540SOL     OW12597   8.926   9.835   6.520 -0.0910 -0.2484 -0.2095
33540SOL    HW112598   8.911   9.881   6.437 -2.1736 -0.1710  0.1361
33540SOL    HW212599   8.992   9.887   6.565  0.4199  0.2054 -1.4552
33541SOL     OW12600   2.780   7.197   9.194 -0.3877  0.1313 -0.3470
33541SOL    HW112601   2.788   7.224   9.103  1.3775  0.7793 -0.0330
33541SOL    HW212602   2.870   7.185   9.224 -0.9617 -1.3278  0.9687
33542SOL     OW12603   7.778   1.487   6.921  0.0460 -0.1262  0.2567
33542SOL    HW112604   7.761   1.444   7.005 -0.9357 -1.0891 -0.4117
33542SOL    HW212605   7.701   1.541   6.906  1.1656  1.7645  0.9736
33543SOL     OW12606   5.029   8.963   2.668 -0.1896  0.3539 -0.5000
33543SOL    HW112607   5.001   8.872   2.681 -1.4063  0.7353 -0.2519
33543SOL    HW212608   5.057   8.966   2.576 -0.6919 -0.1431 -0.6812
33544SOL     OW12609   2.047   1.558   1.337  0.0563 -0.1062  0.0270
33544SOL    HW112610   1.992   1.487   1.371  0.7111 -0.7710 -0.2777
33544SOL    HW212611   1.997   1.593   1.263 -2.3266  2.6597  2.6884
33545SOL     OW12612   6.450   2.023   7.727  0.1006  0.8621  0.3718
33545SOL    HW112613   6.361   2.007   7.697  0.3089 -1.6074  0.8287
33545SOL    HW212614   6.442   2.034   7.822  0.3185  0.0422  0.4927
33546SOL     OW12615   5.994   6.424   6.783 -0.2479  0.0513 -0.1450
33546SOL    HW112616   5.927   6.395   6.720  1.2283  1.4435 -2.4957
33546SOL    HW212617   6.073   6.378   6.756  0.6641  1.4919 -0.0153
33547SOL     OW12618   5.172   8.514   3.573 -0.2409 -0.3737  0.0793
33547SOL    HW112619   5.134   8.453   3.636  1.3483 -2.2322 -0.6748
33547SOL    HW212620   5.128   8.494   3.490 -1.0090  0.7945  0.1835
33548SOL     OW12621   3.162   3.867   2.653  0.2540  0.6220 -0.5040
33548SOL    HW112622   3.116   3.789   2.624  0.4215  0.4214 -0.2379
33548SOL    HW212623   3.118   3.939   2.608 -1.0185  0.5445  0.5298
33549SOL     OW12624   0.467   3.331   4.390  0.4374 -0.0827  0.3097
33549SOL    HW112625   0.483   3.289   4.306 -2.4279 -0.1017 -0.3505
33549SOL    HW212626   0.393   3.283   4.427 -0.6675  2.0914  1.1480
33550SOL     OW12627   3.370   9.714   4.988 -1.0299  0.1271 -0.4495
33550SOL    HW112628   3.428   9.787   5.009 -1.8033  0.3642  1.0123
33550SOL    HW212629   3.325   9.741   4.908  1.3695 -0.3975 -2.0699
33551SOL     OW12630   1.850   7.060   3.645  0.3766 -0.8225  0.3267
33551SOL    HW112631   1.905   7.135   3.621  0.2709 -1.2760 -1.5094
33551SOL    HW212632   1.866   7.048   3.739  1.0950  0.9110  0.4721
33552SOL     OW12633   1.482   9.588   6.165 -0.1612  0.1542 -0.3173
33552SOL    HW112634   1.522   9.618   6.247  0.0231 -1.1318  0.0883
33552SOL    HW212635   1.556   9.577   6.105 -0.2438  0.6123 -0.5102
33553SOL     OW12636   1.176   4.466   7.452 -0.3447 -0.3921  0.4103
33553SOL    HW112637   1.248   4.416   7.413  0.2306 -2.3027  3.5391
33553SOL    HW212638   1.103   4.404   7.456 -0.7133  0.0768  1.3193
33554SOL     OW12639   5.696   9.382   4.305  0.9071  0.1052 -0.1443
33554SOL    HW112640   5.608   9.358   4.336  1.4302 -1.6858  0.0758
33554SOL    HW212641   5.684   9.468   4.265 -0.3494  1.2686  2.5095
33555SOL     OW12642   0.579   5.039   9.974 -0.1551 -0.0724 -0.1673
33555SOL    HW112643   0.582   4.975   9.902  0.0835 -0.6431  0.3382
33555SOL    HW212644   0.507   5.097   9.952  0.4118  0.2361 -1.2603
33556SOL     OW12645  10.003   0.847   3.398  0.6896 -0.3014 -0.1112
33556SOL    HW112646   9.990   0.760   3.359  0.7578  0.0152 -0.8598
33556SOL    HW212647  10.081   0.882   3.353 -1.7499  1.8839 -3.0331
33557SOL     OW12648   7.938   8.042   7.666 -0.2539 -0.9099 -0.1921
33557SOL    HW112649   7.911   7.981   7.598 -0.1666 -0.9311 -0.2079
33557SOL    HW212650   8.034   8.041   7.663 -0.2464  0.1840 -1.0533
33558SOL     OW12651   3.415   6.880   4.859  0.4577  0.5903 -0.1196
33558SOL    HW112652   3.439   6.842   4.943  0.4279  0.8614  0.0120
33558SOL    HW212653   3.355   6.952   4.881 -2.5545 -1.6015 -0.5342
33559SOL     OW12654   2.347   2.761   8.338  0.6282 -0.0084  0.1416
33559SOL    HW112655   2.279   2.726   8.395 -0.9524  0.7961 -1.1370
33559SOL    HW212656   2.336   2.856   8.343  0.0854  0.0811 -1.8345
33560SOL     OW12657   1.424   7.799   9.996  0.2302 -0.6607 -0.1317
33560SOL    HW112658   1.442   7.825  10.087 -0.4082 -0.2490 -0.1135
33560SOL    HW212659   1.371   7.720  10.004  1.3359 -1.4267 -0.1750
33561SOL     OW12660   7.800   9.120   9.898  0.5443 -0.4661 -0.0694
33561SOL    HW112661   7.734   9.060   9.864  0.4333 -0.0485 -0.6016
33561SOL    HW212662   7.882   9.071   9.891  0.3596 -0.7996  0.1184
33562SOL     OW12663   4.168   3.511   7.008 -0.4909  0.2041 -0.6463
33562SOL    HW112664   4.186   3.454   7.083  0.5520  1.3496  0.0094
33562SOL    HW212665   4.254   3.542   6.980 -1.0456  1.6923 -0.7907
33563SOL     OW12666   3.299   2.745   6.218  0.6473  0.0496  0.0921
33563SOL    HW112667   3.276   2.776   6.130  0.4419  0.5300  0.3103
33563SOL    HW212668   3.274   2.652   6.218 -1.2945  0.5356  0.3028
33564SOL     OW12669   6.603   2.004   0.820  0.6247 -0.0561 -0.6975
33564SOL    HW112670   6.654   1.965   0.892  0.4561 -1.1140 -1.1379
33564SOL    HW212671   6.640   2.092   0.810 -1.0419  1.1551  2.3900
33565SOL     OW12672   5.562   6.305   9.447  0.0686 -0.2049 -0.5270
33565SOL    HW112673   5.571   6.342   9.359  0.3777 -0.0485 -0.4310
33565SOL    HW212674   5.620   6.229   9.448 -0.5846 -0.7144 -0.7323
33566SOL     OW12675   5.115   4.276   1.797  0.3897  0.1126  0.5639
33566SOL    HW112676   5.035   4.227   1.780  0.6848 -0.2364  0.1667
33566SOL    HW212677   5.095   4.327   1.875 -1.1670  2.1184 -1.0268
33567SOL     OW12678   7.851   3.838   6.741  0.5599  0.3145  0.5210
33567SOL    HW112679   7.775   3.893   6.719  0.1566 -0.5356 -0.2707
33567SOL    HW212680   7.925   3.882   6.700  0.5786  1.3639  1.6263
33568SOL     OW12681   8.462   3.682   5.052  0.4831 -0.1586 -0.4019
33568SOL    HW112682   8.405   3.648   5.121 -1.6476  2.7314 -0.5334
33568SOL    HW212683   8.545   3.700   5.095 -0.6697  1.2100  1.3815
33569SOL     OW12684   9.675   9.473   8.719 -0.0061 -0.2970  0.1119
33569SOL    HW112685   9.707   9.387   8.744  2.2204  0.5697  0.4221
33569SOL    HW212686   9.588   9.456   8.683 -0.2506 -2.4704  1.5409
33570SOL     OW12687   9.210   5.179   8.262  0.2903  0.3649 -0.1233
33570SOL    HW112688   9.124   5.188   8.221  0.1873  1.7838  0.3612
33570SOL    HW212689   9.253   5.263   8.246  1.3913 -0.1314  0.1055
33571SOL     OW12690   0.465   5.483   6.508 -0.2369 -0.0692  0.2913
33571SOL    HW112691   0.506   5.498   6.423 -1.1059  0.1342 -0.1101
33571SOL    HW212692   0.388   5.541   6.508 -1.4077 -1.5506  0.3564
33572SOL     OW12693   4.831   8.816   4.916  0.3022  0.5323  0.2127
33572SOL    HW112694   4.886   8.894   4.912 -0.0760  0.7476 -1.8694
33572SOL    HW212695   4.779   8.819   4.836 -2.1250 -0.1526  1.6703
33573SOL     OW12696   7.346   0.004   6.147 -0.1588 -0.3911  0.6509
33573SOL    HW112697   7.352  -0.027   6.237 -1.8646  0.4614  1.1006
33573SOL    HW212698   7.262   0.051   6.143  0.2768  0.3268 -1.1502
33574SOL     OW12699   3.343   5.655   8.858 -0.2173 -1.0198 -0.1926
33574SOL    HW112700   3.341   5.736   8.807  0.6561 -1.1872 -0.5162
33574SOL    HW212701   3.258   5.653   8.902 -0.7260 -0.5274 -1.1009
33575SOL     OW12702   8.600   6.667   5.197 -0.3748  0.0772 -0.2628
33575SOL    HW112703   8.648   6.678   5.115  0.9948 -2.2278  0.1538
33575SOL    HW212704   8.545   6.590   5.183 -0.1092 -0.3665  0.9670
33576SOL     OW12705   8.491   6.385   2.616 -0.7727 -0.3229  0.6771
33576SOL    HW112706   8.548   6.344   2.551  0.3959  0.6486  1.0669
33576SOL    HW212707   8.403   6.374   2.580 -0.2515 -0.8012 -0.5154
33577SOL     OW12708   6.287   0.278   0.319  0.2357 -0.0944 -0.0618
33577SOL    HW112709   6.298   0.184   0.307  0.6829 -0.1384  0.6837
33577SOL    HW212710   6.216   0.286   0.383  1.5902  0.0223  1.4567
33578SOL     OW12711   0.614   7.798   8.099 -0.0085  0.1824  0.3543
33578SOL    HW112712   0.563   7.801   8.179  0.2915  0.2389  0.5441
33578SOL    HW212713   0.572   7.862   8.041 -0.8822 -0.6328  0.0675
33579SOL     OW12714   8.134   7.297   8.377 -0.0562 -0.2399 -0.3608
33579SOL    HW112715   8.142   7.249   8.295  3.3649 -1.9512  0.7951
33579SOL    HW212716   8.085   7.237   8.434 -1.2890  0.4043 -0.7022
33580SOL     OW12717   5.853   6.545   7.880  0.0090 -0.0944  0.5597
33580SOL    HW112718   5.850   6.598   7.800 -0.5342  0.7145  1.1074
33580SOL    HW212719   5.792   6.588   7.940 -1.3522 -2.0187  0.6204
33581SOL     OW12720   8.341   0.431   4.583  0.5472 -0.0185 -0.1095
33581SOL    HW112721   8.334   0.424   4.678 -2.4114  1.1926 -0.1099
33581SOL    HW212722   8.406   0.499   4.569  1.4461 -0.6166  1.0053
33582SOL     OW12723   2.077   0.488   2.985  0.2129  0.1177  0.2027
33582SOL    HW112724   2.001   0.509   3.038 -0.8344  0.3439 -1.3225
33582SOL    HW212725   2.107   0.403   3.019 -1.1384 -0.3071  0.4014
33583SOL     OW12726   9.244   6.561   4.627 -1.2675 -0.3651  0.3686
33583SOL    HW112727   9.282   6.481   4.664  0.6390  0.5660  0.5233
33583SOL    HW212728   9.263   6.556   4.534 -0.8242  0.0716  0.4344
33584SOL     OW12729   2.777   7.446   3.785 -0.3931  0.0918  0.0583
33584SOL    HW112730   2.746   7.377   3.727 -2.0215  0.0017  0.9977
33584SOL    HW212731   2.704   7.507   3.793  0.4991  1.1669  0.4337
33585SOL     OW12732   9.761   7.078   1.658 -0.1329 -0.0155  0.1027
33585SOL    HW112733   9.709   7.017   1.710  0.7478 -1.4716 -0.6779
33585SOL    HW212734   9.709   7.159   1.658 -2.2833 -1.3205 -0.4539
33586SOL     OW12735   7.396   9.142  10.385  0.3194  0.3278 -0.4495
33586SOL    HW112736   7.469   9.108  10.333 -1.0859 -1.4101 -1.3983
33586SOL    HW212737   7.394   9.236  10.366  0.3636 -0.1160 -2.9358
33587SOL     OW12738   3.468   0.689   1.080 -0.0640  0.2811 -0.0969
33587SOL    HW112739   3.469   0.594   1.088  0.7363  0.3972  1.6849
33587SOL    HW212740   3.398   0.707   1.016 -1.3879 -1.4056  0.7880
33588SOL     OW12741   1.794   4.477  10.031  0.1985  0.2789 -0.3928
33588SOL    HW112742   1.847   4.546  10.070  0.8030 -1.2547  1.6751
33588SOL    HW212743   1.849   4.443   9.960  0.6262  0.7977 -0.3235
33589SOL     OW12744   1.143   0.612   7.236 -0.0906 -0.2537  0.3304
33589SOL    HW112745   1.085   0.659   7.297 -0.6143 -0.4460 -0.0179
33589SOL    HW212746   1.216   0.582   7.291  0.4376  1.2456  0.5109
33590SOL     OW12747   8.272   9.482   7.971 -0.2001 -0.4956  0.4378
33590SOL    HW112748   8.252   9.434   7.890 -2.1004  1.5305 -0.4127
33590SOL    HW212749   8.364   9.506   7.962  0.1704 -1.9892 -0.1552
33591SOL     OW12750   9.452   3.389   3.738 -0.2259 -0.2332  0.3753
33591SOL    HW112751   9.477   3.413   3.648 -1.1152 -0.1920  0.1328
33591SOL    HW212752   9.453   3.472   3.785  0.4444 -0.2844  0.4565
33592SOL     OW12753   5.844   9.587   6.507 -0.2958 -0.6956  0.0625
33592SOL    HW112754   5.842   9.533   6.586 -0.6856 -1.2169 -0.2965
33592SOL    HW212755   5.928   9.566   6.465  0.1120 -0.0856  0.5593
33593SOL     OW12756   0.032   0.670   0.087  0.5114  0.4343 -0.8057
33593SOL    HW112757  -0.023   0.707   0.157  1.1954 -0.2715  0.1334
33593SOL    HW212758  -0.028   0.615   0.037  0.1066  0.5714 -0.4787
33594SOL     OW12759   0.034   6.509   1.030  0.0278  0.0464 -0.2586
33594SOL    HW112760   0.085   6.571   0.979 -1.4219  1.3011 -0.2153
33594SOL    HW212761   0.097   6.473   1.093  1.4366 -0.3197 -1.8251
33595SOL     OW12762   5.138  10.349   3.955 -0.1124 -0.2451  0.2192
33595SOL    HW112763   5.184  10.399   3.887 -2.0219  1.4518  0.1017
33595SOL    HW212764   5.045  10.366   3.939 -0.7359 -2.1383  1.5207
33596SOL     OW12765   8.692   5.270   0.819  0.0175  0.4972 -0.6060
33596SOL    HW112766   8.707   5.287   0.726 -1.3483  1.5332 -0.6656
33596SOL    HW212767   8.671   5.356   0.856 -1.1781 -0.1660  0.3100
33597SOL     OW12768   6.252   8.249   3.753 -0.3998  0.4736 -0.2870
33597SOL    HW112769   6.288   8.229   3.666 -1.2630 -1.4983 -0.2519
33597SOL    HW212770   6.164   8.282   3.735 -0.4137  0.4915 -0.1862
33598SOL     OW12771   1.685  10.282   6.360  0.3698  0.4504 -0.6027
33598SOL    HW112772   1.776  10.255   6.369  0.1118 -1.4037 -2.6421
33598SOL    HW212773   1.635  10.211   6.401 -0.1995  1.7985  1.1730
33599SOL     OW12774   7.273   1.964   4.655 -0.0975  0.0940  0.5616
33599SOL    HW112775   7.343   1.904   4.684  0.9312  1.3358  0.7679
33599SOL    HW212776   7.199   1.907   4.636  0.8844 -1.2577  0.6048
33600SOL     OW12777   7.130  10.200   8.063  0.0790  0.0150  0.2646
33600SOL    HW112778   7.141  10.138   8.135 -0.7133 -1.5232 -0.8938
33600SOL    HW212779   7.037  10.196   8.042 -0.0019  1.6769  0.2076
33601SOL     OW12780   1.458   4.004   8.310  0.0742  0.0902  0.0708
33601SOL    HW112781   1.542   4.000   8.264 -0.7669 -2.4769 -1.4755
33601SOL    HW212782   1.405   4.063   8.256  0.1123 -0.3406 -0.4558
33602SOL     OW12783   2.247   2.424   0.713  0.4933  0.2570 -0.1087
33602SOL    HW112784   2.269   2.447   0.623 -0.0540 -0.1106 -0.3445
33602SOL    HW212785   2.151   2.424   0.716  0.4724 -1.1758  0.0695
33603SOL     OW12786   3.927   4.811   6.687  0.0207  0.4881 -0.2314
33603SOL    HW112787   3.947   4.822   6.780 -2.5298  1.0343  0.3359
33603SOL    HW212788   3.912   4.717   6.677 -0.7698  0.5524  0.2060
33604SOL     OW12789   3.875   4.365   0.297 -0.1732  0.7932  0.2793
33604SOL    HW112790   3.818   4.412   0.236 -0.7477  0.9541  0.9214
33604SOL    HW212791   3.940   4.322   0.241 -0.6334  1.0009 -0.4353
33605SOL     OW12792   9.678   9.731   3.977 -0.7017 -0.5943  0.1075
33605SOL    HW112793   9.745   9.773   4.031  0.3394 -1.3150 -0.5725
33605SOL    HW212794   9.610   9.705   4.039  0.2349 -0.9755  1.0133
33606SOL     OW12795   1.001   5.904   1.425 -0.6693 -0.0051  0.4304
33606SOL    HW112796   1.009   5.981   1.369 -1.1088  0.0715  0.4706
33606SOL    HW212797   0.991   5.939   1.513 -1.1022 -0.1041  0.4204
33607SOL     OW12798   4.961   9.335   0.786  0.2018  0.2827  0.7049
33607SOL    HW112799   5.019   9.264   0.757 -2.3510 -0.7051 -2.4761
33607SOL    HW212800   4.873   9.297   0.783 -0.9633  2.6011  2.4333
33608SOL     OW12801   9.799   6.113   9.061 -0.1311  0.1824  0.1214
33608SOL    HW112802   9.790   6.019   9.073  2.0059 -0.1011  0.0106
33608SOL    HW212803   9.875   6.137   9.115 -1.2896  2.0595  1.0314
33609SOL     OW12804   2.251   9.653   6.329 -0.3722 -0.5489  0.0781
33609SOL    HW112805   2.295   9.686   6.408 -1.1472 -0.5894  0.5372
33609SOL    HW212806   2.193   9.724   6.303  1.3452  0.3098 -1.6760
33610SOL     OW12807   3.785   9.283   4.481 -0.1998 -0.0190 -0.3150
33610SOL    HW112808   3.861   9.227   4.498  0.9042  1.2488 -0.9385
33610SOL    HW212809   3.812   9.340   4.409 -2.1215 -0.2298 -1.2918
33611SOL     OW12810   0.722   6.901   1.914  0.1440 -0.1462  0.3163
33611SOL    HW112811   0.648   6.873   1.968  0.7059 -1.9780  0.1911
33611SOL    HW212812   0.786   6.936   1.976  0.1228 -0.7059  0.6533
33612SOL     OW12813   7.631   1.044   1.635 -0.0303  0.0120 -0.0777
33612SOL    HW112814   7.665   1.094   1.562 -0.7666  0.5523 -0.0653
33612SOL    HW212815   7.553   1.000   1.600  0.0219 -0.3050  0.1918
33613SOL     OW12816   7.994   4.386   8.423  0.4437  0.3469 -0.3331
33613SOL    HW112817   7.906   4.415   8.397  0.9694  0.5529 -1.9530
33613SOL    HW212818   7.989   4.290   8.421 -0.0168  0.3320  0.6199
33614SOL     OW12819   7.469   9.354   9.018 -0.2630 -0.5996 -0.4434
33614SOL    HW112820   7.530   9.297   9.066 -1.8352 -1.7500  0.2532
33614SOL    HW212821   7.384   9.337   9.057 -0.7858  2.5631  0.0602
33615SOL     OW12822   0.123   5.447   5.039 -0.1833 -0.2957 -0.4778
33615SOL    HW112823   0.133   5.515   5.106  0.8762 -0.9793  0.0880
33615SOL    HW212824   0.147   5.491   4.957  1.6662 -0.2663  0.0437
33616SOL     OW12825   9.828   6.516   4.841 -0.6935  0.4818  0.4894
33616SOL    HW112826   9.810   6.542   4.932  1.1969 -0.3217  1.1458
33616SOL    HW212827   9.741   6.499   4.804 -1.4800 -1.1927  2.7993
33617SOL     OW12828   1.843   0.918   4.862  1.0475 -0.3500 -0.4816
33617SOL    HW112829   1.792   0.845   4.826  1.8908 -1.4462  0.4452
33617SOL    HW212830   1.922   0.921   4.808  0.7376  0.2697 -0.8961
33618SOL     OW12831   0.034   6.916   6.746 -0.9048 -0.3086 -0.7931
33618SOL    HW112832   0.074   7.003   6.742 -0.5198 -0.4665 -0.4423
33618SOL    HW212833   0.015   6.894   6.655 -1.9284  0.5649 -0.8159
33619SOL     OW12834   4.630   1.470   5.987 -0.2791  0.2305 -0.4079
33619SOL    HW112835   4.568   1.404   5.954 -0.0511 -0.0887 -0.2073
33619SOL    HW212836   4.619   1.545   5.928 -2.3792  1.0206  0.8952
33620SOL     OW12837   3.278   1.594   4.335 -0.5718  0.1098 -0.5609
33620SOL    HW112838   3.227   1.514   4.326  1.3659 -1.5360  1.7619
33620SOL    HW212839   3.229   1.647   4.398  0.3508 -1.3865  1.5288
33621SOL     OW12840   4.980   1.539   9.223 -0.3977 -0.1576  0.8092
33621SOL    HW112841   4.969   1.634   9.224 -2.5701 -0.3646  1.3021
33621SOL    HW212842   5.071   1.525   9.246  0.5210  1.8499 -1.2181
33622SOL     OW12843   1.963   3.200   6.824  0.0172  0.5507  0.3871
33622SOL    HW112844   1.867   3.200   6.828  0.0024  0.7450  0.0459
33622SOL    HW212845   1.984   3.265   6.758  0.3935  0.6644  0.6179
33623SOL     OW12846   5.591   3.015   1.641  0.2204  0.0739  0.1250
33623SOL    HW112847   5.663   3.002   1.579 -1.3411 -2.4742 -1.3339
33623SOL    HW212848   5.607   2.951   1.710 -0.2039  0.0642  0.2184
33624SOL     OW12849   3.238   9.471   9.900 -0.4568  0.4004  0.2302
33624SOL    HW112850   3.243   9.391   9.952  1.1589  0.2686 -0.0800
33624SOL    HW212851   3.217   9.441   9.812  2.0226  0.0556 -0.3252
33625SOL     OW12852   2.465   5.777   7.110 -0.6939  0.4182 -0.3787
33625SOL    HW112853   2.407   5.784   7.035  0.0594  0.9987 -0.9152
33625SOL    HW212854   2.536   5.719   7.081  1.8304  3.8522 -1.6275
33626SOL     OW12855   8.546   7.094   3.693  0.0591  0.2028 -0.0657
33626SOL    HW112856   8.594   7.012   3.682 -0.8621 -0.2918 -0.4928
33626SOL    HW212857   8.473   7.088   3.632  0.8126  1.9969 -1.2435
33627SOL     OW12858   5.273  10.114   2.151  0.1142 -0.1898 -0.5589
33627SOL    HW112859   5.318  10.197   2.137 -1.5116  1.2975  2.1734
33627SOL    HW212860   5.185  10.128   2.116 -0.9284  0.2020  2.0043
33628SOL     OW12861   5.165   3.306   3.363 -0.3189  0.6609 -0.0427
33628SOL    HW112862   5.112   3.242   3.315  0.1992 -1.0344  1.5576
33628SOL    HW212863   5.255   3.281   3.345 -0.0403 -1.5068  3.4680
33629SOL     OW12864   7.715   5.424   9.520 -0.2383 -0.1275 -0.0711
33629SOL    HW112865   7.631   5.469   9.534  0.1238 -0.0198  2.1432
33629SOL    HW212866   7.780   5.494   9.524  0.2197 -0.6291  1.9885
33630SOL     OW12867   4.725   5.576   7.539 -0.5289  0.0256  0.3744
33630SOL    HW112868   4.763   5.623   7.464 -0.4681  0.7803  0.8631
33630SOL    HW212869   4.760   5.488   7.532  1.3633  0.6969  0.8130
33631SOL     OW12870   2.112   5.296   9.893 -0.2012  0.0886  0.4071
33631SOL    HW112871   2.041   5.307   9.829 -0.1729 -0.4744  0.2697
33631SOL    HW212872   2.170   5.232   9.852 -0.9767 -1.4690  1.6613
33632SOL     OW12873   1.818   3.984   3.019  0.1900  0.5007  0.7099
33632SOL    HW112874   1.854   4.073   3.025  1.4839  0.0214  0.4868
33632SOL    HW212875   1.841   3.944   3.103  0.9499 -0.0840  0.2323
33633SOL     OW12876   7.711   4.975  10.283  0.0657  0.3023 -0.9882
33633SOL    HW112877   7.758   4.917  10.343 -0.6152  0.4809 -0.2711
33633SOL    HW212878   7.627   4.933  10.269 -0.6065  1.3094 -0.1137
33634SOL     OW12879   4.761   7.894   2.048 -0.1808  0.2942  0.1771
33634SOL    HW112880   4.692   7.960   2.056 -0.3057  0.2033 -0.1294
33634SOL    HW212881   4.840   7.937   2.082 -0.6649 -0.0705  1.8270
33635SOL     OW12882   7.439   1.413   5.756  0.2165  0.0678  0.0942
33635SOL    HW112883   7.484   1.495   5.779  0.9540 -0.4191  0.4101
33635SOL    HW212884   7.498   1.344   5.786 -0.0707 -0.5839 -0.8219
33636SOL     OW12885   1.884   2.440   6.235 -0.1092  0.0429 -0.6017
33636SOL    HW112886   1.834   2.518   6.209 -1.7274 -0.7097  0.0956
33636SOL    HW212887   1.975   2.465   6.225 -0.6154  1.6016 -1.6237
33637SOL     OW12888   1.692   6.741   4.869 -0.4339  0.0260  0.5022
33637SOL    HW112889   1.771   6.773   4.825  0.2818 -0.9561  1.0400
33637SOL    HW212890   1.668   6.811   4.930 -0.1767  0.4716  0.1012
33638SOL     OW12891   4.375   4.625   0.692 -0.2244 -0.2823  0.4427
33638SOL    HW112892   4.461   4.664   0.681 -1.0146  1.3500 -0.3022
33638SOL    HW212893   4.342   4.661   0.774 -0.8782  0.4812 -0.1451
33639SOL     OW12894   0.606   7.253   9.943 -0.0774 -0.5179  0.2562
33639SOL    HW112895   0.573   7.267   9.853 -0.8132  0.3151  0.6339
33639SOL    HW212896   0.531   7.275   9.999  0.0126 -2.1234  1.0589
33640SOL     OW12897   1.216   8.364   9.925 -1.0247  0.0735  0.2784
33640SOL    HW112898   1.123   8.348   9.941 -0.7067 -1.9126  0.3614
33640SOL    HW212899   1.220   8.394   9.834 -1.8191  1.2438  0.5988
33641SOL     OW12900   3.278   4.758   8.254 -0.1783  0.1270  0.0007
33641SOL    HW112901   3.258   4.721   8.340 -1.0183 -0.7122 -0.5348
33641SOL    HW212902   3.255   4.851   8.262 -0.9137 -0.0845  0.4839
33642SOL     OW12903   7.470   4.444   9.305  0.5265  0.1534  0.6145
33642SOL    HW112904   7.393   4.501   9.314  0.5978  0.5066 -0.7505
33642SOL    HW212905   7.544   4.504   9.304  0.5422  0.1799 -1.7233
33643SOL     OW12906   9.803   5.777   5.702  0.4763 -0.0087 -0.3459
33643SOL    HW112907   9.751   5.843   5.658  1.4373 -0.4388 -2.2089
33643SOL    HW212908   9.844   5.727   5.632  0.6685 -1.8766  1.0135
33644SOL     OW12909   6.841   4.232   2.973 -0.2682 -0.3395  0.7633
33644SOL    HW112910   6.818   4.271   2.889  1.2619  0.7070  0.7921
33644SOL    HW212911   6.909   4.168   2.952 -0.3446 -0.5480  1.1354
33645SOL     OW12912   0.846   9.455   5.689 -1.0043 -0.2798 -0.1185
33645SOL    HW112913   0.791   9.380   5.715  0.7130 -1.8610 -0.8039
33645SOL    HW212914   0.861   9.503   5.770  0.7670 -2.7364  1.1685
33646SOL     OW12915   7.174   8.240   4.982  0.5801 -0.3193  0.0915
33646SOL    HW112916   7.150   8.163   5.034  1.0890 -1.3396 -1.1151
33646SOL    HW212917   7.266   8.255   5.004  0.5173 -0.1361  0.2291
33647SOL     OW12918   1.292   4.399   9.671  0.0203 -0.5522  0.2969
33647SOL    HW112919   1.201   4.412   9.698  0.4327  1.3332  0.9333
33647SOL    HW212920   1.288   4.329   9.606 -2.5759  2.4614 -3.1924
33648SOL     OW12921   2.020   6.230   3.374 -0.3270  0.3613  0.2791
33648SOL    HW112922   1.970   6.303   3.411  1.4395  1.4155  0.6939
33648SOL    HW212923   2.050   6.262   3.289 -1.6280 -0.8526 -0.6771
33649SOL     OW12924   0.041   3.876   3.211  0.7229 -0.0236  0.5606
33649SOL    HW112925   0.121   3.898   3.258  0.3152 -0.4179  1.4558
33649SOL    HW212926  -0.029   3.886   3.276 -0.0382  0.9051 -0.3480
33650SOL     OW12927   1.096   5.709   9.375 -0.6743  0.2961  0.4724
33650SOL    HW112928   1.021   5.649   9.368  0.0331 -0.7621  1.5999
33650SOL    HW212929   1.146   5.694   9.294 -1.6990  1.0751 -0.3277
33651SOL     OW12930   6.659   7.330   6.439  0.2928  0.7186 -0.4133
33651SOL    HW112931   6.685   7.255   6.492 -2.8841 -0.6603 -0.5546
33651SOL    HW212932   6.726   7.337   6.371  1.8895 -0.4832  0.9748
33652SOL     OW12933   0.088   7.111   2.395  0.7459 -0.2394 -0.0776
33652SOL    HW112934   0.159   7.053   2.368  0.2325 -0.5395 -0.8264
33652SOL    HW212935   0.008   7.061   2.378  0.3373  0.2488  0.3606
33653SOL     OW12936   0.549   1.634   3.635  0.5349  0.6026 -0.9555
33653SOL    HW112937   0.483   1.598   3.695  0.5212 -0.2906 -1.4777
33653SOL    HW212938   0.586   1.708   3.682  0.9155 -0.4028  0.4228
33654SOL     OW12939   2.781   9.818   7.310  0.1332  0.6668 -0.7455
33654SOL    HW112940   2.704   9.829   7.254 -1.1227  0.5499  0.8697
33654SOL    HW212941   2.830   9.746   7.271 -1.4056 -0.3031 -0.9505
33655SOL     OW12942   3.209   1.018   9.410 -0.1348  0.8137 -0.7919
33655SOL    HW112943   3.160   1.100   9.414 -0.2738  0.6755  1.5744
33655SOL    HW212944   3.248   1.009   9.496  1.0521 -0.9285 -1.4558
33656SOL     OW12945   2.793   3.518   8.156  0.0541  0.3681 -0.1562
33656SOL    HW112946   2.792   3.429   8.121 -3.7511 -0.0520  0.5832
33656SOL    HW212947   2.829   3.508   8.245  2.0608  0.0965 -0.9418
33657SOL     OW12948   5.699   6.174   8.507  0.5835  0.3826 -0.5821
33657SOL    HW112949   5.645   6.107   8.466 -0.3545  2.1834 -2.4700
33657SOL    HW212950   5.713   6.143   8.596 -2.0118 -1.0314 -0.5868
33658SOL     OW12951   5.804   8.897   1.363  0.0270 -0.1783  0.3598
33658SOL    HW112952   5.804   8.834   1.435 -1.5638 -0.5232  0.0866
33658SOL    HW212953   5.840   8.849   1.288 -0.7380 -0.6240  0.2747
33659SOL     OW12954   2.921   8.294   5.449  0.2056  0.2471 -0.0747
33659SOL    HW112955   3.004   8.318   5.408 -0.4699  2.7214 -0.2077
33659SOL    HW212956   2.895   8.213   5.406  2.2071 -0.1965 -0.5254
33660SOL     OW12957   5.921   3.218   5.280 -0.3579  0.2691  0.0311
33660SOL    HW112958   5.876   3.292   5.320  0.4920  1.1901 -0.6838
33660SOL    HW212959   6.002   3.254   5.246 -0.4502 -0.7513 -1.3627
33661SOL     OW12960   1.665   3.890   7.193  0.3517  0.0626  0.4465
33661SOL    HW112961   1.759   3.897   7.207  0.2682  0.6945  0.7020
33661SOL    HW212962   1.645   3.952   7.124  0.0056  0.5198  0.9454
33662SOL     OW12963   7.907   1.111   9.862  0.3698 -0.1611  0.6765
33662SOL    HW112964   7.990   1.091   9.905  0.4479  0.5263  0.8658
33662SOL    HW212965   7.924   1.099   9.769  0.1486 -1.8338  0.8321
33663SOL     OW12966   2.374   1.535   4.430  0.2530  0.2476  0.0381
33663SOL    HW112967   2.289   1.529   4.386  0.0014  0.1273  0.5394
33663SOL    HW212968   2.387   1.450   4.471  0.6187  0.2642 -0.0409
33664SOL     OW12969   0.361   3.138   1.525 -0.3746 -0.0320 -0.6196
33664SOL    HW112970   0.400   3.179   1.603 -0.6069 -0.2924 -0.3615
33664SOL    HW212971   0.288   3.195   1.502 -0.8710 -0.4424 -0.0927
33665SOL     OW12972   0.361   4.181   8.538  0.1447  0.1548  0.2040
33665SOL    HW112973   0.303   4.151   8.468  0.4220  0.2281 -0.0609
33665SOL    HW212974   0.414   4.104   8.559  2.2315  0.9308 -1.8501
33666SOL     OW12975   7.101   5.899   6.173 -0.4668  0.4215  0.0388
33666SOL    HW112976   7.011   5.875   6.154 -1.2078  1.2044  2.3191
33666SOL    HW212977   7.141   5.820   6.209 -0.4420  0.2787 -0.2997
33667SOL     OW12978   8.193  10.360   9.451  0.0003 -0.0167 -0.2021
33667SOL    HW112979   8.286  10.371   9.473  0.4539 -0.0556 -1.9169
33667SOL    HW212980   8.184  10.267   9.432  0.1589  0.3078 -2.1127
33668SOL     OW12981  10.340   7.775   2.110  0.4610 -0.0243 -0.1946
33668SOL    HW112982  10.397   7.738   2.178 -0.0581  0.5413  0.5603
33668SOL    HW212983  10.399   7.792   2.037  1.1131 -0.2332  0.2719
33669SOL     OW12984   5.266   8.935   2.079  0.4277  0.3664  0.2301
33669SOL    HW112985   5.251   8.845   2.106 -1.2584  0.8032  0.8959
33669SOL    HW212986   5.240   8.938   1.987 -1.3298  0.5235  0.6827
33670SOL     OW12987   6.286   5.282   7.467  0.1907 -0.0968  0.5275
33670SOL    HW112988   6.364   5.258   7.418 -0.6499 -0.0952 -0.8685
33670SOL    HW212989   6.272   5.210   7.528  0.5570 -0.7032 -0.0986
33671SOL     OW12990   2.987   9.515   3.402 -0.4581 -0.2131 -0.1718
33671SOL    HW112991   2.962   9.603   3.431 -2.1325 -0.8411  0.4521
33671SOL    HW212992   3.065   9.528   3.349 -1.0144  1.7377 -0.5995
33672SOL     OW12993   9.371   7.695   3.814  0.2945  0.1427  0.3256
33672SOL    HW112994   9.383   7.765   3.878 -0.7083  0.7374 -0.1105
33672SOL    HW212995   9.457   7.682   3.775  1.2034 -0.9967  2.5237
33673SOL     OW12996   5.458   3.521   5.000  0.0762 -0.0119  0.2233
33673SOL    HW112997   5.379   3.467   5.009 -0.0027 -0.1284 -1.0344
33673SOL    HW212998   5.507   3.481   4.928  1.4722 -0.1485  1.1927
33674SOL     OW12999   4.547   1.537   4.884 -0.9449  0.4007  0.6149
33674SOL    HW113000   4.597   1.597   4.940  0.8881  0.5940 -1.1045
33674SOL    HW213001   4.459   1.575   4.881 -0.0941  2.4756  0.3692
33675SOL     OW13002   6.541   3.903   0.301 -0.5972  0.1314  0.3304
33675SOL    HW113003   6.528   3.862   0.216 -0.6563  0.5523  0.1323
33675SOL    HW213004   6.525   3.833   0.365 -2.9524  0.3722  0.0761
33676SOL     OW13005   8.312   7.648   0.600 -0.2017 -0.0966  0.1704
33676SOL    HW113006   8.362   7.567   0.598  0.0081 -0.0043  1.1172
33676SOL    HW213007   8.221   7.621   0.593 -0.1186 -0.4027  0.2641
33677SOL     OW13008   1.544   7.311   0.145 -0.0482 -0.5182 -0.2463
33677SOL    HW113009   1.500   7.383   0.099 -0.5705 -1.8465 -1.9463
33677SOL    HW213010   1.582   7.352   0.222 -0.8835  1.4531 -0.8053
33678SOL     OW13011   8.554   1.673   3.228  0.3352 -0.1940  0.5425
33678SOL    HW113012   8.624   1.659   3.292  0.2092  0.2494  0.7792
33678SOL    HW213013   8.473   1.671   3.280  0.3367  2.0531  0.7156
33679SOL     OW13014   0.535   2.281   0.111  0.2123  0.5921 -0.5086
33679SOL    HW113015   0.498   2.329   0.185 -3.1932 -0.5581 -1.2825
33679SOL    HW213016   0.496   2.194   0.117  4.5970 -1.6100 -0.3099
33680SOL     OW13017   2.202   1.035   2.343 -0.1703  0.0651 -0.6268
33680SOL    HW113018   2.221   0.947   2.310  0.7664 -0.7224  1.7556
33680SOL    HW213019   2.124   1.025   2.397  0.0394  0.6338 -0.1976
33681SOL     OW13020   7.162   5.713   5.750 -0.1533 -0.1263  0.4129
33681SOL    HW113021   7.246   5.752   5.724  1.2267 -2.3336  1.2824
33681SOL    HW213022   7.135   5.663   5.673 -1.3547  1.4908 -0.2926
33682SOL     OW13023   1.462   8.600   1.196 -0.3039 -0.1613 -0.7499
33682SOL    HW113024   1.438   8.545   1.122 -1.4480 -0.6966 -0.0027
33682SOL    HW213025   1.536   8.652   1.165  1.0018 -2.3106 -1.3920
33683SOL     OW13026   1.030   0.678   5.486 -0.4571  0.6369  0.8633
33683SOL    HW113027   0.967   0.709   5.552 -0.9582  0.9310  0.2539
33683SOL    HW213028   1.011   0.731   5.408 -1.6142 -1.4243 -0.3486
33684SOL     OW13029   7.488   7.545   0.760  1.0764 -0.2838 -0.2181
33684SOL    HW113030   7.468   7.512   0.848  0.8807 -0.6150 -0.3856
33684SOL    HW213031   7.408   7.588   0.732  0.6839 -1.3336 -0.7619
33685SOL     OW13032   3.497   7.340   7.411  0.4273  0.2125 -0.3630
33685SOL    HW113033   3.563   7.384   7.465 -0.5332 -0.8068  1.7674
33685SOL    HW213034   3.477   7.403   7.342  1.9626  1.4520  0.2585
33686SOL     OW13035   5.600   5.025   0.977  0.2315  0.1380  0.2495
33686SOL    HW113036   5.654   4.948   0.993  0.3030 -0.0884 -0.9694
33686SOL    HW213037   5.518   5.007   1.022 -0.4460 -1.5019 -1.5109
33687SOL     OW13038   6.094   8.186   0.581  0.1505  0.3751 -0.3630
33687SOL    HW113039   6.137   8.248   0.639 -1.2917  1.5489 -0.4893
33687SOL    HW213040   6.152   8.178   0.505 -0.2300  2.6107 -0.9466
33688SOL     OW13041   1.299  10.018   0.002 -0.5165 -0.2146 -0.1334
33688SOL    HW113042   1.236  10.085  -0.023 -2.6953 -2.1168 -0.1669
33688SOL    HW213043   1.294   9.953  -0.068 -0.7506 -1.8140  1.2906
33689SOL     OW13044   4.757   3.316   9.025 -0.2381 -0.9454  0.0267
33689SOL    HW113045   4.741   3.279   9.112  1.8825 -3.1906 -0.3994
33689SOL    HW213046   4.845   3.355   9.032 -1.5719  2.4202 -0.1403
33690SOL     OW13047   8.233   4.976   4.684  0.6056  0.1122 -1.1468
33690SOL    HW113048   8.319   4.933   4.675  0.9220  0.0335  1.5075
33690SOL    HW213049   8.254   5.065   4.712 -0.1207  1.5465 -4.6732
33691SOL     OW13050   5.636   1.069   0.362 -0.4311  0.0040 -0.0237
33691SOL    HW113051   5.638   0.995   0.301  0.1148  0.5690 -0.7043
33691SOL    HW213052   5.577   1.132   0.321  0.7022  0.8011 -0.4770
33692SOL     OW13053   7.231   8.197   7.516  0.2872 -0.0728  0.1385
33692SOL    HW113054   7.181   8.243   7.449  0.7041  0.9488  0.5167
33692SOL    HW213055   7.286   8.135   7.468  2.9688  2.7953 -0.8476
33693SOL     OW13056  10.350   6.098   6.106 -0.2897 -0.5744  0.0423
33693SOL    HW113057  10.285   6.161   6.136 -1.8918 -2.4051  0.6097
33693SOL    HW213058  10.422   6.105   6.169 -0.0356  1.2267 -0.3924
33694SOL     OW13059   3.070   4.141   9.091 -0.2749 -0.1927 -0.2550
33694SOL    HW113060   3.075   4.046   9.077 -0.5211 -0.1665 -0.5379
33694SOL    HW213061   2.988   4.167   9.049  0.3317  0.3078 -1.1692
33695SOL     OW13062   5.890   8.558   6.033 -0.8305 -0.0235 -0.0576
33695SOL    HW113063   5.949   8.548   5.959 -0.7125 -0.2771  0.0663
33695SOL    HW213064   5.806   8.526   6.002 -0.9940  0.6908 -0.3511
33696SOL     OW13065   9.547   4.979   7.429  0.3211 -0.2776  0.0680
33696SOL    HW113066   9.568   5.053   7.487  2.4059 -0.2624 -0.6247
33696SOL    HW213067   9.510   4.913   7.487  0.2563  0.5741  1.0296
33697SOL     OW13068   1.360   6.567   8.297 -0.5907 -0.3010 -0.0548
33697SOL    HW113069   1.372   6.533   8.209  2.6274 -1.9172  0.8300
33697SOL    HW213070   1.315   6.496   8.344  0.0989 -0.5818  0.1980
33698SOL     OW13071   7.362   7.130   1.350  0.3010 -0.0238 -0.1286
33698SOL    HW113072   7.312   7.191   1.295  0.5476  0.0857 -0.2343
33698SOL    HW213073   7.453   7.141   1.321  0.2453 -1.0634 -0.7430
33699SOL     OW13074   9.097   9.145   0.112 -0.0764  0.4774  0.7656
33699SOL    HW113075   9.168   9.138   0.176  0.4793 -1.1006  0.0296
33699SOL    HW213076   9.017   9.138   0.164  0.3290  0.6127  1.4250
33700SOL     OW13077  10.095   6.366   1.201  0.4771  0.2121 -0.1375
33700SOL    HW113078  10.155   6.326   1.264  0.9692 -0.2006 -0.8534
33700SOL    HW213079  10.007   6.343   1.233  0.7209  0.0004  0.3842
33701SOL     OW13080   5.053   7.798   2.952  0.3077 -0.0039 -0.3322
33701SOL    HW113081   4.962   7.789   2.925 -0.1810  0.2577  1.1699
33701SOL    HW213082   5.058   7.754   3.037  1.4599  0.4390 -0.1500
33702SOL     OW13083   8.783   8.200   7.988 -0.3643 -0.0499  0.4785
33702SOL    HW113084   8.735   8.217   7.907 -0.5052 -1.3806  0.2695
33702SOL    HW213085   8.796   8.287   8.027  1.5979  0.8911 -2.0040
33703SOL     OW13086   2.791   2.999   3.089 -0.4439  0.0140 -0.1384
33703SOL    HW113087   2.759   3.041   3.169  0.8018  1.0076 -0.1361
33703SOL    HW213088   2.717   3.006   3.028 -1.3326 -0.5699  0.8289
33704SOL     OW13089   3.023   0.282   6.638  0.2916  0.1570 -0.6468
33704SOL    HW113090   3.071   0.339   6.578  0.9050  0.0104 -0.2998
33704SOL    HW213091   3.038   0.194   6.605  3.4458 -0.2938  1.5537
33705SOL     OW13092   3.553   7.955   4.224 -0.1358 -0.2327 -0.1016
33705SOL    HW113093   3.565   7.937   4.317  0.3784  1.8326  0.2849
33705SOL    HW213094   3.597   7.883   4.180  0.1309 -0.9386  1.2639
33706SOL     OW13095   9.993   1.728   4.853  0.5747  0.3046  0.2263
33706SOL    HW113096  10.061   1.668   4.822  1.3069  0.4779  1.4440
33706SOL    HW213097   9.912   1.675   4.852  0.7445  0.0292 -1.0002
33707SOL     OW13098   6.150   5.642   0.541  0.0569  0.0822  0.3400
33707SOL    HW113099   6.154   5.604   0.629 -0.5416  0.4325  0.5266
33707SOL    HW213100   6.208   5.718   0.546  0.5474 -0.2848  0.2344
33708SOL     OW13101   6.798   1.497   1.562  0.1891 -0.0097  0.0376
33708SOL    HW113102   6.883   1.540   1.561  0.8562 -1.2737  0.3910
33708SOL    HW213103   6.750   1.536   1.489  1.1484  0.5685 -0.2892
33709SOL     OW13104   7.077   7.815   1.889 -0.2759 -0.2375  0.1121
33709SOL    HW113105   6.983   7.822   1.877 -0.3568 -1.1999  0.1211
33709SOL    HW213106   7.101   7.732   1.847  0.6933  0.3976 -0.6384
33710SOL     OW13107   2.042   0.788   9.343 -0.1202  0.0549 -0.3183
33710SOL    HW113108   2.125   0.823   9.313 -0.2490 -0.0871 -0.8590
33710SOL    HW213109   2.017   0.725   9.275  0.5355 -1.7431  1.0322
33711SOL     OW13110   0.817   4.812   8.047 -0.1066 -0.4067  0.3592
33711SOL    HW113111   0.814   4.718   8.030 -0.8997 -0.2312 -0.5412
33711SOL    HW213112   0.757   4.850   7.983  0.4832  0.7534  0.4720
33712SOL     OW13113   9.873   2.901   4.002 -0.3190 -0.4404 -0.3939
33712SOL    HW113114   9.954   2.904   4.053 -0.0090 -0.4469 -0.8686
33712SOL    HW213115   9.803   2.908   4.066  0.0472 -0.9239  0.0689
33713SOL     OW13116   2.251   7.256   5.115 -0.6487 -0.1996 -0.0300
33713SOL    HW113117   2.159   7.281   5.111 -1.0885 -1.7508 -0.0250
33713SOL    HW213118   2.284   7.272   5.026 -0.8148  0.6737  0.0552
33714SOL     OW13119   9.924   5.996   6.030  0.1815 -0.3576  0.2077
33714SOL    HW113120   9.990   5.929   6.013  0.7452 -0.0134  0.9762
33714SOL    HW213121   9.970   6.062   6.082  0.3857  1.8850 -2.5157
33715SOL     OW13122   8.352   5.209   6.228  0.5527 -0.0305 -0.0387
33715SOL    HW113123   8.369   5.219   6.134 -1.5010 -1.8438 -0.6987
33715SOL    HW213124   8.414   5.141   6.256  0.2482 -0.4841 -0.4345
33716SOL     OW13125   3.562   1.983   0.229 -0.0342  0.2521 -0.2715
33716SOL    HW113126   3.639   1.967   0.174 -0.4722  2.9270 -1.8237
33716SOL    HW213127   3.490   1.992   0.167 -1.1248  0.3736  0.9725
33717SOL     OW13128   8.902   6.891   8.444  0.2516 -0.6108 -0.2365
33717SOL    HW113129   8.845   6.967   8.436 -0.8329 -1.2414  1.1523
33717SOL    HW213130   8.977   6.922   8.495  1.2541  0.2256 -2.0943
33718SOL     OW13131   1.782   6.597   7.293  0.5228  0.6072 -0.1236
33718SOL    HW113132   1.790   6.658   7.367  1.1553 -0.5715  0.8281
33718SOL    HW213133   1.764   6.652   7.218  1.8799  2.0687  0.5604
33719SOL     OW13134   0.502   2.911   8.204 -0.0478 -0.4309 -0.0911
33719SOL    HW113135   0.562   2.840   8.181  1.0232  0.0928  0.9518
33719SOL    HW213136   0.547   2.958   8.274 -0.4044  1.6904 -1.2083
33720SOL     OW13137   6.752   5.660   0.414 -0.0544  0.3618  0.0131
33720SOL    HW113138   6.713   5.748   0.419  0.2106  0.4683  0.2351
33720SOL    HW213139   6.788   5.645   0.502  0.5711  0.3383 -0.2474
33721SOL     OW13140   7.996   4.666   9.671  0.5466 -0.2899 -0.0723
33721SOL    HW113141   7.913   4.637   9.633  0.3755  1.9835 -1.5744
33721SOL    HW213142   8.062   4.643   9.606  0.8314 -0.1915  0.1781
33722SOL     OW13143   2.101  10.287   5.630  0.3125  0.1632 -0.3732
33722SOL    HW113144   2.063  10.215   5.680 -0.8976 -1.1575 -2.9779
33722SOL    HW213145   2.195  10.267   5.626  0.6585  0.9343  2.1943
33723SOL     OW13146   7.489   5.539   7.379 -0.3668 -0.4418  0.3189
33723SOL    HW113147   7.418   5.593   7.345 -0.1557  0.2168  0.9187
33723SOL    HW213148   7.562   5.556   7.319 -0.0720  0.5281  0.9301
33724SOL     OW13149   5.875   8.805   6.724 -0.0235  0.2639  0.1252
33724SOL    HW113150   5.817   8.855   6.666  0.5856 -0.9644 -1.6398
33724SOL    HW213151   5.953   8.790   6.671 -0.1294 -2.4146  0.5879
33725SOL     OW13152   0.990   1.128   5.310  0.0336  0.3020  0.3047
33725SOL    HW113153   0.929   1.178   5.364  0.0723 -0.4983  1.1159
33725SOL    HW213154   0.978   1.162   5.221 -0.0242  1.6525  0.8065
33726SOL     OW13155   8.287   3.433   7.014  0.0537 -0.3874  0.1654
33726SOL    HW113156   8.351   3.434   7.086 -0.8049  0.9466  0.9538
33726SOL    HW213157   8.225   3.364   7.038  0.2647 -0.5502  0.2453
33727SOL     OW13158   8.255   2.184   8.508 -0.5678  0.1393 -0.0919
33727SOL    HW113159   8.201   2.262   8.492 -1.1969 -0.0991  0.7701
33727SOL    HW213160   8.259   2.140   8.424 -0.9753  0.6265 -0.3739
33728SOL     OW13161   1.523   9.139   8.084 -0.2551 -0.5338 -0.3050
33728SOL    HW113162   1.511   9.187   8.166 -0.4387 -0.5109 -0.3437
33728SOL    HW213163   1.594   9.185   8.040 -0.2660 -0.4465 -0.2316
33729SOL     OW13164   3.033   1.834   9.870 -0.1698  0.0400 -0.7351
33729SOL    HW113165   2.981   1.865   9.944  2.1716  0.1138  0.9668
33729SOL    HW213166   2.987   1.869   9.793 -1.8517  1.2140  0.7132
33730SOL     OW13167   0.214   5.534   7.946 -0.9272 -0.2633 -0.1474
33730SOL    HW113168   0.227   5.510   7.854 -1.6016 -1.4874  0.0489
33730SOL    HW213169   0.134   5.587   7.945  0.6118  2.2369 -0.5928
33731SOL     OW13170   5.159   1.279   2.629  0.5664  0.6685  0.1160
33731SOL    HW113171   5.142   1.346   2.695 -1.8491  0.3086 -0.0622
33731SOL    HW213172   5.149   1.196   2.675 -2.4570  0.3781 -0.8698
33732SOL     OW13173   3.858   0.570   8.790  0.1930 -0.0695 -0.1336
33732SOL    HW113174   3.929   0.585   8.853 -0.1008  0.8395 -0.0093
33732SOL    HW213175   3.878   0.628   8.717 -0.3852  0.1442 -0.1272
33733SOL     OW13176   4.242   0.687   2.848 -1.1671 -0.4868 -0.0920
33733SOL    HW113177   4.275   0.767   2.807 -0.0072 -1.0570 -0.3141
33733SOL    HW213178   4.319   0.631   2.857 -2.4387 -3.2338 -3.6239
33734SOL     OW13179   8.560   5.136   7.500 -0.6413 -0.0232  0.8519
33734SOL    HW113180   8.600   5.152   7.586  0.2355 -0.5249  0.5477
33734SOL    HW213181   8.620   5.076   7.457  0.3349  2.1808 -1.0989
33735SOL     OW13182   8.848   4.715   4.001  0.0564 -0.2771  0.7434
33735SOL    HW113183   8.911   4.778   4.033 -0.2702  0.6243 -0.3253
33735SOL    HW213184   8.859   4.638   4.057  0.3211  0.7908  2.1951
33736SOL     OW13185   3.534   3.779   6.793 -0.0151 -0.7008 -0.4831
33736SOL    HW113186   3.456   3.782   6.738 -0.0980 -3.1140 -0.6051
33736SOL    HW213187   3.606   3.801   6.734 -0.4740  0.6996 -0.5635
33737SOL     OW13188   1.321   0.854   0.040  0.0126  0.2439 -0.2613
33737SOL    HW113189   1.404   0.861   0.087 -0.7364 -0.5248  1.2385
33737SOL    HW213190   1.339   0.795  -0.033  1.2559  1.6520 -1.1441
33738SOL     OW13191   4.677   9.233   1.774  0.2938  0.5452  0.2723
33738SOL    HW113192   4.757   9.191   1.740 -0.6714 -0.0296 -1.4332
33738SOL    HW213193   4.647   9.174   1.843  0.4414 -0.1474 -0.2332
33739SOL     OW13194   7.875   9.936   2.461 -0.4363  0.6941  0.0728
33739SOL    HW113195   7.881  10.029   2.440 -1.4776  0.3593 -1.9934
33739SOL    HW213196   7.902   9.891   2.381  0.1666 -0.8062  1.0697
33740SOL     OW13197   2.775   8.845   8.682 -0.3038 -0.7153  0.0009
33740SOL    HW113198   2.845   8.905   8.710  0.0147 -0.4095 -1.4089
33740SOL    HW213199   2.809   8.802   8.604 -0.8326 -2.2082  0.5417
33741SOL     OW13200   4.133   3.550   8.010  0.2600 -0.1567 -0.0375
33741SOL    HW113201   4.131   3.524   7.919 -0.5407 -2.3718  0.5600
33741SOL    HW213202   4.196   3.622   8.013  0.9372 -0.6017 -2.1729
33742SOL     OW13203   2.804  10.077   0.509  0.1714 -0.1900 -0.0750
33742SOL    HW113204   2.867  10.080   0.437  1.5820 -0.7639  1.0777
33742SOL    HW213205   2.850  10.117   0.583 -0.6880 -0.9026  0.8890
33743SOL     OW13206   2.955   0.097   3.310 -0.0480  0.7975 -0.0231
33743SOL    HW113207   2.935   0.175   3.362  1.6841  1.7029 -0.6577
33743SOL    HW213208   2.954   0.025   3.374  0.3348  1.6328  0.9546
33744SOL     OW13209   1.215   4.100   9.587 -0.6483 -0.2885  0.2647
33744SOL    HW113210   1.179   4.160   9.522 -0.1609 -1.3409 -1.0230
33744SOL    HW213211   1.185   4.014   9.560  0.3430 -0.8567  0.8912
33745SOL     OW13212   1.998   6.821   3.118  0.5052  0.2354 -0.1546
33745SOL    HW113213   1.905   6.845   3.130 -0.0417 -2.2882  1.3202
33745SOL    HW213214   2.016   6.759   3.188  3.0529 -0.1813 -1.0737
33746SOL     OW13215   8.594   5.552   0.371 -0.0770  0.6928 -0.4129
33746SOL    HW113216   8.655   5.486   0.404 -0.2530 -0.4851 -2.2787
33746SOL    HW213217   8.647   5.604   0.310 -0.5464  0.6324 -0.8810
33747SOL     OW13218   1.687   8.211   4.240 -0.0494 -0.0012  0.4048
33747SOL    HW113219   1.708   8.188   4.149 -0.3263 -0.5180  0.4658
33747SOL    HW213220   1.629   8.287   4.232 -0.9537 -0.7069  0.0964
33748SOL     OW13221   6.683   8.602   4.087 -0.1493 -0.0304  0.4463
33748SOL    HW113222   6.752   8.663   4.114 -0.2381  0.5695 -0.6182
33748SOL    HW213223   6.666   8.548   4.164  1.2746  0.0333  0.8205
33749SOL     OW13224   4.251   9.987   7.876  0.3947  0.6126  0.5874
33749SOL    HW113225   4.275  10.039   7.953 -1.1873  1.0509  0.8087
33749SOL    HW213226   4.248   9.897   7.908  1.3294  0.5840  0.6348
33750SOL     OW13227   5.771   4.085   2.543  0.0689 -0.2194  0.3544
33750SOL    HW113228   5.745   4.172   2.573 -0.9327 -0.2671 -0.3558
33750SOL    HW213229   5.853   4.099   2.497 -0.5477  0.5028 -0.5551
33751SOL     OW13230   3.956  10.174   0.686 -0.4007 -0.1216  0.0900
33751SOL    HW113231   4.044  10.167   0.650  0.0400  1.8571  0.6498
33751SOL    HW213232   3.938  10.088   0.723 -0.2234 -1.7350 -3.2124
33752SOL     OW13233   1.563   3.172   1.446  0.1265  0.1449  0.2047
33752SOL    HW113234   1.517   3.099   1.487 -1.3050  0.6213 -0.4987
33752SOL    HW213235   1.517   3.250   1.476  1.7693  0.8029  1.1169
33753SOL     OW13236   8.533   0.255   3.872  0.5319  0.3396  0.6147
33753SOL    HW113237   8.573   0.261   3.786  0.1808 -1.1304  0.3105
33753SOL    HW213238   8.489   0.170   3.872 -2.6890  1.8541  0.8780
33754SOL     OW13239   0.587   5.104   3.552  0.5974  0.0778 -0.3380
33754SOL    HW113240   0.525   5.102   3.480  0.4080 -0.4825 -0.1707
33754SOL    HW213241   0.640   5.025   3.541  1.2177  0.4948 -0.4192
33755SOL     OW13242   3.629   6.472   2.803 -0.6269  0.4662 -0.7634
33755SOL    HW113243   3.625   6.493   2.709  1.2398 -1.6521 -1.3840
33755SOL    HW213244   3.709   6.514   2.834  0.8817 -1.9893 -1.0816
33756SOL     OW13245   2.371   5.459   1.675 -0.5362 -0.3482 -0.3203
33756SOL    HW113246   2.376   5.399   1.750 -0.2902  0.1936  0.1052
33756SOL    HW213247   2.423   5.416   1.607  0.5158 -0.1400  0.3282
33757SOL     OW13248   0.858  10.161   1.732 -0.0995 -0.0923 -0.0148
33757SOL    HW113249   0.876  10.144   1.824 -0.0197  1.0756  0.2013
33757SOL    HW213250   0.779  10.215   1.732  0.9276  1.5045 -0.4887
33758SOL     OW13251   5.459   6.343   5.591  0.0733  0.4316  0.3929
33758SOL    HW113252   5.516   6.415   5.617  0.4687 -0.3027  1.6260
33758SOL    HW213253   5.379   6.386   5.561  1.5040  1.5407 -2.2141
33759SOL     OW13254   2.997   8.793   4.161 -0.0653 -0.1460  0.1702
33759SOL    HW113255   3.041   8.767   4.242  1.3497  2.1893  0.2657
33759SOL    HW213256   2.938   8.864   4.187 -1.6201 -1.1592 -0.4638
33760SOL     OW13257   8.601   8.674   2.191  0.2129  0.2618  0.4540
33760SOL    HW113258   8.542   8.716   2.255 -0.2614  0.4061 -0.0724
33760SOL    HW213259   8.677   8.732   2.187  0.1266  0.3947  0.6872
33761SOL     OW13260   9.727   6.673   7.237 -0.5035 -0.2756 -0.2117
33761SOL    HW113261   9.776   6.593   7.256  0.5985  0.4622  0.1350
33761SOL    HW213262   9.637   6.643   7.223  0.0935 -1.7048 -1.2101
33762SOL     OW13263   9.633   7.047   6.917  0.3937 -0.2006  0.1064
33762SOL    HW113264   9.721   7.025   6.886 -0.2893 -1.7243 -0.8285
33762SOL    HW213265   9.583   6.966   6.910 -1.3518  0.8563 -0.2730
33763SOL     OW13266   0.260   7.189   9.355  0.2219  0.1604 -0.5085
33763SOL    HW113267   0.193   7.198   9.288  0.1237  0.1396 -0.4143
33763SOL    HW213268   0.343   7.203   9.309  0.2506 -1.2423 -0.9080
33764SOL     OW13269   6.488   9.549   7.954 -0.1516  0.6098  0.0313
33764SOL    HW113270   6.425   9.500   8.007 -1.2259 -0.2156 -1.9369
33764SOL    HW213271   6.568   9.496   7.956 -0.5184  0.0566 -0.0637
33765SOL     OW13272   0.655   4.019   1.452 -0.5089  0.4198  0.2176
33765SOL    HW113273   0.602   4.076   1.507 -3.6529 -1.6184 -0.4737
33765SOL    HW213274   0.693   3.956   1.514  0.3898  1.3269  0.6106
33766SOL     OW13275   6.100   6.566   8.035 -0.0497  0.4505  0.2701
33766SOL    HW113276   6.010   6.554   8.007  0.0285  1.3647 -0.4278
33766SOL    HW213277   6.143   6.608   7.960  1.1659 -0.7416  0.2717
33767SOL     OW13278   1.917  10.264   7.654  0.0141  0.0989 -0.0197
33767SOL    HW113279   1.881  10.176   7.644 -0.0434  0.2288 -0.9984
33767SOL    HW213280   2.012  10.253   7.645 -0.0042  0.1595 -0.2817
33768SOL     OW13281   5.691   0.329   0.425  0.1831  0.2986 -0.1555
33768SOL    HW113282   5.687   0.249   0.372  1.6964  1.2144 -1.7382
33768SOL    HW213283   5.614   0.379   0.397  0.2220  0.1770 -0.4930
33769SOL     OW13284   7.237   9.890  10.096 -0.2074 -0.4301 -0.4533
33769SOL    HW113285   7.208   9.910  10.185  0.7417 -0.6566 -0.0795
33769SOL    HW213286   7.252   9.976  10.057  3.5301 -0.2354  1.0387
33770SOL     OW13287   0.139   6.766   8.155  0.2795  0.4970  0.1757
33770SOL    HW113288   0.139   6.858   8.182 -0.3464  0.7568 -0.6801
33770SOL    HW213289   0.090   6.765   8.073  0.3928 -0.5853  0.1105
33771SOL     OW13290   6.085   9.050   1.356  0.1443 -0.4025 -0.0673
33771SOL    HW113291   6.026   8.998   1.410  1.2024 -1.5136  0.0469
33771SOL    HW213292   6.027   9.102   1.300 -0.9429 -1.8940 -0.3635
33772SOL     OW13293   7.502   7.062   3.858  0.3949 -0.2640  0.4190
33772SOL    HW113294   7.514   7.153   3.885  0.0740 -0.1815  0.2928
33772SOL    HW213295   7.408   7.054   3.843  0.3792 -0.7017  0.7300
33773SOL     OW13296   3.151   7.105   3.612 -0.0191  0.8990 -0.0477
33773SOL    HW113297   3.138   7.010   3.622 -0.6093  0.8680 -0.9791
33773SOL    HW213298   3.193   7.114   3.526  1.0611  1.4156  0.5089
33774SOL     OW13299   1.711   1.515   4.327  0.0570  0.3885  0.0301
33774SOL    HW113300   1.650   1.484   4.261  0.2008 -0.4915  0.3018
33774SOL    HW213301   1.788   1.543   4.277  0.2021 -0.3596 -0.1815
33775SOL     OW13302   7.471   9.031   9.243  0.1286 -0.2350  0.1139
33775SOL    HW113303   7.413   8.961   9.273  0.0438 -0.2149 -0.0035
33775SOL    HW213304   7.459   9.032   9.148 -0.8256  0.7919  0.2345
33776SOL     OW13305   9.312   7.904   3.249  0.6666  0.3946 -0.0335
33776SOL    HW113306   9.333   7.834   3.311 -2.7177 -0.1197  0.7436
33776SOL    HW213307   9.313   7.861   3.164  1.7571  0.2117  0.0552
33777SOL     OW13308   6.846   8.148   2.426  0.1400 -0.4498  0.2311
33777SOL    HW113309   6.852   8.179   2.335  1.5554 -0.5673  0.2724
33777SOL    HW213310   6.847   8.228   2.478  0.9153 -0.4348  0.2049
33778SOL     OW13311   5.254   1.888   4.200  0.2899  0.0094 -0.0245
33778SOL    HW113312   5.173   1.896   4.150  1.2027  0.1427 -1.5493
33778SOL    HW213313   5.258   1.968   4.252 -1.0493 -0.4744  0.8408
33779SOL     OW13314   8.627   5.540   8.288  0.2829  0.1812  0.1606
33779SOL    HW113315   8.535   5.527   8.264  0.3189 -1.3463  0.7375
33779SOL    HW213316   8.670   5.563   8.205 -0.5145  0.3600 -0.2152
33780SOL     OW13317   2.442   6.972   2.549  0.2803  0.4223  0.6528
33780SOL    HW113318   2.447   7.049   2.606 -2.7860  0.1120  1.4740
33780SOL    HW213319   2.461   6.898   2.606  2.7552  0.4231 -0.0391
33781SOL     OW13320  10.217   3.684   3.319  0.4327 -0.2459  0.4440
33781SOL    HW113321  10.297   3.651   3.360  0.4974 -0.3608  0.2240
33781SOL    HW213322  10.217   3.645   3.232  0.3491  0.0846  0.2954
33782SOL     OW13323   1.774   1.114   2.196 -0.4275  0.2217  0.6343
33782SOL    HW113324   1.794   1.156   2.280  0.1042  1.2342  0.0258
33782SOL    HW213325   1.853   1.127   2.144 -0.8547 -0.1445 -0.1187
33783SOL     OW13326   2.178   0.156   4.857 -0.0627 -0.1341 -0.1385
33783SOL    HW113327   2.196   0.112   4.774  2.1644 -0.2318  0.3225
33783SOL    HW213328   2.139   0.088   4.912  1.8013 -1.1574  0.0186
33784SOL     OW13329   0.244   0.995  10.003 -0.3375  0.1103  0.2536
33784SOL    HW113330   0.229   1.065   9.939 -0.7187  0.6232  0.8878
33784SOL    HW213331   0.320   1.025  10.053  0.6895 -0.8395 -0.6976
33785SOL     OW13332   0.068   2.211   8.678  0.2283 -0.7647 -0.8256
33785SOL    HW113333   0.110   2.289   8.716 -1.6377 -0.1275  0.0499
33785SOL    HW213334  -0.025   2.232   8.677 -0.1622 -2.3464 -2.1718
33786SOL     OW13335   6.925   6.076   9.297 -0.1866  0.3369 -0.2972
33786SOL    HW113336   6.895   6.110   9.381  0.7609  2.6234 -0.8292
33786SOL    HW213337   6.866   6.114   9.233 -0.1832 -0.4514 -0.7762
33787SOL     OW13338   0.387   3.319   2.714  0.3196 -0.1617 -0.3501
33787SOL    HW113339   0.332   3.396   2.701  1.5188  0.8636  0.4507
33787SOL    HW213340   0.391   3.278   2.628  1.1767  1.7331 -1.2704
33788SOL     OW13341   2.080   1.261   2.592 -0.2297 -0.2209 -0.4171
33788SOL    HW113342   2.048   1.325   2.655  0.7670 -1.5021  1.4825
33788SOL    HW213343   2.005   1.246   2.534 -1.7992 -0.2424  1.4898
33789SOL     OW13344   0.598   7.087   0.276  0.3786  0.4692  0.7804
33789SOL    HW113345   0.685   7.056   0.301  0.5563 -0.6412 -1.0330
33789SOL    HW213346   0.542   7.065   0.351  1.0288 -1.8628  0.6382
33790SOL     OW13347   9.532   0.861   0.193  0.1451  0.8564  0.3562
33790SOL    HW113348   9.510   0.917   0.119  0.7609  1.4314  0.5994
33790SOL    HW213349   9.453   0.809   0.208  0.8129 -1.1111 -2.2988
33791SOL     OW13350   8.061   9.187   7.193 -0.0268  1.0003 -0.0341
33791SOL    HW113351   8.137   9.224   7.147  0.8316 -1.2683 -0.5404
33791SOL    HW213352   7.993   9.253   7.183  1.3984  2.4123 -0.9287
33792SOL     OW13353   0.767   9.246   7.415 -0.2539 -0.2188  0.4621
33792SOL    HW113354   0.693   9.307   7.414  0.5391  0.7729  0.3940
33792SOL    HW213355   0.808   9.260   7.500 -0.0160 -0.6090  0.4112
33793SOL     OW13356   2.102   4.622   9.052  0.4519 -0.2810 -0.2151
33793SOL    HW113357   2.168   4.671   9.101  0.8958 -1.5417  0.4797
33793SOL    HW213358   2.145   4.601   8.969  0.9933 -1.2021  0.2822
33794SOL     OW13359   4.633   9.292   1.155  0.1069  0.4572  0.4877
33794SOL    HW113360   4.624   9.271   1.062 -0.6165  0.7431  0.4797
33794SOL    HW213361   4.692   9.226   1.190 -0.2055 -0.1036 -0.0262
33795SOL     OW13362   2.277   2.061   9.555 -0.2011 -1.0592  0.1275
33795SOL    HW113363   2.305   2.051   9.464 -3.5883  1.8792 -1.4836
33795SOL    HW213364   2.354   2.097   9.599  0.7282  0.2987 -2.3395
33796SOL     OW13365   1.777   9.295   0.541  0.4851 -0.0203  0.3896
33796SOL    HW113366   1.715   9.369   0.548 -1.9782 -1.9856  0.8922
33796SOL    HW213367   1.791   9.267   0.631 -0.2073 -1.3517  0.1047
33797SOL     OW13368   9.168   9.096   8.513  0.8055 -0.1040 -0.1661
33797SOL    HW113369   9.209   9.135   8.591 -0.3203 -1.3791  1.1261
33797SOL    HW213370   9.118   9.168   8.474  0.4287  0.2911  0.9965
33798SOL     OW13371   6.032   6.712   8.548 -0.3121  1.1272  0.1761
33798SOL    HW113372   5.966   6.674   8.606  0.3540  0.8948  0.7829
33798SOL    HW213373   6.010   6.677   8.462  0.5696 -1.0600  0.7803
33799SOL     OW13374   5.677   8.769   3.608  0.1327  0.7137  0.1899
33799SOL    HW113375   5.674   8.824   3.530  1.0302 -0.2995 -0.5880
33799SOL    HW213376   5.663   8.680   3.575  0.5068  0.2700  1.1867
33800SOL     OW13377   3.899   2.852   9.193 -0.2300 -0.0222  0.8056
33800SOL    HW113378   3.843   2.799   9.250  0.5882 -0.8361  0.8697
33800SOL    HW213379   3.901   2.805   9.110 -1.0887  0.9505  0.2059
33801SOL     OW13380   2.324   3.608   8.601  0.0762 -0.0278 -0.0018
33801SOL    HW113381   2.413   3.589   8.632  0.5272  0.7546 -0.7697
33801SOL    HW213382   2.313   3.549   8.526 -0.0097 -0.0456  0.0253
33802SOL     OW13383   5.433   0.380   6.305  0.5997 -0.0407 -0.5446
33802SOL    HW113384   5.465   0.386   6.215 -3.0416 -1.0167 -2.0574
33802SOL    HW213385   5.341   0.357   6.297  0.7240 -3.0213  3.4975
33803SOL     OW13386   2.791   2.892   2.389 -0.3138 -0.2739  0.1526
33803SOL    HW113387   2.719   2.833   2.412 -0.0049 -0.3552  0.9437
33803SOL    HW213388   2.764   2.977   2.424 -0.0315 -0.3029  0.4443
33804SOL     OW13389   8.956   8.819   3.875 -0.4914 -0.0918 -0.0888
33804SOL    HW113390   9.040   8.777   3.863 -0.3212  0.1686  0.1734
33804SOL    HW213391   8.907   8.800   3.794  0.5818  1.5322 -1.1929
33805SOL     OW13392   5.078   1.462   2.796  0.0836 -0.1450  0.7187
33805SOL    HW113393   5.003   1.492   2.745  0.6322  0.3985  0.2175
33805SOL    HW213394   5.099   1.535   2.854  0.7492  0.0413  0.2560
33806SOL     OW13395   7.386   0.633   4.892  0.5294  0.3579 -0.5481
33806SOL    HW113396   7.391   0.652   4.798 -0.6366 -0.4486 -0.7905
33806SOL    HW213397   7.330   0.556   4.898  0.4515  0.4966  0.8299
33807SOL     OW13398   9.539   7.013   2.950  0.3496  0.3746  0.1494
33807SOL    HW113399   9.631   7.027   2.971  0.0519  0.6751  1.3227
33807SOL    HW213400   9.495   7.091   2.984 -0.3245  0.2958 -0.5228
33808SOL     OW13401   4.056   5.876   8.388 -0.0114  0.1907  0.3544
33808SOL    HW113402   4.016   5.934   8.324 -0.6602  0.1078  0.6747
33808SOL    HW213403   3.982   5.829   8.427  0.4559 -0.4263  0.5100
33809SOL     OW13404   6.671   8.516   4.747 -0.2626  0.1448 -0.7974
33809SOL    HW113405   6.753   8.489   4.707  0.0988  0.1869 -0.0975
33809SOL    HW213406   6.603   8.484   4.687  0.2747  0.5200 -1.6179
33810SOL     OW13407   7.145   3.933   1.597  0.5397  0.7751 -0.1556
33810SOL    HW113408   7.190   3.898   1.520  1.1785 -2.7225  1.5916
33810SOL    HW213409   7.215   3.959   1.656  0.2631 -1.2385  1.1320
33811SOL     OW13410   9.193   3.223   6.860  0.0252  0.2159  0.0082
33811SOL    HW113411   9.174   3.182   6.775  0.3705 -0.2195  0.1396
33811SOL    HW213412   9.166   3.157   6.924  3.6106 -1.2528  0.2275
33812SOL     OW13413   7.022   5.227   4.787  0.1829 -0.2590 -0.0809
33812SOL    HW113414   7.048   5.202   4.698 -0.9568 -2.0849  0.0668
33812SOL    HW213415   6.982   5.314   4.777  0.4200 -0.2794 -1.2870
33813SOL     OW13416   5.460   1.132   7.264 -0.8346  1.2501  0.3611
33813SOL    HW113417   5.525   1.189   7.222 -0.3518  0.6139  0.2343
33813SOL    HW213418   5.469   1.048   7.219 -0.4538  0.6089  1.5990
33814SOL     OW13419  10.071   5.470   2.207  0.0005 -0.0540 -0.0392
33814SOL    HW113420  10.144   5.450   2.148 -0.9549 -1.2086 -0.8837
33814SOL    HW213421  10.109   5.466   2.295  1.1080  0.1243 -0.4991
33815SOL     OW13422   5.991   0.007   7.417 -0.5462  0.6396  0.3504
33815SOL    HW113423   5.936  -0.039   7.480  0.0768  0.4226  0.7353
33815SOL    HW213424   6.030  -0.062   7.363 -0.5944  0.7910  0.1176
33816SOL     OW13425   0.482   1.907   4.094  0.2399 -0.8807 -0.3383
33816SOL    HW113426   0.481   1.997   4.062  0.9809 -0.0827  1.6681
33816SOL    HW213427   0.402   1.868   4.059 -1.7103  1.4804  1.0802
33817SOL     OW13428   0.944   6.035   5.807 -0.6888  0.4912  0.1402
33817SOL    HW113429   1.018   6.058   5.863 -1.1509  2.0022  0.1813
33817SOL    HW213430   0.955   6.089   5.729  0.9536 -2.8703 -2.1949
33818SOL     OW13431   5.846   1.004   3.741 -0.1471 -0.6682  0.0110
33818SOL    HW113432   5.904   1.033   3.670  3.4016 -2.3506  1.9228
33818SOL    HW213433   5.840   0.909   3.730 -0.7385 -0.7786  1.1270
33819SOL     OW13434   1.654   9.378   4.060 -0.1448 -0.1327 -0.1039
33819SOL    HW113435   1.639   9.334   4.143 -2.0210  0.6168  0.0115
33819SOL    HW213436   1.717   9.447   4.080  0.0276 -0.4672  0.5148
33820SOL     OW13437   6.730   8.695   1.861  0.2252  0.0122  0.0210
33820SOL    HW113438   6.769   8.778   1.835 -0.7510  0.2010 -0.8773
33820SOL    HW213439   6.671   8.717   1.934 -0.8207  0.2963 -0.8861
33821SOL     OW13440   1.609   7.373   0.411  0.4636  0.6231 -0.2242
33821SOL    HW113441   1.636   7.286   0.442  0.1144  0.8672  0.8145
33821SOL    HW213442   1.660   7.434   0.464 -1.1878  1.0792  0.9232
33822SOL     OW13443   4.154   8.796   6.294  0.2807  0.9069 -0.1004
33822SOL    HW113444   4.186   8.794   6.204  1.5566  0.1006  0.3429
33822SOL    HW213445   4.230   8.772   6.347 -0.6122  0.7253  1.1430
33823SOL     OW13446   7.619   0.209   2.742 -0.6688  0.4185 -0.0338
33823SOL    HW113447   7.686   0.203   2.811 -0.2139  0.8343 -0.4266
33823SOL    HW213448   7.651   0.152   2.673  0.7606  2.6845 -1.3950
33824SOL     OW13449   3.702   5.457   7.243  0.6755 -0.0050  0.2449
33824SOL    HW113450   3.750   5.498   7.171 -0.0505  0.2847 -0.0816
33824SOL    HW213451   3.769   5.439   7.309  1.1202  1.0174  0.0865
33825SOL     OW13452   4.073  10.335   0.885 -0.3720  0.1082 -0.0073
33825SOL    HW113453   4.166  10.317   0.875 -0.4541 -0.3871  0.0608
33825SOL    HW213454   4.031  10.278   0.821 -0.6823 -0.4470  0.6621
33826SOL     OW13455   4.765   4.063   8.944  0.5702  0.1692 -0.3878
33826SOL    HW113456   4.681   4.026   8.918  0.1354  1.0693 -0.3132
33826SOL    HW213457   4.830   4.002   8.910 -0.0820 -0.1144 -1.1554
33827SOL     OW13458   3.842   3.524   8.517  0.6363 -0.5385 -0.3026
33827SOL    HW113459   3.842   3.604   8.466  1.1678  0.4713  1.2135
33827SOL    HW213460   3.893   3.544   8.595 -0.8562 -1.7119  1.0677
33828SOL     OW13461   8.702   7.668   0.923  0.3566 -0.3237 -0.2890
33828SOL    HW113462   8.679   7.709   0.839  0.2606  0.8003  0.2709
33828SOL    HW213463   8.661   7.724   0.989  2.0440 -0.0757  0.5992
33829SOL     OW13464   2.030   3.713   7.003  0.3910 -0.4802 -0.5658
33829SOL    HW113465   1.968   3.785   6.992 -0.3889 -1.2613 -1.5445
33829SOL    HW213466   1.995   3.664   7.078  1.4636  0.6584  0.7255
33830SOL     OW13467   3.268   3.543   9.556  0.3968 -0.2100  0.2580
33830SOL    HW113468   3.351   3.585   9.580 -0.1228 -0.4406  2.7330
33830SOL    HW213469   3.203   3.613   9.562 -0.3629 -1.0266  3.7387
33831SOL     OW13470   5.053   7.522   1.597 -0.8080  0.5943 -0.0283
33831SOL    HW113471   4.990   7.505   1.527  1.1858 -0.7080 -1.6383
33831SOL    HW213472   5.097   7.602   1.570 -1.4880  1.3194  0.9262
33832SOL     OW13473   0.420   9.401   6.982 -0.0270 -0.1309  1.0337
33832SOL    HW113474   0.387   9.439   7.063  0.6260  0.9845  0.7959
33832SOL    HW213475   0.362   9.436   6.914 -0.1674 -0.5400  0.9395
33833SOL     OW13476   2.827   8.109   3.952 -0.3092  0.0805  0.1023
33833SOL    HW113477   2.906   8.071   3.990 -0.5030  1.2475  1.7859
33833SOL    HW213478   2.773   8.034   3.928  0.4473 -0.7114  0.7997
33834SOL     OW13479   9.477   9.684   6.077  0.0971 -0.1690 -0.6163
33834SOL    HW113480   9.473   9.703   6.171 -1.1010 -3.1833  0.0622
33834SOL    HW213481   9.387   9.661   6.053  0.1168  1.7571 -2.8645
33835SOL     OW13482   1.612   8.820   0.695  0.6796  0.0321 -0.3669
33835SOL    HW113483   1.580   8.906   0.722 -2.5703 -0.7057 -1.3596
33835SOL    HW213484   1.643   8.834   0.606 -1.4618 -0.0207 -1.1985
33836SOL     OW13485   0.552   0.797   8.395  0.3191 -0.2148 -0.0840
33836SOL    HW113486   0.471   0.832   8.359  1.2836  1.9126 -0.3820
33836SOL    HW213487   0.601   0.766   8.319 -0.5066 -2.2890  0.1743
33837SOL     OW13488   8.750   1.737  10.364 -0.3208  0.2276  0.8186
33837SOL    HW113489   8.782   1.805  10.424  0.3540  0.8702 -0.2369
33837SOL    HW213490   8.736   1.783  10.282 -0.8279 -0.7292  0.3519
33838SOL     OW13491   3.305   2.692   0.593 -0.1560 -0.4663 -0.0287
33838SOL    HW113492   3.388   2.737   0.577  0.2038 -1.6932 -1.9023
33838SOL    HW213493   3.241   2.763   0.600  1.0663  0.5292  1.9702
33839SOL     OW13494   1.262   6.782   9.704  0.3130 -0.2575 -0.1443
33839SOL    HW113495   1.299   6.761   9.789  0.7254 -0.0264 -0.2601
33839SOL    HW213496   1.170   6.805   9.722  0.5401  0.3158  0.3114
33840SOL     OW13497   6.858   8.992   2.195 -0.2621 -0.3794 -0.9457
33840SOL    HW113498   6.904   9.067   2.235 -2.0810  1.4764 -2.1376
33840SOL    HW213499   6.927   8.927   2.183  1.7221  1.5849 -1.0369
33841SOL     OW13500   8.066   5.017   0.655  0.3818  0.0726 -0.3966
33841SOL    HW113501   8.033   4.939   0.698  1.7798 -0.3000  0.0420
33841SOL    HW213502   7.997   5.083   0.668 -0.0028 -0.5530  0.8299
33842NA      NA13503  10.213   9.455   7.929  0.1735 -0.0012 -0.1152
33843NA      NA13504   7.742   9.466   1.017  0.7861  0.0352  0.2062
33844NA      NA13505   5.775   1.272  10.033  0.0802 -0.2417  0.3000
33845NA      NA13506   2.408  10.371   9.040  0.4573 -0.2496 -0.3441
33846NA      NA13507   2.495   7.824   8.847  0.7033  0.2076  0.0180
33847NA      NA13508   3.249   0.615   5.610  0.5392 -0.1847  0.2450
33848NA      NA13509   0.152   5.768   7.575 -0.2705  0.0200  0.3220
33849NA      NA13510   5.447   8.188   1.336 -0.0214 -0.1559 -0.0877
33850NA      NA13511   9.918   7.500   3.332 -0.0904 -0.2631 -0.4568
33851NA      NA13512   9.848   9.304   2.355 -0.2429  0.2994 -0.2503
33852NA      NA13513   4.949   5.823   8.096 -0.5273 -0.2470 -0.2485
33853NA      NA13514   1.681   6.300   4.722 -0.1836  0.4281  0.3343
33854NA      NA13515   3.586   5.373   6.335  0.2639 -0.4646 -0.6773
33855NA      NA13516   0.742   9.676   6.915  0.3122  0.3029 -0.4245
33856NA      NA13517   7.233   0.014   8.122 -0.4638  0.1300 -0.2527
33857NA      NA13518   3.403   9.683   0.834 -0.1318 -0.3310  0.3780
33858NA      NA13519   4.522   4.043   6.927 -0.4802 -0.0797  0.4499
33859NA      NA13520   7.331   6.030   6.847  0.2766  0.5603 -0.2593
33860NA      NA13521   7.361   9.055   4.143 -0.0145 -0.2145  0.5597
33861NA      NA13522   1.796   6.068   9.239 -0.2454 -0.1782 -0.1825
33862NA      NA13523   7.035   1.916   8.722 -0.7203  0.0312  0.1128
33863NA      NA13524   0.075   0.348   5.183 -0.0994  0.0182  0.1105
33864NA      NA13525   0.191   8.734   3.515  0.0647 -0.0814 -0.2474
33865NA      NA13526   0.302   8.912   4.940  0.4383  0.0545  0.9552
33866NA      NA13527   1.050   5.473   7.508 -0.0885  0.1947 -0.1431
33867NA      NA13528   1.878   9.704   9.870  0.4296  0.1323  0.0452
33868NA      NA13529   4.023   1.905   6.043  0.0513 -0.1517  0.5770
33869NA      NA13530   9.452   7.259   9.822 -0.4399 -0.2254 -0.1939
33870NA      NA13531   6.046   0.905   7.699 -0.4958  0.0772 -0.2563
33871NA      NA13532   6.237   0.937   5.582  0.4728 -0.3176  0.0659
33872NA      NA13533   9.286   3.406   6.892  0.4326 -0.2062 -0.8335
33873NA      NA13534   6.767   6.591   1.355 -0.1240  0.1899  0.1733
33874NA      NA13535   2.726   8.528   3.684 -0.1992  0.7871 -0.0812
33875NA      NA13536   0.671   3.144   0.168 -0.0427 -0.0360  0.0322
33876NA      NA13537   5.882   8.309   8.921  0.1637 -0.2800 -0.2099
33877NA      NA13538   8.980   9.430   5.806 -0.1502 -0.4753 -0.6039
33878NA      NA13539   6.011   0.188   4.995  0.3494 -0.3751 -0.1306
33879NA      NA13540   8.278   8.566   6.280 -0.5170  0.2256 -0.0553
33880NA      NA13541   2.871   1.152   7.854 -0.0824 -0.0019  0.3209
33881NA      NA13542   5.153   6.915   6.813 -0.5476  0.0568  0.2035
33882NA      NA13543   3.928   6.433   8.698  0.2370 -0.1508 -0.0726
33883NA      NA13544   9.589   0.017  10.022  0.3287  0.4760  0.1627
33884NA      NA13545   2.807   9.131   5.107 -0.3123 -0.0339 -0.2201
33885NA      NA13546   8.486   0.699   9.949 -0.5445 -0.1877 -0.0222
33886NA      NA13547   2.376   7.866   7.865 -0.2687 -0.3164  0.1121
33887NA      NA13548   0.450   6.254   5.633 -0.0719  0.0936 -0.3550
33888NA      NA13549   2.428   8.725   0.401  0.0569  0.5715  0.5328
33889NA      NA13550   3.032   9.020   3.038 -0.0012  0.0703  0.4955
33890NA      NA13551   1.318   4.943   7.765  0.0933 -0.0150 -0.4900
33891NA      NA13552  10.114   7.322   7.964  0.5160 -0.4336 -0.2718
33892NA      NA13553   7.362   0.574   9.342 -0.3838  0.1560 -0.3311
33893NA      NA13554   1.811   4.295   4.777 -0.0992  0.5748  0.4590
33894NA      NA13555   2.192   8.632   8.657  0.0209  0.1350  0.2313
33895NA      NA13556   6.489  10.114   1.894  0.2019 -0.4130 -0.2108
33896NA      NA13557   3.498   0.220   4.874 -0.2584  0.0236  0.0011
33897NA      NA13558   9.636   4.276   7.532  0.2702  0.3671 -0.0988
33898NA      NA13559  10.012   1.743   7.051  0.0024 -0.1732  0.2744
33899NA      NA13560   2.269   1.726   8.688  0.1018 -1.0623 -0.2432
33900NA      NA13561   1.353   0.374   3.702 -0.6145 -0.1471  0.5691
33901NA      NA13562   7.618   0.487   0.209 -0.7038  0.0667 -0.0996
33902NA      NA13563   9.420   8.987   9.662  0.0547  0.5186 -0.1548
33903NA      NA13564   0.157  10.099   0.925  0.0662 -0.3543  0.4738
33904NA      NA13565   2.625   6.075   8.086 -0.4880  0.0278 -0.0850
33905NA      NA13566   9.078   0.242   5.401 -0.6959 -0.4360  0.0255
33906NA      NA13567   2.160   8.682   9.397  0.2778 -0.0924  0.1684
33907NA      NA13568   4.310   1.407   7.867  0.4725  0.5877  0.4563
33908NA      NA13569   9.740   9.479   1.527 -0.2946 -0.1742 -0.0643
33909NA      NA13570   4.724   0.024   0.450 -0.1038 -0.3970  0.1382
33910NA      NA13571   6.829   9.906   3.633 -0.6045  0.0103 -0.2460
33911NA      NA13572   5.205   8.952   0.112 -0.2085  0.1723  0.2691
33912NA      NA13573   2.331   1.452   9.197  0.0768 -0.0641  0.2983
33913NA      NA13574   6.741   2.800   8.084 -0.2828 -0.2885 -0.3819
33914NA      NA13575   3.169   0.857   1.940  0.9925 -0.6477 -0.0026
33915NA      NA13576   2.478   2.656   8.221  0.3065  0.0253 -0.7207
33916NA      NA13577   3.742   8.888   1.556  0.1076  0.2752 -0.0278
33917NA      NA13578   2.075   7.997   3.644  0.0997 -0.5300  0.2838
33918NA      NA13579   6.204   7.961   7.480  0.4023  0.3074 -0.2856
33919NA      NA13580   4.941   0.799   6.658  0.1872  0.1712 -0.3367
33920NA      NA13581   3.566   2.745   6.219  0.4437 -0.0853 -0.1412
33921NA      NA13582   2.227   5.168   7.433 -0.0028  0.7336  0.5209
33922NA      NA13583   1.080   2.897   6.889  0.7227 -0.0672 -0.1285
33923NA      NA13584   0.606   5.410   6.663 -0.5264  0.2076  0.0616
33924NA      NA13585   8.326   9.361   9.000  0.2619 -0.2272  0.3394
33925NA      NA13586   3.613   4.856   7.612  0.1661 -0.1402 -0.0785
33926NA      NA13587  10.361   7.576   7.034 -0.0226  0.0774  0.3929
33927NA      NA13588   7.416   8.313   3.221 -0.0844 -0.0615 -0.2624
33928NA      NA13589   2.767   8.255   1.850 -0.3820  0.3378 -0.0905
33929NA      NA13590   9.918   6.794   5.564 -0.2372  0.1820  0.1439
33930NA      NA13591   6.592   1.139   1.308 -0.1130 -0.2029  0.1122
33931NA      NA13592   3.253   4.597   8.123  0.0677 -0.7708 -0.2098
33932NA      NA13593   2.001   1.587   4.869 -0.1991 -0.0193  0.1381
33933NA      NA13594   4.524   9.309   5.479  0.0017  0.1915  0.0982
33934NA      NA13595   7.241   1.897   5.803  0.2936 -0.4626  0.2806
33935NA      NA13596   0.006   4.783   9.579  0.2671 -0.5016  0.0711
33936NA      NA13597   0.499   1.629   7.709 -0.1829  0.0443 -0.2479
33937NA      NA13598   1.767   5.283   6.557 -0.4019 -0.0985 -0.1588
33938NA      NA13599   0.159   1.156   7.222 -0.1489  0.3015  0.2143
33939NA      NA13600   9.577   4.749   6.245  0.2793  0.1014  0.5689
33940NA      NA13601   6.850   8.852   5.955 -0.0532 -0.0589  0.5659
33941NA      NA13602   8.031   1.364   6.394 -0.5643 -0.0765 -0.0374
33942NA      NA13603   2.283   0.898   0.250  0.3668  0.5859 -0.3172
33943NA      NA13604   1.117   1.089   7.841  0.0014 -0.3755 -0.2020
33944NA      NA13605  10.003   7.169   1.942 -0.4982  0.1386 -0.7942
33945CL      CL13606   9.681   1.745   6.364  0.1438  0.1909  0.1463
33946CL      CL13607   1.413   9.619   9.757 -0.1336 -0.7270  0.0053
33947CL      CL13608   3.980   7.289   3.900  0.0368 -0.4034  0.0511
33948CL      CL13609   6.282   9.113   4.999 -0.0142  0.1097  0.0977
33949CL      CL13610   3.493   9.458   0.783  0.4480  0.0504  0.2390
33950CL      CL13611   6.618   4.648   2.777 -0.4144  0.1377 -0.2518
33951CL      CL13612   5.654   4.342   2.669 -0.1903 -0.0002 -0.0805
33952CL      CL13613   4.729   4.035   0.024  0.0282 -0.0636  0.0695
33953CL      CL13614   7.129   7.554  10.341  0.3947 -0.0099  0.1576
33954CL      CL13615   5.267   5.263   5.240 -0.4627  0.1815  0.4118
33955CL      CL13616   8.950   5.989   4.464 -0.4091 -0.2010 -0.0241
33956CL      CL13617   7.500   3.729   1.779  0.4366 -0.2046 -0.0913
33957CL      CL13618   3.928   3.863   0.463  0.0617  0.8290 -0.1702
33958CL      CL13619   1.664   9.605   5.621  0.0613  0.0715 -0.2789
33959CL      CL13620   7.421   4.987   1.535  0.4620  0.1053 -0.2273
33960CL      CL13621   9.320   4.384   4.243 -0.6202  0.4192 -0.4204
33961CL      CL13622   5.743   3.582   0.688 -0.2508  0.3998 -0.2509
33962CL      CL13623   9.759   9.594   1.032 -0.1346  0.0500 -0.1961
33963CL      CL13624   5.097   9.773   7.770  0.0691  0.0631  0.2120
33964CL      CL13625   2.573   0.353   3.707  0.3558 -0.1123 -0.1677
33965CL      CL13626   5.396   2.388   3.449  0.1367  0.0781  0.2871
33966CL      CL13627   8.009   7.626   0.585  0.4076  0.2558 -0.2399
33967CL      CL13628   9.847   6.311   6.627  0.1467 -0.2458  0.3157
33968CL      CL13629   3.481   2.566   1.552 -0.2126  0.3449  0.0392
33969CL      CL13630   2.893   5.519   2.224  0.1167  0.2476  0.3092
33970CL      CL13631   8.367   4.105   0.876  0.3275 -0.1714 -0.2624
33971CL      CL13632   5.248   0.878   2.060 -0.0541 -0.3082 -0.0846
33972CL      CL13633   3.108   1.876   3.293  0.2284 -0.3561  0.0713
33973CL      CL13634   5.746   2.766   2.820  0.0528 -0.2692  0.1910
33974CL      CL13635   2.320   1.908   9.908 -0.1919 -0.1432 -0.1313
33975CL      CL13636   6.175   6.547   1.701 -0.2763  0.0171  0.1106
33976CL      CL13637   6.042   3.396   4.131  0.0522  0.0863 -0.0276
33977CL      CL13638   3.086   7.174   9.250 -0.1696 -0.0166 -0.3553
33978CL      CL13639   6.406  10.288   1.743  0.1089  0.1047 -0.0178
33979CL      CL13640   3.767   4.380   3.803 -0.1660  0.1213  0.2822
33980CL      CL13641   5.332   5.338   9.595 -0.0329  0.0293 -0.5416
33981CL      CL13642   3.101   4.832   0.832  0.0036  0.0116  0.2513
33982CL      CL13643   7.223   7.351   4.765 -0.3486  0.0864 -0.2326
33983CL      CL13644   3.091   5.118   1.253  0.3962  0.3485 -0.2495
33984CL      CL13645   8.137   7.104   1.659 -0.2542  0.1837 -0.2000
33985CL      CL13646   1.792   5.159   4.056  0.0091  0.0677 -0.0684
33986CL      CL13647   9.798   5.209   0.889 -0.0776 -0.0616 -0.1144
33987CL      CL13648   8.020   0.570  10.318 -0.3209 -0.3583 -0.0169
33988CL      CL13649   7.015   1.261   3.670 -0.3468 -0.5828 -0.2758
33989CL      CL13650   3.284   2.285   1.120 -0.4424  0.1015  0.0212
33990CL      CL13651   2.829   8.477   1.926  0.1081 -0.0052  0.0717
33991CL      CL13652   1.978   6.198   8.821  0.0661 -0.1513  0.1108
33992CL      CL13653   4.801   2.717   0.122  0.0750 -0.0631  0.0791
33993CL      CL13654   5.502   8.174   1.092  0.0529  0.0210 -0.0986
33994CL      CL13655   1.749   5.671   6.283 -0.0604  0.1859  0.0402
33995CL      CL13656   6.740   6.825   6.631  0.1617  0.1697 -0.0699
33996CL      CL13657   3.450   3.640   5.207  0.0401  0.0817 -0.4274
33997CL      CL13658   2.526   1.186   8.290  0.3185 -0.6341  0.0280
33998CL      CL13659   6.187   2.088   1.016  0.1829  0.3052  0.5304
33999CL      CL13660  10.062   0.752   7.547  0.0683  0.0113 -0.3618
34000CL      CL13661  10.311   6.955   0.895 -0.0066  0.1061  0.4022
34001CL      CL13662   2.766   7.500   8.514  0.7721  0.1516 -0.3635
34002CL      CL13663   6.641   5.934   0.449  0.2141 -0.1683  0.0028
34003CL      CL13664   5.172   6.426   0.352 -0.0613  0.3422  0.2946
34004CL      CL13665   7.573   4.289   1.151  0.2285  0.0565 -0.1754
34005CL      CL13666   8.948   3.128   3.356 -0.2203  0.0552  0.3258
34006CL      CL13667   5.937   3.920   1.080 -0.3457  0.0919 -0.1525
34007CL      CL13668   6.416   0.815   8.945  0.0384  0.2965  0.2261
34008CL      CL13669   4.779   8.270   4.694  0.1274  0.0581  0.5464
34009CL      CL13670   3.222   3.939   1.833 -0.0415 -0.3042  0.3290
34010CL      CL13671   4.022   5.533   2.529  0.0906 -0.0535  0.4948
34011CL      CL13672   3.577   3.226   1.906  0.3845 -0.1259  0.2230
34012CL      CL13673   7.038   6.818   0.844  0.3348  0.0638  0.1238
34013CL      CL13674   3.223   7.394   8.273  0.2553  0.0721  0.0833
34014CL      CL13675   4.074   8.954   7.119 -0.3011  0.1564 -0.2336
34015CL      CL13676  10.391   3.453   8.483 -0.1741  0.4205  0.2988
34016CL      CL13677   6.899   7.463   5.235 -0.3368 -0.2649  0.0871
34017CL      CL13678   2.616   3.944   1.123 -0.1754  0.1844 -0.0515
34018CL      CL13679   5.047   3.601   4.809 -0.1196 -0.4289 -0.0821
34019CL      CL13680   8.317   2.641  10.096  0.1447 -0.0238 -0.4536
34020CL      CL13681   6.034   0.381   3.051 -0.1632  0.0037  0.0696
34021CL      CL13682   4.039   2.231   4.185  0.4203 -0.1886  0.1123
34022CL      CL13683   8.019   2.966   1.518  0.1914  0.0095  0.1001
34023CL      CL13684   9.684   4.837   6.456  0.2026  0.0637 -0.0668
34024CL      CL13685   0.412   7.806   8.344 -0.0684 -0.3715 -0.1275
34025CL      CL13686   9.080   2.283   5.492 -0.3758  0.0453 -0.0589
34026CL      CL13687   5.973   1.174   3.504  0.3595 -0.2440 -0.0844
34027CL      CL13688   8.918   2.674   1.340 -0.2004  0.0235 -0.0904
34028CL      CL13689   5.817   2.927   4.312  0.1657  0.2551  0.3031
34029CL      CL13690   8.756   5.333   0.539 -0.7486 -0.2779  0.2836
34030CL      CL13691   6.539   5.183   3.958 -0.0520  0.1745 -0.2474
34031CL      CL13692   7.186   5.786   8.386  0.0271  0.2867 -0.3589
34032CL      CL13693   2.877   4.136   0.665  0.0124 -0.0362  0.0600
34033CL      CL13694   2.604   6.901   0.580 -0.1582  0.0501 -0.5845
34034CL      CL13695   4.513  10.092   9.544 -0.0513  0.1134 -0.1411
34035CL      CL13696   3.352   6.637   9.959  0.0454  0.1405 -0.2777
34036CL      CL13697   9.835   1.582   1.318  0.2308  0.2445  0.1207
34037CL      CL13698   3.462   4.891   2.168 -0.0955  0.2132 -0.3551
34038CL      CL13699   6.113   2.479   2.827  0.0493 -0.1518  0.0907
34039CL      CL13700   3.315   7.180   0.669 -0.3776 -0.4392 -0.4527
34040CL      CL13701   5.986   3.626   3.344 -0.0244 -0.4446 -0.3491
34041CL      CL13702   2.462   3.591   4.390  0.0752  0.0165 -0.2829
34042CL      CL13703   7.522   8.289   8.950  0.0062 -0.0472 -0.4743
34043CL      CL13704   7.650   6.043   1.687  0.1988  0.4447  0.0100
34044CL      CL13705   4.824   9.699   6.356 -0.3066 -0.0607 -0.0919
34045CL      CL13706   9.675   2.342   3.147  0.6319 -0.1968  0.0872
34046CL      CL13707   7.678   2.704   0.707 -0.3282  0.2025  0.0329
34047CL      CL13708   9.588   7.433   8.561 -0.2563 -0.0814  0.1191
34048CL      CL13709   1.923   6.281  10.126  0.0197 -0.1799 -0.1144
34049CL      CL13710   6.496   0.886   2.312 -0.0757 -0.1391 -0.0673
34050CL      CL13711   8.924   4.220   8.470  0.1730 -0.3395 -0.1993
34051CL      CL13712   0.341   7.516   7.974  0.0746  0.0304 -0.1713
34052CL      CL13713   9.907   0.276   0.437 -0.1988 -0.6791 -0.1700
34053CL      CL13714   6.201   5.278   3.173 -0.2709  0.2481 -0.6115
34054CL      CL13715   0.626   8.080   4.645  0.0308  0.2517 -0.0669
34055CL      CL13716   1.124   9.925   4.564 -0.1541 -0.0258 -0.1608
34056CL      CL13717   3.416   4.161   9.375 -0.2399 -0.2811  0.3736
34057CL      CL13718   1.248   7.885   6.051  0.1275  0.0487  0.2040
34058CL      CL13719   5.701   4.430   9.285  0.1502 -0.2490 -0.1478
34059CL      CL13720   6.172   3.294   1.917  0.0323  0.4535 -0.1772
34060CL      CL13721   6.421   3.084   5.671 -0.3772 -0.1494 -0.0424
34061CL      CL13722   2.017   6.259   7.634 -0.1687 -0.1455 -0.0035
34062CL      CL13723   4.955   3.927   4.420  0.2159  0.1603  0.0989
34063CL      CL13724   3.295   5.869   1.127 -0.3413  0.2635  0.4705
34064CL      CL13725   3.624   1.876   6.578  0.2110 -0.1745 -0.7717
34065CL      CL13726   7.010   5.947   4.776  0.0439 -0.0157 -0.0744
34066CL      CL13727   5.450   2.315   1.329 -0.6670 -0.1666 -0.1511
34067CL      CL13728   7.089   2.963   6.007  0.1978  0.2017  0.2479
34068CL      CL13729   3.498   2.553   9.890  0.4350 -0.1589 -0.0722
34069CL      CL13730  10.120   7.562   3.465  0.0093  0.2121  0.3564
34070CL      CL13731   0.763   1.346   7.341  0.0841  0.3971  0.1303
34071CL      CL13732   4.883   6.178   2.126 -0.0167  0.0763  0.1537
34072CL      CL13733   4.748   5.740   1.874 -0.3768 -0.0271 -0.2047
34073CL      CL13734   4.802   6.755   8.552  0.1856  0.1001  0.1193
34074CL      CL13735   7.866  10.269   3.718  0.0926  0.1423 -0.2067
34075CL      CL13736   6.499   3.722   0.062  0.5500 -0.1770 -0.0777
34076CL      CL13737   4.088   5.119   3.759  0.0344 -0.3582  0.1869
34077CL      CL13738   5.131   1.715   1.004  0.1581  0.1215 -0.0818
34078CL      CL13739   2.365   3.055   3.900  0.1324  0.2134  0.4040
34079CL      CL13740   4.854   1.593   2.591 -0.2229  0.0587 -0.1388
34080CL      CL13741   4.257   1.368   3.338  0.1627  0.1057 -0.4132
34081CL      CL13742  10.233   4.906   5.502 -0.1867 -0.0280 -0.2778
34082CL      CL13743   7.850   1.454   5.882  0.0732 -0.0868 -0.2408
34083CL      CL13744   5.583   7.636   2.058  0.5882 -0.0703 -0.0053
34084CL      CL13745   4.303   6.882   6.023 -0.3878  0.1803 -0.1721
34085CL      CL13746   6.947   3.168   3.015 -0.4953 -0.1462 -0.2869
34086CL      CL13747   0.916   9.035   1.516  0.0510 -0.0039  0.0132
34087CL      CL13748   1.490   2.741   2.116 -0.1931 -0.2247  0.1391
34088CL      CL13749   3.343   4.484   2.400 -0.1177 -0.1035 -0.2086
34089CL      CL13750   3.105   6.494   2.253 -0.3714 -0.2094  0.2873
34090CL      CL13751   5.223   4.516   5.177  0.2066 -0.0765  0.0268
34091CL      CL13752   4.254   4.718   7.002 -0.0360  0.1576  0.3196
34092CL      CL13753   7.873   2.126   4.777  0.2228 -0.0125 -0.0537
34093CL      CL13754   0.884   4.413   3.624 -0.1930 -0.2149 -0.1125
34094CL      CL13755   8.829   5.045   6.011 -0.3421  0.2958 -0.5207
34095CL      CL13756   7.276   4.743   4.000  0.0527  0.1383 -0.1790
34096CL      CL13757   5.201   5.290   1.066 -0.1368 -0.3042  0.3259
34097CL      CL13758   7.305   3.076   2.823 -0.2091  0.2090 -0.1374
34098CL      CL13759   6.839   6.144   1.111 -0.0803  0.0317 -0.1514
34099CL      CL13760   4.930   4.775   3.072  0.0909 -0.4952  0.2100
34100CL      CL13761   4.502   2.517   0.989 -0.1117  0.1783 -0.3537
34101CL      CL13762   4.093   6.174   0.834  0.4478 -0.4949  0.1541
34102CL      CL13763   9.585   5.155   7.692 -0.5451  0.0191  0.6701
34103CL      CL13764   6.056   4.497   8.013 -0.2945  0.2043  0.5362
34104CL      CL13765   8.418   4.635   2.593 -0.6306 -0.0397  0.1635
34105CL      CL13766   6.967   4.830  10.294  0.0193 -0.0325  0.2065
34106CL      CL13767   6.270   8.479   2.967  0.1202 -0.4274  0.2010
34107CL      CL13768   2.580   9.092   2.898  0.2875  0.4049  0.0287
34108CL      CL13769   1.045   2.614   9.313  0.2581 -0.1943 -0.3901
34109CL      CL13770   4.707   5.427   0.415  0.1650 -0.2317 -0.2348
34110CL      CL13771   8.473   1.557   2.548  0.4701  0.1839 -0.1032
34111CL      CL13772   1.274   0.175   3.032  0.2450 -0.3681  0.0999
34112CL      CL13773   6.814   4.901   4.265 -0.1956 -0.1807 -0.0831
34113CL      CL13774   7.968   1.026   7.959  0.5025  0.2129  0.3918
34114CL      CL13775   4.604   4.577   2.766 -0.1495  0.0885 -0.0743
34115CL      CL13776   6.728   3.277   3.877 -0.1604  0.0379  0.0371
34116CL      CL13777   9.614   9.713   2.499 -0.0238  0.6748  0.2644
34117CL      CL13778   1.898   6.543   2.006 -0.3385  0.2827  0.1497
34118CL      CL13779   2.304   6.864   8.319 -0.5212  0.0251 -0.3007
34119CL      CL13780   2.735   1.942   4.692  0.1094  0.1236 -0.4002
34120CL      CL13781   3.569   9.829   0.401  0.0514 -0.4814  0.0743
34121CL      CL13782   5.027   5.741   6.949 -0.0517  0.1203  0.1251
34122CL      CL13783   2.353   4.997   1.771  0.1348  0.3280 -0.0409
34123CL      CL13784   5.007   2.203   2.256  0.0610 -0.1227  0.0948
34124CL      CL13785   7.291   2.694   1.231 -0.2964  0.1932 -0.2504
34125CL      CL13786   2.685   5.481   2.948 -0.1308 -0.1812 -0.1271
34126CL      CL13787   3.624   4.392   9.750 -0.1911  0.1092 -0.2330
34127CL      CL13788   6.807   5.365   1.184  0.2331 -0.1127 -0.1490
34128CL      CL13789   2.665   8.771   0.039  0.0739 -0.0284  0.1673
34129CL      CL13790   9.854   5.802   9.048  0.1367 -0.3145  0.3186
34130CL      CL13791   4.288   8.196   1.188  0.0623 -0.4243 -0.3192
34131CL      CL13792   4.638   2.257   2.662 -0.0832 -0.3894  0.3538
34132CL      CL13793   7.600   5.254   2.277  0.0689 -0.1110  0.2075
34133CL      CL13794   6.325   5.891   0.110  0.2145 -0.2308  0.2124
34134CL      CL13795   4.166   6.431   7.099 -0.6026 -0.2829  0.0492
34135CL      CL13796   3.725   2.373   6.548  0.1787  0.0181 -0.0754
34136CL      CL13797   2.961   8.144   1.790 -0.1314 -0.2825 -0.0761
34137CL      CL13798   1.641   5.641   1.201 -0.0918  0.2427  0.2681
34138CL      CL13799   8.377   4.427   3.824 -0.2669  0.1699 -0.5048
34139CL      CL13800   1.589   7.944   3.797  0.0841 -0.2208  0.2640
34140CL      CL13801   5.399   5.608   4.438 -0.0707  0.0505  0.0044
34141CL      CL13802  10.309   0.240   3.429 -0.1319  0.3908 -0.0765
34142CL      CL13803   7.610   0.021   8.653  0.0609  0.0439  0.1584
34143CL      CL13804   7.580   4.866   0.456 -0.5143 -0.2169  0.0696
34144CL      CL13805   7.104   6.239   6.502 -0.2190 -0.1435  0.2105
34145CL      CL13806   3.037   7.383   3.216 -0.0675  0.0090 -0.2165
34146CL      CL13807   4.883   2.650   3.072 -0.2374 -0.1060  0.3707
34147CL      CL13808   3.433   5.218   2.741 -0.5316 -0.1021 -0.1324
34148CL      CL13809   7.988   4.354   3.635  0.1336 -0.2243  0.1707
34149CL      CL13810   4.636   4.807   1.557 -0.1671  0.4042 -0.4511
34150CL      CL13811   4.342   5.134   0.782 -0.2088  0.6559  0.2801
34151CL      CL13812   9.181   3.644   4.055  0.2708  0.3647  0.1601
34152CL      CL13813   6.715   2.320   0.794 -0.1463 -0.5701  0.0295
34153CL      CL13814   7.040   1.931   3.722  0.1113  0.2608 -0.4799
34154CL      CL13815   1.915   5.384   7.064 -0.2203  0.0111  0.1171
34155CL      CL13816   3.622   1.368   5.147  0.0471  0.1160  0.1390
34156CL      CL13817   4.463   3.393   9.898  0.0855  0.0301  0.1976
34157CL      CL13818   3.399   0.861   1.840  0.3614 -0.1052 -0.1769
34158CL      CL13819   5.083   4.185   1.369  0.5718 -0.2710  0.0109
34159CL      CL13820   0.717   1.768   7.678  0.4892  0.3672 -0.1989
34160CL      CL13821   7.853   0.779   0.746 -0.1093  0.0005 -0.2471
34161CL      CL13822   5.859   5.279   3.611  0.1667  0.3115  0.0933
34162CL      CL13823   7.191   1.568   1.448  0.0991  0.0709 -0.2107
34163CL      CL13824   0.212   8.802   0.720 -0.1634  0.3477 -0.0560
34164CL      CL13825   7.502   8.401   3.898  0.1755  0.1949 -0.0832
34165CL      CL13826   3.524   5.892   9.796 -0.2908 -0.3451 -0.1357
34166CL      CL13827   6.131   5.421   1.095 -0.1264  0.0278 -0.2344
34167CL      CL13828   8.527   9.052   7.001  0.2786  0.0693  0.4246
34168CL      CL13829  10.248   4.953   0.843  0.3104 -0.1676 -0.0431
34169CL      CL13830   3.155   1.440   0.933 -0.4821 -0.2054 -0.0157
34170CL      CL13831   2.586   4.087   0.001  0.3138  0.1026  0.3906
34171CL      CL13832   5.709   2.553   9.921 -0.1076 -0.6285 -0.1398
34172CL      CL13833   6.720   2.622   8.244 -0.1020 -0.1854  0.1253
34173CL      CL13834   9.672   9.295   1.937  0.0024  0.2659  0.0752
34174CL      CL13835   3.383   3.548   2.073  0.1526  0.0918 -0.0845
34175CL      CL13836   3.917   1.962   2.416  0.1173  0.4682 -0.2921
34176CL      CL13837   8.592   6.073   2.238  0.0400 -0.1868 -0.0340
34177CL      CL13838   8.647   0.736   6.978 -0.1295 -0.1051 -0.2686
34178CL      CL13839   8.170   4.162   1.309  0.2164 -0.3514  0.6337
34179CL      CL13840   6.473   4.656   8.917  0.0814 -0.0951 -0.0452
34180CL      CL13841   4.099   4.670   3.572  0.0106 -0.2231 -0.2949
34181CL      CL13842   6.831   4.240   0.192  0.2795  0.2447  0.2882
34182CL      CL13843   5.511   7.528   2.952 -0.1265  0.2789 -0.1595
34183CL      CL13844   2.631   5.504   6.540 -0.1067 -0.0355  0.1604
34184CL      CL13845   4.679   2.872   2.309 -0.0622 -0.0633  0.5882
34185CL      CL13846   5.981   1.342   5.408 -0.4812 -0.2865  0.2799
34186CL      CL13847   3.745   9.032   3.424 -0.6012  0.2442 -0.2106
34187CL      CL13848   6.474   7.444   0.370 -0.0906  0.2558 -0.2482
34188CL      CL13849  10.090   3.404   0.095 -0.1928  0.1930 -0.3112
34189CL      CL13850   7.024   0.306  10.091 -0.3203  0.6042  0.1842
34190CL      CL13851  10.107   1.577   7.706  0.2666  0.0335  0.0341
34191CL      CL13852   5.494   0.310   6.005 -0.0636  0.2550  0.2681
34192CL      CL13853   4.600   4.037   3.573 -0.2607  0.1906 -0.0312
34193CL      CL13854   7.342   4.676   1.913 -0.4798  0.4308 -0.6297
34194CL      CL13855   3.196   0.901   2.177  0.1203 -0.3640 -0.2733
34195CL      CL13856   4.720   9.576   0.529 -0.1217  0.2690 -0.0938
34196CL      CL13857   6.332   3.302   2.750  0.7817 -0.3024 -0.1869
34197CL      CL13858   5.325   4.760   0.152  0.1911  0.3828 -0.1262
34198CL      CL13859   4.949   1.390   0.672  0.3994  0.3939  0.1749
34199CL      CL13860   3.320   5.360   4.957 -0.1144  0.3576 -0.1713
34200CL      CL13861   1.631   3.631   2.696  0.2741 -0.0972  0.1554
34201CL      CL13862   6.504   7.262  10.000 -0.0811  0.0365  0.1532
34202CL      CL13863   0.423   2.852   9.060 -0.1252  0.3636 -0.2464
34203CL      CL13864   6.817   3.416   0.652 -0.1292 -0.0885 -0.7389
34204CL      CL13865   4.447   4.103   8.723 -0.0970  0.0695 -0.3060
34205CL      CL13866   5.301   5.833   1.165  0.3991 -0.0069  0.1138
34206CL      CL13867   5.527   2.604   5.675 -0.0539 -0.1675 -0.1829
34207CL      CL13868   7.057   0.123   6.000 -0.3010  0.0273  0.2074
34208CL      CL13869   3.469   0.099   5.085  0.0967  0.0006 -0.0493
34209CL      CL13870   3.505   4.298   7.593 -0.4036 -0.1495 -0.3400
34210CL      CL13871   7.337   5.739   3.468  0.3092  0.1142  0.0888
34211CL      CL13872   4.468   6.742   3.836  0.1525 -0.1904  0.1906
34212CL      CL13873   4.222   4.933   8.138 -0.3348  0.2145  0.4243
34213CL      CL13874   8.443   3.238   2.453  0.2438 -0.1954  0.4562
34214CL      CL13875   5.619   4.502  10.224 -0.0717  0.4722  0.1185
34215CL      CL13876   7.041   4.332   0.630  0.1295  0.2394  0.0531
34216CL      CL13877   3.793   1.867   3.044 -0.0467  0.1330  0.1394
34217CL      CL13878   5.473   6.108   3.099  0.2070  0.1688  0.2072
34218CL      CL13879   3.526   5.630   0.025  0.3892  0.0483  0.4032
34219CL      CL13880   7.192   3.499   3.878  0.0821  0.0615  0.0374
34220CL      CL13881   5.526   7.166   1.022 -0.1733 -0.2290  0.0639
34221CL      CL13882   3.473   6.560   1.051 -0.1713  0.1578 -0.2879
34222CL      CL13883   3.413   3.583   2.818 -0.1056 -0.1351  0.0410
34223CL      CL13884   8.077   2.728   0.440  0.1573 -0.1252 -0.1680
34224CL      CL13885   8.758   7.847   3.919 -0.0456  0.4418  0.0813
34225CL      CL13886   9.467   0.843   3.853  0.2098 -0.1110 -0.6045
34226CL      CL13887   7.088   0.021   2.394 -0.0479 -0.2421  0.3369
34227CL      CL13888   4.062   1.937   0.191  0.1078 -0.0213 -0.3869
34228CL      CL13889   7.501   4.576   0.029  0.1611  0.2093  0.1872
34229CL      CL13890   6.733   5.839   3.358  0.1268  0.0308  0.2516
34230CL      CL13891   5.902   6.510   3.549  0.0472  0.3201 -0.1227
34231CL      CL13892   5.700   3.809   6.982 -0.6114  0.4562 -0.0991
34232CL      CL13893   4.528   6.107   2.970 -0.1415 -0.5055  0.1702
34233CL      CL13894   7.101   7.152   1.745  0.1105 -0.2569  0.0325
34234CL      CL13895   3.009   6.972   4.872 -0.2256  0.1348 -0.3471
34235CL      CL13896   0.085   7.416   7.148  0.1873  0.3615 -0.1739
34236CL      CL13897   6.040   4.177   2.452 -0.0360 -0.1262 -0.3393
34237CL      CL13898   7.602   0.211   9.159  0.1018 -0.2590  0.0745
34238CL      CL13899   0.096   0.211   9.127 -0.3396  0.0384 -0.0980
34239CL      CL13900   3.376   2.932   4.319  0.0601 -0.5318  0.1073
34240CL      CL13901   4.478   5.399   2.553  0.0326  0.2578  0.0740
34241CL      CL13902   4.650   1.751   5.094  0.0417  0.0005 -0.3064
34242CL      CL13903   2.509   3.933   2.137  0.2917 -0.4719 -0.5081
34243CL      CL13904   6.006   4.844   1.830  0.1832 -0.1215  0.1908
34244CL      CL13905   5.311   4.128   4.175 -0.3496  0.3248 -0.2541
34245CL      CL13906   9.826   3.804   5.487 -0.1969  0.1750 -0.0664
34246CL      CL13907   0.303   5.317   7.735  0.3725 -0.0582 -0.2417
34247CL      CL13908   9.777   3.032   7.985 -0.1964 -0.1097  0.1190
34248CL      CL13909   5.657   7.352   6.343  0.5820  0.2260 -0.2610
34249CL      CL13910   6.491   6.499   3.120  0.3451  0.0883 -0.4175
34250CL      CL13911   7.122   0.720   2.930  0.2307  0.3938  0.2393
34251CL      CL13912  10.014   5.386   3.843 -0.0270  0.4542  0.2340
34252CL      CL13913   5.306   9.094   4.901 -0.4728 -0.0504 -0.2272
34253CL      CL13914   7.756   2.220   6.744  0.3264 -0.0720 -0.1396
34254CL      CL13915   3.187   6.676   7.374  0.3528 -0.3835 -0.2889
34255CL      CL13916   3.845   8.411  10.292  0.0791 -0.3417 -0.2403
34256CL      CL13917   4.972   4.515  10.012 -0.1599 -0.0940  0.2378
34257CL      CL13918   2.385   9.229   1.134 -0.4411 -0.1760  0.1586
34258CL      CL13919   4.643   6.863   9.847 -0.3822 -0.4382  0.2909
34259CL      CL13920   5.712   5.623   5.768  0.2013  0.1852 -0.2225
34260CL      CL13921   2.396   3.914   7.871 -0.0442 -0.2114 -0.0398
34261CL      CL13922   1.018   5.426  10.112  0.3490 -0.0612 -0.2220
34262CL      CL13923   3.569   5.236   1.399 -0.0139 -0.1060  0.1102
34263CL      CL13924   3.279   0.702   6.858 -0.0352 -0.3008 -0.1640
34264CL      CL13925   2.876   1.452   1.624 -0.3298  0.0885 -0.2163
34265CL      CL13926   5.866   3.835   0.325  0.0133 -0.1086 -0.0303
34266CL      CL13927   7.513   3.832   5.725  0.3881  0.1814 -0.0729
34267CL      CL13928   5.277   5.123   4.145  0.5117  0.1525  0.2862
34268CL      CL13929   1.015   4.875   2.213  0.3269 -0.5248  0.0371
34269CL      CL13930  10.229   0.765   6.638  0.1089 -0.1246 -0.4448
34270CL      CL13931   2.414   8.233   2.203 -0.5842  0.1885 -0.2647
34271CL      CL13932   6.077   6.413   1.045 -0.1341 -0.1265  0.0211
34272CL      CL13933   4.668   7.313   2.336  0.1823  0.1931  0.3533
34273CL      CL13934   4.345   6.700   1.968  0.1729 -0.6302  0.3550
34274CL      CL13935   2.355   7.034   3.564 -0.0877  0.0021 -0.1030
34275CL      CL13936   4.180   3.665   0.954 -0.0573  0.1588 -0.1075
34276CL      CL13937   4.805   9.559   4.872  0.1255  0.2115  0.2933
34277CL      CL13938   3.551   5.878   4.105  0.3747 -0.3981 -0.5247
34278CL      CL13939   1.692   3.805   4.545  0.4449  0.2387 -0.3244
34279CL      CL13940   9.460   2.573   1.929 -0.3229  0.0285  0.0404
34280CL      CL13941   2.659   1.650   7.552 -0.3049  0.2657  0.0623
34281CL      CL13942   4.643   6.979   0.718  0.1478  0.1630  0.1262
34282CL      CL13943   7.217   5.727   2.254  0.2402  0.0871 -0.3874
34283CL      CL13944   5.425   7.934   2.654 -0.3783 -0.3087 -0.0603
34284CL      CL13945   8.310   9.018   1.700  0.4332  0.3775 -0.3901
34285CL      CL13946   2.645   4.348   3.054  0.0846 -0.2190 -0.0526
34286CL      CL13947   5.303   2.395   2.995  0.2155 -0.4031 -0.1018
34287CL      CL13948   3.121   3.162   3.533 -0.1511 -0.6918 -0.0615
34288CL      CL13949   4.617   3.524   3.687 -0.2979 -0.0276 -0.1097
34289CL      CL13950   4.516   4.657   4.662  0.2771  0.0864  0.1015
34290CL      CL13951   5.826   3.024  10.351  0.2685 -0.2186 -0.0700
34291CL      CL13952   9.470   9.977   9.920 -0.0105  0.2562 -0.2557
34292CL      CL13953   8.545   5.946   1.583  0.0390 -0.0123  0.0897
34293CL      CL13954   2.464   5.794   2.245  0.0101  0.1661  0.6226
34294CL      CL13955   4.247   1.193   5.550 -0.2217  0.2980  0.2193
34295CL      CL13956   5.168   4.363   2.334  0.1115 -0.1412  0.3385
34296CL      CL13957   1.474   5.748   8.782 -0.3630  0.2126  0.4310
34297CL      CL13958   6.374   1.592   2.082  0.1451 -0.3177  0.4492
34298CL      CL13959   4.278   5.722   5.158  0.3761 -0.0654 -0.6753
34299CL      CL13960   1.002   1.690   1.246  0.0105 -0.2234 -0.4052
34300CL      CL13961   9.137   6.458   2.215  0.4677  0.0541  0.0989
34301CL      CL13962   8.665   7.041   4.158  0.0299  0.4717  0.2516
  10.39255  10.39255  10.39255
